* GENERATED BY CHARMM-GUI (HTTP://WWW.CHARMM-GUI.ORG) V3.7 ON JUL, 03. 2026. JOB
* GENERATES ION CONFORMATION USING MONTE-CARLO SIMULATION
*  DATE:     7/ 3/26      3:44:27      CREATED BY USER: charmm-gui
*
     49832  EXT
         1         1  POPE      N               6.9247395892       -0.9804934792       18.6864358519  MEMB      1               0.0000000000
         2         1  POPE      HN1             6.9081418468       -0.6390139205       19.6686355668  MEMB      1               0.0000000000
         3         1  POPE      HN2             7.7484316261       -1.5718244618       18.4552232322  MEMB      1               0.0000000000
         4         1  POPE      HN3             6.9567668938       -0.1949074734       18.0056797429  MEMB      1               0.0000000000
         5         1  POPE      C12             5.6486180465       -1.7094753787       18.5178935778  MEMB      1               0.0000000000
         6         1  POPE      H12A            5.4056894653       -2.1577818823       19.5049741224  MEMB      1               0.0000000000
         7         1  POPE      H12B            5.8883875377       -2.5018986425       17.7770178401  MEMB      1               0.0000000000
         8         1  POPE      C11             4.5278862098       -0.8731412100       17.8839697931  MEMB      1               0.0000000000
         9         1  POPE      H11A            3.6448674382       -1.5448357547       17.8254444864  MEMB      1               0.0000000000
        10         1  POPE      H11B            4.8196587206       -0.5484669643       16.8623159868  MEMB      1               0.0000000000
        11         1  POPE      P               2.8590910055        0.2666567717       19.4581126737  MEMB      1               0.0000000000
        12         1  POPE      O13             2.5115029681        1.6062652357       19.9888686116  MEMB      1               0.0000000000
        13         1  POPE      O14             3.0492928241       -0.8321003845       20.4477825510  MEMB      1               0.0000000000
        14         1  POPE      O11             1.6229261078       -0.0762965301       18.4326685795  MEMB      1               0.0000000000
        15         1  POPE      O12             4.2242816461        0.3645296376       18.5842683621  MEMB      1               0.0000000000
        16         1  POPE      C1              1.3595628253        0.7711246464       17.3380545881  MEMB      1               0.0000000000
        17         1  POPE      HA              2.1384722645        1.5337862375       17.1236523266  MEMB      1               0.0000000000
        18         1  POPE      HB              0.4871247643        1.3389828357       17.7262685171  MEMB      1               0.0000000000
        19         1  POPE      C2              1.0081985191       -0.0974007954       16.0798474795  MEMB      1               0.0000000000
        20         1  POPE      HS             -0.0400284222       -0.4199705426       16.2573011297  MEMB      1               0.0000000000
        21         1  POPE      O21             1.9262696788       -1.1804041286       15.8271338759  MEMB      1               0.0000000000
        22         1  POPE      C21             1.4526291109       -2.1034944659       14.9591732649  MEMB      1               0.0000000000
        23         1  POPE      O22             0.3111922522       -2.1886756181       14.5639153490  MEMB      1               0.0000000000
        24         1  POPE      C22             2.5448914806       -3.0286314925       14.5944293759  MEMB      1               0.0000000000
        25         1  POPE      H2R             3.0705733936       -2.5846081014       13.7221776761  MEMB      1               0.0000000000
        26         1  POPE      H2S             2.2228441882       -4.0559410281       14.3201270429  MEMB      1               0.0000000000
        27         1  POPE      C3              1.0110353876        0.8363917357       14.7646334368  MEMB      1               0.0000000000
        28         1  POPE      HX              0.3224132585        1.6704486187       15.0185421865  MEMB      1               0.0000000000
        29         1  POPE      HY              0.5088150533        0.3556578231       13.8980361694  MEMB      1               0.0000000000
        30         1  POPE      O31             2.3588480798        1.3075253625       14.4189682881  MEMB      1               0.0000000000
        31         1  POPE      C31             3.0269378202        0.6678565830       13.4696353662  MEMB      1               0.0000000000
        32         1  POPE      O32             2.6902993616       -0.2984619466       12.8024765690  MEMB      1               0.0000000000
        33         1  POPE      C32             4.5118891626        1.1431382631       13.5186483709  MEMB      1               0.0000000000
        34         1  POPE      H2X             4.8760843124        1.1626676699       14.5680773900  MEMB      1               0.0000000000
        35         1  POPE      H2Y             4.5266603171        2.1434942406       13.0355431771  MEMB      1               0.0000000000
        36         1  POPE      C23             3.4887105883       -3.3656515068       15.7321977715  MEMB      1               0.0000000000
        37         1  POPE      H3R             3.1698305592       -3.4364875483       16.7940917226  MEMB      1               0.0000000000
        38         1  POPE      H3S             4.2953291251       -2.6247115418       15.5459304478  MEMB      1               0.0000000000
        39         1  POPE      C24             4.1315573795       -4.7929677787       15.4469046906  MEMB      1               0.0000000000
        40         1  POPE      H4R             3.3818870896       -5.6050475025       15.5602273858  MEMB      1               0.0000000000
        41         1  POPE      H4S             4.8612833321       -4.9556714967       16.2687006445  MEMB      1               0.0000000000
        42         1  POPE      C25             4.9097562555       -4.8114015763       14.0687230245  MEMB      1               0.0000000000
        43         1  POPE      H5R             4.2395820470       -4.5320368942       13.2278054421  MEMB      1               0.0000000000
        44         1  POPE      H5S             5.2720535065       -5.8509396357       13.9189828690  MEMB      1               0.0000000000
        45         1  POPE      C26             6.1154519131       -3.9538862111       14.1023880989  MEMB      1               0.0000000000
        46         1  POPE      H6R             6.6777499443       -4.1996325160       15.0285362813  MEMB      1               0.0000000000
        47         1  POPE      H6S             5.8174490620       -2.8838475697       14.0793077126  MEMB      1               0.0000000000
        48         1  POPE      C27             7.1903873662       -4.3180626590       13.0960607701  MEMB      1               0.0000000000
        49         1  POPE      H7R             7.2704353154       -5.4257707545       13.0661343353  MEMB      1               0.0000000000
        50         1  POPE      H7S             8.1116359788       -3.8630666073       13.5186722771  MEMB      1               0.0000000000
        51         1  POPE      C28             6.8047766400       -3.7651289178       11.6942105928  MEMB      1               0.0000000000
        52         1  POPE      H8R             7.7935102349       -3.7280321201       11.1888883012  MEMB      1               0.0000000000
        53         1  POPE      H8S             6.4051250648       -2.7309121122       11.7648885073  MEMB      1               0.0000000000
        54         1  POPE      C29             6.0126031716       -4.6448931247       10.8250378932  MEMB      1               0.0000000000
        55         1  POPE      H91             6.4178085375       -5.6637896419       10.7375271703  MEMB      1               0.0000000000
        56         1  POPE      C210            4.9280180086       -4.3854594627       10.0529345058  MEMB      1               0.0000000000
        57         1  POPE      H101            4.6329835751       -5.1450625456        9.3140453153  MEMB      1               0.0000000000
        58         1  POPE      C211            4.2983945641       -3.0598726547        9.8683445198  MEMB      1               0.0000000000
        59         1  POPE      H11R            4.5899315324       -2.3992369622       10.7126712790  MEMB      1               0.0000000000
        60         1  POPE      H11S            3.2032376524       -3.2468275761        9.8686883918  MEMB      1               0.0000000000
        61         1  POPE      C212            4.5018048362       -2.3987026396        8.5267283583  MEMB      1               0.0000000000
        62         1  POPE      H12R            4.1763729783       -3.1093406905        7.7371657414  MEMB      1               0.0000000000
        63         1  POPE      H12S            5.5724473746       -2.1667459597        8.3416831337  MEMB      1               0.0000000000
        64         1  POPE      C213            3.7114314980       -1.1312245606        8.3536486500  MEMB      1               0.0000000000
        65         1  POPE      H13R            3.9224772697       -0.4826913375        9.2306812500  MEMB      1               0.0000000000
        66         1  POPE      H13S            2.6347189745       -1.3979077744        8.4160284030  MEMB      1               0.0000000000
        67         1  POPE      C214            3.9290216440       -0.3498301149        6.9937565379  MEMB      1               0.0000000000
        68         1  POPE      H14R            5.0329845529       -0.2273787459        6.9694164307  MEMB      1               0.0000000000
        69         1  POPE      H14S            3.4131865211        0.6324767899        7.0512738865  MEMB      1               0.0000000000
        70         1  POPE      C215            3.4549522147       -1.0595050726        5.6443102494  MEMB      1               0.0000000000
        71         1  POPE      H15R            2.3598999530       -1.2178843987        5.7447946308  MEMB      1               0.0000000000
        72         1  POPE      H15S            3.9265647803       -2.0595063754        5.5352238472  MEMB      1               0.0000000000
        73         1  POPE      C216            3.7416318736       -0.2495173499        4.4121829324  MEMB      1               0.0000000000
        74         1  POPE      H16R            4.7277588467        0.2611613625        4.3792890862  MEMB      1               0.0000000000
        75         1  POPE      H16S            2.9220518125        0.4989284688        4.3628013012  MEMB      1               0.0000000000
        76         1  POPE      C217            3.6610719714       -1.1875106335        3.1783531393  MEMB      1               0.0000000000
        77         1  POPE      H17R            2.6025801328       -1.5098642519        3.0783313060  MEMB      1               0.0000000000
        78         1  POPE      H17S            4.3303635199       -2.0481382451        3.3921052182  MEMB      1               0.0000000000
        79         1  POPE      C218            4.2055108669       -0.5639000833        1.8066187306  MEMB      1               0.0000000000
        80         1  POPE      H18R            3.4622838062        0.2332377865        1.5909671147  MEMB      1               0.0000000000
        81         1  POPE      H18S            4.3087693657       -1.3785292097        1.0582615920  MEMB      1               0.0000000000
        82         1  POPE      H18T            5.2360998271       -0.1650843728        1.9213074922  MEMB      1               0.0000000000
        83         1  POPE      C33             5.3967281290        0.3270736248       12.4602331360  MEMB      1               0.0000000000
        84         1  POPE      H3X             4.9768114499        0.5520430160       11.4565503987  MEMB      1               0.0000000000
        85         1  POPE      H3Y             5.4067090713       -0.7685541531       12.6441387101  MEMB      1               0.0000000000
        86         1  POPE      C34             6.7997191366        0.9102761474       12.2568802169  MEMB      1               0.0000000000
        87         1  POPE      H4X             7.2941237402        1.0388913371       13.2434618092  MEMB      1               0.0000000000
        88         1  POPE      H4Y             6.7214961498        1.9764284278       11.9543553126  MEMB      1               0.0000000000
        89         1  POPE      C35             7.6892584670        0.0791444982       11.3918593724  MEMB      1               0.0000000000
        90         1  POPE      H5X             7.5192971459       -0.9772711278       11.6908910621  MEMB      1               0.0000000000
        91         1  POPE      H5Y             8.7188650417        0.4005691937       11.6581625388  MEMB      1               0.0000000000
        92         1  POPE      C36             7.4086429654        0.2439809081        9.8883168574  MEMB      1               0.0000000000
        93         1  POPE      H6X             7.6300465330        1.3084799410        9.6599678613  MEMB      1               0.0000000000
        94         1  POPE      H6Y             6.3560575758       -0.0823487713        9.7472702767  MEMB      1               0.0000000000
        95         1  POPE      C37             8.1491593743       -0.6968629484        8.9556767310  MEMB      1               0.0000000000
        96         1  POPE      H7X             7.7314602693       -1.7192449146        8.8349141073  MEMB      1               0.0000000000
        97         1  POPE      H7Y             9.1779500921       -0.9647423217        9.2784012865  MEMB      1               0.0000000000
        98         1  POPE      C38             8.5364209934       -0.0578860293        7.5987096347  MEMB      1               0.0000000000
        99         1  POPE      H8X             8.9962784851        0.9141721403        7.8779134950  MEMB      1               0.0000000000
       100         1  POPE      H8Y             7.5586382082        0.1959506792        7.1362932481  MEMB      1               0.0000000000
       101         1  POPE      C39             9.3304321189       -0.8919475100        6.6239810070  MEMB      1               0.0000000000
       102         1  POPE      H9X             8.6404922706       -1.6816035382        6.2569009815  MEMB      1               0.0000000000
       103         1  POPE      H9Y            10.2356625089       -1.3575719690        7.0690341306  MEMB      1               0.0000000000
       104         1  POPE      C310            9.8728392212       -0.0193309762        5.4178843053  MEMB      1               0.0000000000
       105         1  POPE      H10X           10.1555235938       -0.7249497447        4.6076295717  MEMB      1               0.0000000000
       106         1  POPE      H10Y           10.8200579845        0.4818710398        5.7109608764  MEMB      1               0.0000000000
       107         1  POPE      C311            8.9653043190        1.0410459530        4.8837014625  MEMB      1               0.0000000000
       108         1  POPE      H11X            9.6072509538        1.7670471925        4.3404264571  MEMB      1               0.0000000000
       109         1  POPE      H11Y            8.4739825568        1.5797675625        5.7219753952  MEMB      1               0.0000000000
       110         1  POPE      C312            7.9339336629        0.5520423585        3.8030914406  MEMB      1               0.0000000000
       111         1  POPE      H12X            7.2284664674       -0.2864067147        3.9865046117  MEMB      1               0.0000000000
       112         1  POPE      H12Y            8.4926995142        0.2214984059        2.9015133272  MEMB      1               0.0000000000
       113         1  POPE      C313            6.8518772092        1.6394193727        3.4861567397  MEMB      1               0.0000000000
       114         1  POPE      H13X            6.5077600595        1.9467363355        4.4968298325  MEMB      1               0.0000000000
       115         1  POPE      H13Y            6.0065761800        1.2580988469        2.8742897207  MEMB      1               0.0000000000
       116         1  POPE      C314            7.5624918599        2.8211518502        2.6846551021  MEMB      1               0.0000000000
       117         1  POPE      H14X            8.1515792257        2.3261131430        1.8832600171  MEMB      1               0.0000000000
       118         1  POPE      H14Y            8.2638554762        3.3944267908        3.3279002005  MEMB      1               0.0000000000
       119         1  POPE      C315            6.5583197479        3.8964234462        2.0073589485  MEMB      1               0.0000000000
       120         1  POPE      H15X            6.2804303934        3.4471166555        1.0300047837  MEMB      1               0.0000000000
       121         1  POPE      H15Y            7.1841527060        4.7845796353        1.7753382018  MEMB      1               0.0000000000
       122         1  POPE      C316            5.2915852364        4.2856484571        2.8879624785  MEMB      1               0.0000000000
       123         1  POPE      H16X            4.5283724182        3.4839984996        2.7921246084  MEMB      1               0.0000000000
       124         1  POPE      H16Y            4.7721798709        5.2229370596        2.5946556225  MEMB      1               0.0000000000
       125         1  POPE      H16Z            5.4076740827        4.4512809708        3.9803951406  MEMB      1               0.0000000000
       126         2  PMPE      N              -6.6331085459        0.8221863789       20.0480667911  MEMB      2               0.0000000000
       127         2  PMPE      HN1            -7.4676300518        1.4335864993       20.1546668456  MEMB      2               0.0000000000
       128         2  PMPE      HN2            -6.5095279066        0.3338090400       20.9579104831  MEMB      2               0.0000000000
       129         2  PMPE      HN3            -5.8450442388        1.4787629318       19.8764221410  MEMB      2               0.0000000000
       130         2  PMPE      C12            -6.7669501653       -0.2065493641       18.9031482665  MEMB      2               0.0000000000
       131         2  PMPE      H12A           -6.7619627604        0.3643711990       17.9500765748  MEMB      2               0.0000000000
       132         2  PMPE      H12B           -7.7416292558       -0.7335401749       18.9844037414  MEMB      2               0.0000000000
       133         2  PMPE      C11            -5.6916347859       -1.3260141086       18.9358546738  MEMB      2               0.0000000000
       134         2  PMPE      H11A           -5.9139869770       -2.1042629877       18.1747968227  MEMB      2               0.0000000000
       135         2  PMPE      H11B           -5.6699951021       -1.8195529189       19.9309788640  MEMB      2               0.0000000000
       136         2  PMPE      P              -3.1962917813       -1.4373321242       18.8187653907  MEMB      2               0.0000000000
       137         2  PMPE      O13            -3.1086672969       -2.4053624946       17.7200061896  MEMB      2               0.0000000000
       138         2  PMPE      O14            -3.0217672939       -1.9380041898       20.2301779119  MEMB      2               0.0000000000
       139         2  PMPE      O11            -2.0507370620       -0.3720554772       18.6078195240  MEMB      2               0.0000000000
       140         2  PMPE      O12            -4.5585436883       -0.5967593633       18.7361612488  MEMB      2               0.0000000000
       141         2  PMPE      C1             -2.3054413700        0.9845450608       18.2177340738  MEMB      2               0.0000000000
       142         2  PMPE      HA             -1.3511087355        1.5511876611       18.2676014678  MEMB      2               0.0000000000
       143         2  PMPE      HB             -3.0952890620        1.4193600914       18.8668854576  MEMB      2               0.0000000000
       144         2  PMPE      C2             -2.8460786262        1.1849143497       16.7806566439  MEMB      2               0.0000000000
       145         2  PMPE      HS             -3.8777324188        0.7733174554       16.7561708676  MEMB      2               0.0000000000
       146         2  PMPE      O21            -2.0096716932        0.4075377047       15.9128774301  MEMB      2               0.0000000000
       147         2  PMPE      C21            -2.6213122313       -0.2903215002       14.9992908730  MEMB      2               0.0000000000
       148         2  PMPE      O22            -3.8269686809       -0.3726331274       14.8767847985  MEMB      2               0.0000000000
       149         2  PMPE      C22            -1.5330914743       -1.0874030112       14.1755250852  MEMB      2               0.0000000000
       150         2  PMPE      H2R            -1.9806333221       -1.4130040828       13.2121914473  MEMB      2               0.0000000000
       151         2  PMPE      H2S            -1.1891733933       -1.9287779885       14.8143749460  MEMB      2               0.0000000000
       152         2  PMPE      C3             -2.8195749582        2.7133101938       16.2962356690  MEMB      2               0.0000000000
       153         2  PMPE      HX             -1.7482223789        2.9881719168       16.1914712304  MEMB      2               0.0000000000
       154         2  PMPE      HY             -3.2551580920        3.3320259864       17.1097338863  MEMB      2               0.0000000000
       155         2  PMPE      O31            -3.4769489472        3.0087511348       15.0623644799  MEMB      2               0.0000000000
       156         2  PMPE      C31            -4.8149191911        2.9173996068       15.1284436116  MEMB      2               0.0000000000
       157         2  PMPE      O32            -5.4902745449        2.7366620602       16.1434272909  MEMB      2               0.0000000000
       158         2  PMPE      C32            -5.3878242103        3.0252776370       13.6943367992  MEMB      2               0.0000000000
       159         2  PMPE      H2X            -6.4822970032        3.1473111012       13.8411632962  MEMB      2               0.0000000000
       160         2  PMPE      H2Y            -5.0757220221        2.1830431455       13.0404603979  MEMB      2               0.0000000000
       161         2  PMPE      C23            -0.3629511316       -0.1494265440       13.8632136257  MEMB      2               0.0000000000
       162         2  PMPE      H3R             0.1451155804        0.2032140646       14.7861616664  MEMB      2               0.0000000000
       163         2  PMPE      H3S            -0.7004274925        0.8012087047       13.3976777766  MEMB      2               0.0000000000
       164         2  PMPE      C24             0.6799398259       -0.8669390685       13.0111275874  MEMB      2               0.0000000000
       165         2  PMPE      H4R             0.1661576903       -1.6292345508       12.3872247969  MEMB      2               0.0000000000
       166         2  PMPE      H4S             1.4328296138       -1.4742481702       13.5576193260  MEMB      2               0.0000000000
       167         2  PMPE      C25             1.3511458431        0.0823711713       12.0713293126  MEMB      2               0.0000000000
       168         2  PMPE      H5R             2.0870092868       -0.5189172045       11.4957614891  MEMB      2               0.0000000000
       169         2  PMPE      H5S             1.9572309445        0.8018699793       12.6623485854  MEMB      2               0.0000000000
       170         2  PMPE      C26             0.4737980070        0.8293715250       11.1029763288  MEMB      2               0.0000000000
       171         2  PMPE      H6R            -0.0544877333        1.6803912021       11.5836016284  MEMB      2               0.0000000000
       172         2  PMPE      H6S            -0.2626934546        0.0817618761       10.7383104435  MEMB      2               0.0000000000
       173         2  PMPE      C27             1.0957615458        1.4662783227        9.7812255858  MEMB      2               0.0000000000
       174         2  PMPE      H7R             1.9674766996        2.0881929005       10.0772928880  MEMB      2               0.0000000000
       175         2  PMPE      H7S             0.4243753696        2.2695965558        9.4094178537  MEMB      2               0.0000000000
       176         2  PMPE      C28             1.3579860863        0.4281091331        8.7036170062  MEMB      2               0.0000000000
       177         2  PMPE      H8R             2.1721207331       -0.2831163021        8.9598670669  MEMB      2               0.0000000000
       178         2  PMPE      H8S             1.7054008017        1.0934515329        7.8845051800  MEMB      2               0.0000000000
       179         2  PMPE      C29             0.1039106453       -0.4369579824        8.3883369262  MEMB      2               0.0000000000
       180         2  PMPE      H9R            -0.8395331981        0.1255961552        8.2217010950  MEMB      2               0.0000000000
       181         2  PMPE      C217           -0.0374688256       -1.8633142352        9.0189754059  MEMB      2               0.0000000000
       182         2  PMPE      H17R           -1.0406970665       -2.1985577418        9.2514271985  MEMB      2               0.0000000000
       183         2  PMPE      H17S            0.8348938099       -2.1712671299        9.5820361967  MEMB      2               0.0000000000
       184         2  PMPE      C210            0.2168462340       -1.6584659469        7.4827770299  MEMB      2               0.0000000000
       185         2  PMPE      H10R           -0.7148299261       -1.8579157443        6.9113574419  MEMB      2               0.0000000000
       186         2  PMPE      C211            1.6202697452       -2.2020321584        6.9112449425  MEMB      2               0.0000000000
       187         2  PMPE      H11R            1.5328936542       -3.3089889678        6.9477552559  MEMB      2               0.0000000000
       188         2  PMPE      H11S            2.4711988188       -1.9821674054        7.5908778287  MEMB      2               0.0000000000
       189         2  PMPE      C212            1.7885542537       -1.6265765537        5.5503263550  MEMB      2               0.0000000000
       190         2  PMPE      H12R            2.5764826459       -2.2144673313        5.0327605529  MEMB      2               0.0000000000
       191         2  PMPE      H12S            2.1802624802       -0.5874968518        5.5156955785  MEMB      2               0.0000000000
       192         2  PMPE      C213            0.5453042346       -1.7780852784        4.6667091365  MEMB      2               0.0000000000
       193         2  PMPE      H13R           -0.1875642376       -1.0060554710        4.9848197736  MEMB      2               0.0000000000
       194         2  PMPE      H13S            0.1494008630       -2.7992309011        4.8533731958  MEMB      2               0.0000000000
       195         2  PMPE      C214            0.9602698702       -1.7338213789        3.1662984546  MEMB      2               0.0000000000
       196         2  PMPE      H14R            0.1319170729       -2.1916621440        2.5844620637  MEMB      2               0.0000000000
       197         2  PMPE      H14S            1.9007156803       -2.3074714378        3.0220500860  MEMB      2               0.0000000000
       198         2  PMPE      C215            1.0959383785       -0.3163862037        2.5790014182  MEMB      2               0.0000000000
       199         2  PMPE      H15R            2.0267132288        0.1880433801        2.9159433616  MEMB      2               0.0000000000
       200         2  PMPE      H15S            0.2627407001        0.3737728551        2.8315555549  MEMB      2               0.0000000000
       201         2  PMPE      C216            1.1510018119       -0.2539875026        1.0631410745  MEMB      2               0.0000000000
       202         2  PMPE      H16R            1.8096046970       -1.0871072517        0.7368353665  MEMB      2               0.0000000000
       203         2  PMPE      H16S            0.1838256582       -0.3693794733        0.5287474977  MEMB      2               0.0000000000
       204         2  PMPE      H16T            1.5012887103        0.7343982548        0.6961078139  MEMB      2               0.0000000000
       205         2  PMPE      C33            -4.7784765096        4.2215548509       12.9766110684  MEMB      2               0.0000000000
       206         2  PMPE      H3X            -3.7326429849        3.9074261045       12.7719747637  MEMB      2               0.0000000000
       207         2  PMPE      H3Y            -4.6068457576        5.0881155001       13.6503592856  MEMB      2               0.0000000000
       208         2  PMPE      C34            -5.3819630994        4.8207441434       11.6743698362  MEMB      2               0.0000000000
       209         2  PMPE      H4X            -4.5877597368        5.5705267772       11.4709294391  MEMB      2               0.0000000000
       210         2  PMPE      H4Y            -6.2692984682        5.3407731260       12.0945205755  MEMB      2               0.0000000000
       211         2  PMPE      C35            -5.7293670189        3.9242466522       10.4329097588  MEMB      2               0.0000000000
       212         2  PMPE      H5X            -6.0753810050        4.7391448363        9.7616903371  MEMB      2               0.0000000000
       213         2  PMPE      H5Y            -6.4450938212        3.1511167395       10.7855091776  MEMB      2               0.0000000000
       214         2  PMPE      C36            -4.4317689789        3.3050188019        9.9899432156  MEMB      2               0.0000000000
       215         2  PMPE      H6X            -4.0775967248        2.7881075554       10.9073779030  MEMB      2               0.0000000000
       216         2  PMPE      H6Y            -3.7668527638        4.1738486448        9.7967018770  MEMB      2               0.0000000000
       217         2  PMPE      C37            -4.7221939396        2.4119048084        8.7731320153  MEMB      2               0.0000000000
       218         2  PMPE      H7X            -4.9576538487        3.0107812149        7.8674681700  MEMB      2               0.0000000000
       219         2  PMPE      H7Y            -5.6780494570        1.8927752368        8.9993301691  MEMB      2               0.0000000000
       220         2  PMPE      C38            -3.5943113745        1.3467230622        8.3733512084  MEMB      2               0.0000000000
       221         2  PMPE      H8X            -3.1591813586        0.8280597917        9.2542440249  MEMB      2               0.0000000000
       222         2  PMPE      H8Y            -2.7182353067        1.7877161858        7.8514931771  MEMB      2               0.0000000000
       223         2  PMPE      C39            -4.0259789695        0.3419579013        7.3261635208  MEMB      2               0.0000000000
       224         2  PMPE      H9X            -4.7978327968       -0.2548794399        7.8575277614  MEMB      2               0.0000000000
       225         2  PMPE      H9Y            -3.2466936401       -0.4112219699        7.0817139358  MEMB      2               0.0000000000
       226         2  PMPE      C310           -4.6064087514        0.8196975697        6.0448760942  MEMB      2               0.0000000000
       227         2  PMPE      H10X           -5.4066071988        1.5523319684        6.2841464078  MEMB      2               0.0000000000
       228         2  PMPE      H10Y           -5.0891212147        0.0948304418        5.3550371152  MEMB      2               0.0000000000
       229         2  PMPE      C311           -3.6107187077        1.6173147133        5.2239360581  MEMB      2               0.0000000000
       230         2  PMPE      H11X           -2.7468592985        0.9738982927        4.9517542104  MEMB      2               0.0000000000
       231         2  PMPE      H11Y           -3.2553894408        2.3897429290        5.9390702515  MEMB      2               0.0000000000
       232         2  PMPE      C312           -4.3061205352        2.1761621407        3.9799911578  MEMB      2               0.0000000000
       233         2  PMPE      H12X           -4.9808371205        2.9991272418        4.2990634454  MEMB      2               0.0000000000
       234         2  PMPE      H12Y           -4.8082708270        1.3410684000        3.4463388459  MEMB      2               0.0000000000
       235         2  PMPE      C313           -3.3690045577        2.7974948056        2.9950390373  MEMB      2               0.0000000000
       236         2  PMPE      H13X           -2.6457594772        2.0083993718        2.6974391757  MEMB      2               0.0000000000
       237         2  PMPE      H13Y           -2.7821866437        3.5641729024        3.5447393046  MEMB      2               0.0000000000
       238         2  PMPE      C314           -4.0922744994        3.4212708643        1.7468323377  MEMB      2               0.0000000000
       239         2  PMPE      H14X           -3.3870486917        3.9550105170        1.0744508914  MEMB      2               0.0000000000
       240         2  PMPE      H14Y           -4.7428059018        4.2225061506        2.1581135972  MEMB      2               0.0000000000
       241         2  PMPE      C315           -4.9442526065        2.3537895952        0.8759595997  MEMB      2               0.0000000000
       242         2  PMPE      H15X           -5.3643485518        2.8526603156       -0.0234663997  MEMB      2               0.0000000000
       243         2  PMPE      H15Y           -5.8159856634        2.0146479024        1.4754482777  MEMB      2               0.0000000000
       244         2  PMPE      C316           -4.1733656343        1.0759950917        0.5385341316  MEMB      2               0.0000000000
       245         2  PMPE      H16X           -3.1601201541        1.2804794298        0.1312993591  MEMB      2               0.0000000000
       246         2  PMPE      H16Y           -4.7488984780        0.4001699415       -0.1295549028  MEMB      2               0.0000000000
       247         2  PMPE      H16Z           -4.0615896523        0.4044590650        1.4165252543  MEMB      2               0.0000000000
       248         3  PMPE      N               1.2483535066        6.6192191520       19.9533483682  MEMB      3               0.0000000000
       249         3  PMPE      HN1             2.1322888137        6.3074257423       20.4039517003  MEMB      3               0.0000000000
       250         3  PMPE      HN2             1.4150378038        6.7995008840       18.9427470996  MEMB      3               0.0000000000
       251         3  PMPE      HN3             1.0045084812        7.5535516466       20.3395639225  MEMB      3               0.0000000000
       252         3  PMPE      C12             0.0999323085        5.6130796627       20.3119318769  MEMB      3               0.0000000000
       253         3  PMPE      H12A            0.1946638545        5.3807313600       21.3942262979  MEMB      3               0.0000000000
       254         3  PMPE      H12B            0.3156020040        4.6699152713       19.7658105187  MEMB      3               0.0000000000
       255         3  PMPE      C11            -1.2701321227        6.2476721740       20.0369182291  MEMB      3               0.0000000000
       256         3  PMPE      H11A           -1.2233962200        7.0591617288       20.7942962841  MEMB      3               0.0000000000
       257         3  PMPE      H11B           -2.0488855874        5.4664305077       20.1693017756  MEMB      3               0.0000000000
       258         3  PMPE      P              -2.4276174102        7.8616073507       18.3942777918  MEMB      3               0.0000000000
       259         3  PMPE      O13            -2.1501247986        8.9846184198       19.2754710439  MEMB      3               0.0000000000
       260         3  PMPE      O14            -3.8270051088        7.2980407757       18.4282355792  MEMB      3               0.0000000000
       261         3  PMPE      O11            -2.1368551461        8.3264724701       16.9164210561  MEMB      3               0.0000000000
       262         3  PMPE      O12            -1.3721326645        6.6970539276       18.6833960557  MEMB      3               0.0000000000
       263         3  PMPE      C1             -1.9518930914        7.3384060533       15.8711162624  MEMB      3               0.0000000000
       264         3  PMPE      HA             -2.4584670791        7.8013194000       14.9973801894  MEMB      3               0.0000000000
       265         3  PMPE      HB             -2.4296402913        6.3489725332       16.0357369144  MEMB      3               0.0000000000
       266         3  PMPE      C2             -0.4678507012        7.2087564393       15.4201780276  MEMB      3               0.0000000000
       267         3  PMPE      HS              0.0756008969        7.0299700480       16.3725521620  MEMB      3               0.0000000000
       268         3  PMPE      O21            -0.0155148263        8.4364824899       14.8786957971  MEMB      3               0.0000000000
       269         3  PMPE      C21             1.2818241115        8.5988020131       14.8214317039  MEMB      3               0.0000000000
       270         3  PMPE      O22             2.1081728839        7.7459293268       14.9965708346  MEMB      3               0.0000000000
       271         3  PMPE      C22             1.4767990917        9.9997311905       14.2027165615  MEMB      3               0.0000000000
       272         3  PMPE      H2R             2.4904940485       10.3575531032       14.4832643578  MEMB      3               0.0000000000
       273         3  PMPE      H2S             0.6877477400       10.7489940448       14.4270465236  MEMB      3               0.0000000000
       274         3  PMPE      C3             -0.2427968752        6.0469298782       14.4338902116  MEMB      3               0.0000000000
       275         3  PMPE      HX             -0.5417468983        5.0950259967       14.9225912271  MEMB      3               0.0000000000
       276         3  PMPE      HY              0.8529932745        6.0110292145       14.2542353763  MEMB      3               0.0000000000
       277         3  PMPE      O31            -0.8516608529        6.2809479597       13.1247951282  MEMB      3               0.0000000000
       278         3  PMPE      C31            -1.3937378430        5.1819925926       12.6401725573  MEMB      3               0.0000000000
       279         3  PMPE      O32            -1.1962086863        4.0262834801       12.9760233876  MEMB      3               0.0000000000
       280         3  PMPE      C32            -2.2631214343        5.5949407553       11.5010589680  MEMB      3               0.0000000000
       281         3  PMPE      H2X            -2.3966832762        6.6934567705       11.4023432619  MEMB      3               0.0000000000
       282         3  PMPE      H2Y            -3.2596416817        5.1925002237       11.7826792605  MEMB      3               0.0000000000
       283         3  PMPE      C23             1.5556488259       10.0119829166       12.6736805344  MEMB      3               0.0000000000
       284         3  PMPE      H3R             2.2288117324        9.2267996630       12.2678971103  MEMB      3               0.0000000000
       285         3  PMPE      H3S             2.0692690726       10.9148077493       12.2794439324  MEMB      3               0.0000000000
       286         3  PMPE      C24             0.1637480793        9.9234655627       11.9603851259  MEMB      3               0.0000000000
       287         3  PMPE      H4R            -0.4821290447       10.7457095171       12.3359896062  MEMB      3               0.0000000000
       288         3  PMPE      H4S            -0.1750513565        8.8862904210       12.1696784994  MEMB      3               0.0000000000
       289         3  PMPE      C25             0.2848842291       10.1273484175       10.4361028881  MEMB      3               0.0000000000
       290         3  PMPE      H5R            -0.4958488855        9.5012925584        9.9535769595  MEMB      3               0.0000000000
       291         3  PMPE      H5S             1.1632775211        9.6180690730        9.9851253622  MEMB      3               0.0000000000
       292         3  PMPE      C26             0.3223683950       11.6518408193        9.8753218857  MEMB      3               0.0000000000
       293         3  PMPE      H6R             1.2897123511       11.9913758384       10.3034370121  MEMB      3               0.0000000000
       294         3  PMPE      H6S            -0.5061214510       12.2768312659       10.2719481167  MEMB      3               0.0000000000
       295         3  PMPE      C27             0.5182103587       11.6972955307        8.3042298459  MEMB      3               0.0000000000
       296         3  PMPE      H7R             1.2623862869       10.9668693934        7.9208224261  MEMB      3               0.0000000000
       297         3  PMPE      H7S             0.9077958944       12.7059422999        8.0489325492  MEMB      3               0.0000000000
       298         3  PMPE      C28            -0.6669559972       11.2970032569        7.4912649309  MEMB      3               0.0000000000
       299         3  PMPE      H8R            -1.5076020992       11.8877181681        7.9139842092  MEMB      3               0.0000000000
       300         3  PMPE      H8S            -0.8587735477       10.2037656107        7.5398284496  MEMB      3               0.0000000000
       301         3  PMPE      C29            -0.3773173685       11.6098875575        6.0179734148  MEMB      3               0.0000000000
       302         3  PMPE      H9R             0.6044729815       11.3577995508        5.5631544034  MEMB      3               0.0000000000
       303         3  PMPE      C217           -1.1001860992       12.8108370205        5.3595869968  MEMB      3               0.0000000000
       304         3  PMPE      H17R           -0.4183505214       13.3243821440        4.6930584108  MEMB      3               0.0000000000
       305         3  PMPE      H17S           -1.8717616449       13.3394662586        5.9055822778  MEMB      3               0.0000000000
       306         3  PMPE      C210           -1.4354608117       11.3796852145        5.0291475261  MEMB      3               0.0000000000
       307         3  PMPE      H10R           -1.1166904102       11.1329028761        3.9938672547  MEMB      3               0.0000000000
       308         3  PMPE      C211           -2.6866513019       10.7653636380        5.5710431523  MEMB      3               0.0000000000
       309         3  PMPE      H11R           -3.4000111073       11.5850125198        5.8025908906  MEMB      3               0.0000000000
       310         3  PMPE      H11S           -2.5690244570       10.2059345318        6.5236833095  MEMB      3               0.0000000000
       311         3  PMPE      C212           -3.1642955544        9.7985374633        4.4624648897  MEMB      3               0.0000000000
       312         3  PMPE      H12R           -3.7904188281        8.9659461792        4.8485768319  MEMB      3               0.0000000000
       313         3  PMPE      H12S           -2.2986932427        9.2173614304        4.0786837977  MEMB      3               0.0000000000
       314         3  PMPE      C213           -3.8192428578       10.4189292717        3.1629151946  MEMB      3               0.0000000000
       315         3  PMPE      H13R           -3.3545277526       11.4013539349        2.9322568383  MEMB      3               0.0000000000
       316         3  PMPE      H13S           -4.8939029896       10.5881460657        3.3882871324  MEMB      3               0.0000000000
       317         3  PMPE      C214           -3.6685256660        9.4905764967        1.9342012117  MEMB      3               0.0000000000
       318         3  PMPE      H14R           -2.6472078835        9.4682060043        1.4974741471  MEMB      3               0.0000000000
       319         3  PMPE      H14S           -4.3623505298        9.9101903365        1.1746922178  MEMB      3               0.0000000000
       320         3  PMPE      C215           -3.9904931750        8.0565875996        2.1503759773  MEMB      3               0.0000000000
       321         3  PMPE      H15R           -4.8541601292        7.8912883571        2.8294028933  MEMB      3               0.0000000000
       322         3  PMPE      H15S           -3.1573279300        7.6191747032        2.7409929547  MEMB      3               0.0000000000
       323         3  PMPE      C216           -3.9239930436        7.1004531098        0.9198982117  MEMB      3               0.0000000000
       324         3  PMPE      H16R           -3.0103721489        7.1960451015        0.2950132425  MEMB      3               0.0000000000
       325         3  PMPE      H16S           -4.1786250042        6.0380980616        1.1220979818  MEMB      3               0.0000000000
       326         3  PMPE      H16T           -4.7982935680        7.3580895652        0.2846462493  MEMB      3               0.0000000000
       327         3  PMPE      C33            -1.6827441611        5.1922598269       10.1481624244  MEMB      3               0.0000000000
       328         3  PMPE      H3X            -1.1664120754        4.2130551227       10.2423979136  MEMB      3               0.0000000000
       329         3  PMPE      H3Y            -0.8571316547        5.8973528463        9.9125171459  MEMB      3               0.0000000000
       330         3  PMPE      C34            -2.6397491695        5.1702370848        9.0376449249  MEMB      3               0.0000000000
       331         3  PMPE      H4X            -3.5250395280        5.7523265254        9.3719409823  MEMB      3               0.0000000000
       332         3  PMPE      H4Y            -3.0229369287        4.1279699588        9.0034806274  MEMB      3               0.0000000000
       333         3  PMPE      C35            -2.2650829081        5.6245357887        7.6188718112  MEMB      3               0.0000000000
       334         3  PMPE      H5X            -3.1868557547        5.6892658400        7.0020528637  MEMB      3               0.0000000000
       335         3  PMPE      H5Y            -1.5036172416        4.9216936635        7.2182426285  MEMB      3               0.0000000000
       336         3  PMPE      C36            -1.4976306437        6.9731503295        7.5673765763  MEMB      3               0.0000000000
       337         3  PMPE      H6X            -0.5801141141        7.0928146296        8.1823273269  MEMB      3               0.0000000000
       338         3  PMPE      H6Y            -2.1164795244        7.7802808804        8.0144643887  MEMB      3               0.0000000000
       339         3  PMPE      C37            -1.0449316983        7.2728317186        6.1215433016  MEMB      3               0.0000000000
       340         3  PMPE      H7X            -0.7097996002        8.3317270524        6.1488969249  MEMB      3               0.0000000000
       341         3  PMPE      H7Y            -1.8324474475        7.2448117960        5.3383731752  MEMB      3               0.0000000000
       342         3  PMPE      C38             0.0100096157        6.2932639470        5.5201608008  MEMB      3               0.0000000000
       343         3  PMPE      H8X            -0.5046212570        5.3387355427        5.2785995891  MEMB      3               0.0000000000
       344         3  PMPE      H8Y             0.8080483875        6.0783226086        6.2626261817  MEMB      3               0.0000000000
       345         3  PMPE      C39             0.8202433251        7.0132305975        4.3437176117  MEMB      3               0.0000000000
       346         3  PMPE      H9X             1.7030901006        6.3898977504        4.0861161379  MEMB      3               0.0000000000
       347         3  PMPE      H9Y             1.0549145683        8.0634626148        4.6198757647  MEMB      3               0.0000000000
       348         3  PMPE      C310           -0.0317131944        7.1104957478        3.0879440896  MEMB      3               0.0000000000
       349         3  PMPE      H10X           -0.9673647788        7.6803521667        3.2727162245  MEMB      3               0.0000000000
       350         3  PMPE      H10Y           -0.2466400155        6.0729085262        2.7539676718  MEMB      3               0.0000000000
       351         3  PMPE      C311            0.7175944830        7.6731299807        1.8434465723  MEMB      3               0.0000000000
       352         3  PMPE      H11X            1.6960365321        7.1632045213        1.7132599834  MEMB      3               0.0000000000
       353         3  PMPE      H11Y            0.9941253445        8.7304438869        2.0432939418  MEMB      3               0.0000000000
       354         3  PMPE      C312           -0.0738547921        7.5689232399        0.4710280295  MEMB      3               0.0000000000
       355         3  PMPE      H12X           -1.0898975186        7.9988128768        0.6020738011  MEMB      3               0.0000000000
       356         3  PMPE      H12Y           -0.2538125629        6.4933406303        0.2587589423  MEMB      3               0.0000000000
       357         3  PMPE      C313            0.6785516275        8.0100719701       -0.7809646831  MEMB      3               0.0000000000
       358         3  PMPE      H13X            0.0727081734        7.6116474055       -1.6227082116  MEMB      3               0.0000000000
       359         3  PMPE      H13Y            1.6390305329        7.4554688286       -0.8458976436  MEMB      3               0.0000000000
       360         3  PMPE      C314            0.9684184575        9.4756861789       -0.9339115817  MEMB      3               0.0000000000
       361         3  PMPE      H14X            1.6738051667        9.5232449516       -1.7909347690  MEMB      3               0.0000000000
       362         3  PMPE      H14Y            1.3718195403        9.8187263547        0.0427728082  MEMB      3               0.0000000000
       363         3  PMPE      C315           -0.2727031349       10.4205829405       -1.2326770142  MEMB      3               0.0000000000
       364         3  PMPE      H15X            0.2163971308       11.3829697301       -1.4951914948  MEMB      3               0.0000000000
       365         3  PMPE      H15Y           -0.8686763397       10.6435984032       -0.3219613973  MEMB      3               0.0000000000
       366         3  PMPE      C316           -1.3341705141        9.8918730516       -2.2866649087  MEMB      3               0.0000000000
       367         3  PMPE      H16X           -1.5106387239       10.4698623067       -3.2189248383  MEMB      3               0.0000000000
       368         3  PMPE      H16Y           -2.3134751516        9.9350241550       -1.7637678219  MEMB      3               0.0000000000
       369         3  PMPE      H16Z           -1.2544040120        8.8577127492       -2.6847485404  MEMB      3               0.0000000000
       370         4  POPE      N               0.0816069334       -9.0803117501       21.7940159485  MEMB      4               0.0000000000
       371         4  POPE      HN1             0.0455736454       -8.7779708983       22.7884463574  MEMB      4               0.0000000000
       372         4  POPE      HN2             0.2249480537      -10.1024738660       21.6665879558  MEMB      4               0.0000000000
       373         4  POPE      HN3             0.8935535564       -8.5453925256       21.4249577254  MEMB      4               0.0000000000
       374         4  POPE      C12            -1.0830732981       -8.5946750745       20.9309957879  MEMB      4               0.0000000000
       375         4  POPE      H12A           -1.0941942864       -7.4838223822       20.9167260577  MEMB      4               0.0000000000
       376         4  POPE      H12B           -2.0434365580       -9.0483138786       21.2569335865  MEMB      4               0.0000000000
       377         4  POPE      C11            -0.7353425851       -8.9402770006       19.5159075712  MEMB      4               0.0000000000
       378         4  POPE      H11A           -1.4892065001       -8.5688121979       18.7892548957  MEMB      4               0.0000000000
       379         4  POPE      H11B           -0.8665125173      -10.0098517932       19.2454905100  MEMB      4               0.0000000000
       380         4  POPE      P               0.9241987332       -7.7077954347       17.9484814180  MEMB      4               0.0000000000
       381         4  POPE      O13             2.2226920468       -7.0418730833       18.2154636223  MEMB      4               0.0000000000
       382         4  POPE      O14            -0.2163791443       -6.8281847879       17.5101670271  MEMB      4               0.0000000000
       383         4  POPE      O11             1.0785479723       -8.8579348719       16.9070506542  MEMB      4               0.0000000000
       384         4  POPE      O12             0.6002319284       -8.5787623317       19.1779179364  MEMB      4               0.0000000000
       385         4  POPE      C1             -0.1024421685       -9.6173429614       16.4764900325  MEMB      4               0.0000000000
       386         4  POPE      HA             -0.9541452763       -8.9497069819       16.2251239023  MEMB      4               0.0000000000
       387         4  POPE      HB             -0.3324690949      -10.3816565293       17.2492988223  MEMB      4               0.0000000000
       388         4  POPE      C2              0.4707852954      -10.2805320860       15.2416930854  MEMB      4               0.0000000000
       389         4  POPE      HS              1.4378124146      -10.7126121034       15.5770832806  MEMB      4               0.0000000000
       390         4  POPE      O21             0.6659857021       -9.2842411956       14.2465205406  MEMB      4               0.0000000000
       391         4  POPE      C21             1.4185050588       -9.5424154685       13.2551556317  MEMB      4               0.0000000000
       392         4  POPE      O22             2.2812290067      -10.4453239040       13.0943522509  MEMB      4               0.0000000000
       393         4  POPE      C22             0.9358001897       -8.6578127945       12.1651380326  MEMB      4               0.0000000000
       394         4  POPE      H2R             0.4431421506       -7.8146864589       12.6949934234  MEMB      4               0.0000000000
       395         4  POPE      H2S             0.0676998780       -9.0398811439       11.5865649918  MEMB      4               0.0000000000
       396         4  POPE      C3             -0.4402013605      -11.3593741318       14.6099964170  MEMB      4               0.0000000000
       397         4  POPE      HX             -1.2186620271      -10.9319599244       13.9424358074  MEMB      4               0.0000000000
       398         4  POPE      HY             -0.9465301885      -11.8999660425       15.4380742449  MEMB      4               0.0000000000
       399         4  POPE      O31             0.2382791501      -12.3928695379       13.8936518897  MEMB      4               0.0000000000
       400         4  POPE      C31            -0.4696942998      -13.2532945949       13.0369122667  MEMB      4               0.0000000000
       401         4  POPE      O32            -1.6801732427      -13.2679395846       12.9418400157  MEMB      4               0.0000000000
       402         4  POPE      C32             0.4539622580      -14.3566249739       12.5006041017  MEMB      4               0.0000000000
       403         4  POPE      H2X             0.2529519348      -15.2695234840       13.1010472085  MEMB      4               0.0000000000
       404         4  POPE      H2Y             1.5305355133      -14.0872813572       12.5531847791  MEMB      4               0.0000000000
       405         4  POPE      C23             2.0454521226       -8.2613663962       11.2215800045  MEMB      4               0.0000000000
       406         4  POPE      H3R             2.1117089335       -8.9227689717       10.3313676826  MEMB      4               0.0000000000
       407         4  POPE      H3S             3.0360106335       -8.2690541522       11.7246260563  MEMB      4               0.0000000000
       408         4  POPE      C24             1.7117279744       -6.8735709077       10.6515700467  MEMB      4               0.0000000000
       409         4  POPE      H4R             2.2815097873       -6.2038818733       11.3306771892  MEMB      4               0.0000000000
       410         4  POPE      H4S             0.6347185054       -6.6338616084       10.7816116997  MEMB      4               0.0000000000
       411         4  POPE      C25             1.9729176604       -6.6635008800        9.2089985951  MEMB      4               0.0000000000
       412         4  POPE      H5R             2.9961440444       -6.9954622963        8.9312744146  MEMB      4               0.0000000000
       413         4  POPE      H5S             1.8743210903       -5.5816363851        8.9762568509  MEMB      4               0.0000000000
       414         4  POPE      C26             0.9944781950       -7.4386770198        8.2814610067  MEMB      4               0.0000000000
       415         4  POPE      H6R            -0.0391619705       -7.3232776994        8.6720915762  MEMB      4               0.0000000000
       416         4  POPE      H6S             1.1713697905       -8.5355041406        8.2821926642  MEMB      4               0.0000000000
       417         4  POPE      C27             1.1294459794       -7.1328569274        6.7199800213  MEMB      4               0.0000000000
       418         4  POPE      H7R             0.7581013019       -8.0094792609        6.1473042960  MEMB      4               0.0000000000
       419         4  POPE      H7S             2.1855680783       -7.0156573895        6.3956473668  MEMB      4               0.0000000000
       420         4  POPE      C28             0.3253284015       -5.9002886153        6.2447800868  MEMB      4               0.0000000000
       421         4  POPE      H8R             0.2781779992       -5.9669427199        5.1367843918  MEMB      4               0.0000000000
       422         4  POPE      H8S             0.8514978346       -4.9928863396        6.6109607421  MEMB      4               0.0000000000
       423         4  POPE      C29            -1.0964059300       -5.9281682786        6.8523140396  MEMB      4               0.0000000000
       424         4  POPE      H91            -1.2699653600       -5.5884668174        7.8840509765  MEMB      4               0.0000000000
       425         4  POPE      C210           -2.2903654540       -6.4438066237        6.3207667503  MEMB      4               0.0000000000
       426         4  POPE      H101           -3.1645354764       -6.5882185448        6.9726660046  MEMB      4               0.0000000000
       427         4  POPE      C211           -2.5363363862       -7.1470761553        4.9478559898  MEMB      4               0.0000000000
       428         4  POPE      H11R           -3.0484809462       -8.1158698160        5.1307979413  MEMB      4               0.0000000000
       429         4  POPE      H11S           -1.6199092230       -7.5362090864        4.4548476317  MEMB      4               0.0000000000
       430         4  POPE      C212           -3.4160906260       -6.2492807926        4.0376055477  MEMB      4               0.0000000000
       431         4  POPE      H12R           -2.8688725531       -5.3034965024        3.8366937817  MEMB      4               0.0000000000
       432         4  POPE      H12S           -4.4148424335       -6.0855145052        4.4958591014  MEMB      4               0.0000000000
       433         4  POPE      C213           -3.5171712361       -6.8325033606        2.6085177069  MEMB      4               0.0000000000
       434         4  POPE      H13R           -4.1304655305       -6.1276207627        2.0074090321  MEMB      4               0.0000000000
       435         4  POPE      H13S           -3.9921579096       -7.8356386518        2.6577941947  MEMB      4               0.0000000000
       436         4  POPE      C214           -2.1789623001       -6.9433143176        1.8695231384  MEMB      4               0.0000000000
       437         4  POPE      H14R           -1.3608821117       -7.3988475675        2.4674811287  MEMB      4               0.0000000000
       438         4  POPE      H14S           -1.8314005057       -5.8905451605        1.7974224112  MEMB      4               0.0000000000
       439         4  POPE      C215           -2.3675334350       -7.5595140740        0.4089838765  MEMB      4               0.0000000000
       440         4  POPE      H15R           -1.3686871884       -7.4868075432       -0.0719945637  MEMB      4               0.0000000000
       441         4  POPE      H15S           -3.0816102427       -7.0016461907       -0.2338216848  MEMB      4               0.0000000000
       442         4  POPE      C216           -2.6151897153       -9.0730557375        0.4095468291  MEMB      4               0.0000000000
       443         4  POPE      H16R           -3.6937405580       -9.3248078492        0.4971248397  MEMB      4               0.0000000000
       444         4  POPE      H16S           -2.1314250667       -9.5036952159        1.3122334336  MEMB      4               0.0000000000
       445         4  POPE      C217           -2.0234665754       -9.9954527879       -0.7113303833  MEMB      4               0.0000000000
       446         4  POPE      H17R           -2.6822888113       -9.8936356604       -1.6000988495  MEMB      4               0.0000000000
       447         4  POPE      H17S           -2.0817552184      -11.0679551367       -0.4273194712  MEMB      4               0.0000000000
       448         4  POPE      C218           -0.6443749802       -9.5255359487       -1.1008655427  MEMB      4               0.0000000000
       449         4  POPE      H18R           -0.0394348320       -9.2776787915       -0.2025685693  MEMB      4               0.0000000000
       450         4  POPE      H18S           -0.7221318666       -8.5514478212       -1.6294735164  MEMB      4               0.0000000000
       451         4  POPE      H18T           -0.1514421794      -10.1154118151       -1.9029776654  MEMB      4               0.0000000000
       452         4  POPE      C33            -0.0289946952      -14.7873825200       11.0744874380  MEMB      4               0.0000000000
       453         4  POPE      H3X            -1.0373432437      -15.2461818036       11.1584952516  MEMB      4               0.0000000000
       454         4  POPE      H3Y             0.6370599296      -15.5971585711       10.7071249542  MEMB      4               0.0000000000
       455         4  POPE      C34            -0.1524167948      -13.5646407721       10.1408216870  MEMB      4               0.0000000000
       456         4  POPE      H4X            -0.9628559394      -12.8418875488       10.3756340541  MEMB      4               0.0000000000
       457         4  POPE      H4Y            -0.4409864673      -13.9910349659        9.1563231795  MEMB      4               0.0000000000
       458         4  POPE      C35             1.1940553463      -12.7786398241        9.9100123310  MEMB      4               0.0000000000
       459         4  POPE      H5X             1.8908565470      -13.6224395105        9.7182033368  MEMB      4               0.0000000000
       460         4  POPE      H5Y             1.6159966176      -12.4299437702       10.8768098003  MEMB      4               0.0000000000
       461         4  POPE      C36             1.0352582942      -11.5935566142        8.9666225985  MEMB      4               0.0000000000
       462         4  POPE      H6X             1.9694957804      -10.9940069658        9.0120258485  MEMB      4               0.0000000000
       463         4  POPE      H6Y             0.2334365417      -10.8806419893        9.2549892239  MEMB      4               0.0000000000
       464         4  POPE      C37             0.8477555474      -11.9672213657        7.4759586088  MEMB      4               0.0000000000
       465         4  POPE      H7X            -0.1373728582      -12.4732999539        7.3880529505  MEMB      4               0.0000000000
       466         4  POPE      H7Y             1.5764321830      -12.7637387341        7.2134493024  MEMB      4               0.0000000000
       467         4  POPE      C38             1.0273276175      -10.7382788908        6.5261742426  MEMB      4               0.0000000000
       468         4  POPE      H8X             2.0153114792      -10.2995001268        6.7824581591  MEMB      4               0.0000000000
       469         4  POPE      H8Y             0.2462395589       -9.9960395355        6.7969189342  MEMB      4               0.0000000000
       470         4  POPE      C39             0.9514852837      -11.0743143076        5.0286595891  MEMB      4               0.0000000000
       471         4  POPE      H9X             1.6917883007      -11.8744652583        4.8141108678  MEMB      4               0.0000000000
       472         4  POPE      H9Y             1.1124309035      -10.0660369567        4.5907162254  MEMB      4               0.0000000000
       473         4  POPE      C310           -0.3857321642      -11.6443820741        4.6561539762  MEMB      4               0.0000000000
       474         4  POPE      H10X           -1.2550013333      -10.9657334492        4.7907952060  MEMB      4               0.0000000000
       475         4  POPE      H10Y           -0.5545109280      -12.5084604864        5.3337992936  MEMB      4               0.0000000000
       476         4  POPE      C311           -0.4826771950      -12.2688104272        3.1932393532  MEMB      4               0.0000000000
       477         4  POPE      H11X           -0.2576179648      -11.4582376054        2.4675383254  MEMB      4               0.0000000000
       478         4  POPE      H11Y           -1.5220470603      -12.6148607054        3.0080877341  MEMB      4               0.0000000000
       479         4  POPE      C312            0.5348762545      -13.3934154910        2.8085078736  MEMB      4               0.0000000000
       480         4  POPE      H12X            1.5484794439      -12.9868425332        3.0125359170  MEMB      4               0.0000000000
       481         4  POPE      H12Y            0.5235207886      -13.6441075013        1.7262205753  MEMB      4               0.0000000000
       482         4  POPE      C313            0.3699295135      -14.6928879265        3.5029169293  MEMB      4               0.0000000000
       483         4  POPE      H13X            0.5716055249      -14.5861942476        4.5902358940  MEMB      4               0.0000000000
       484         4  POPE      H13Y            1.0865600600      -15.4629654861        3.1455065126  MEMB      4               0.0000000000
       485         4  POPE      C314           -1.0267956382      -15.4339199089        3.4476921429  MEMB      4               0.0000000000
       486         4  POPE      H14X           -1.7210407829      -14.6437887856        3.8055151968  MEMB      4               0.0000000000
       487         4  POPE      H14Y           -1.0062572007      -16.2317110606        4.2206266986  MEMB      4               0.0000000000
       488         4  POPE      C315           -1.4377480390      -16.0272501659        2.0892013598  MEMB      4               0.0000000000
       489         4  POPE      H15X           -2.4759330048      -16.4165864704        2.1592751603  MEMB      4               0.0000000000
       490         4  POPE      H15Y           -0.7933706269      -16.8506895829        1.7136380702  MEMB      4               0.0000000000
       491         4  POPE      C316           -1.5016846513      -14.9976372252        0.9238717611  MEMB      4               0.0000000000
       492         4  POPE      H16X           -0.6128528810      -14.9631121982        0.2582095447  MEMB      4               0.0000000000
       493         4  POPE      H16Y           -1.6452026461      -14.0305912483        1.4516458596  MEMB      4               0.0000000000
       494         4  POPE      H16Z           -2.3136429817      -15.2120430220        0.1964965245  MEMB      4               0.0000000000
       495         5  PMPE      N               6.8362579663        4.3515198369       19.2581276914  MEMB      5               0.0000000000
       496         5  PMPE      HN1             5.9842169595        3.8432270109       18.9462551818  MEMB      5               0.0000000000
       497         5  PMPE      HN2             7.2906339157        4.6765892623       18.3809319154  MEMB      5               0.0000000000
       498         5  PMPE      HN3             7.5227409582        3.7312921347       19.7331629467  MEMB      5               0.0000000000
       499         5  PMPE      C12             6.6037469247        5.4234192332       20.2419777087  MEMB      5               0.0000000000
       500         5  PMPE      H12A            7.6061803494        5.7002327728       20.6329029818  MEMB      5               0.0000000000
       501         5  PMPE      H12B            6.0690032433        5.0936739859       21.1582954812  MEMB      5               0.0000000000
       502         5  PMPE      C11             5.9590483584        6.6545842842       19.5610191815  MEMB      5               0.0000000000
       503         5  PMPE      H11A            5.8256139667        7.3306857524       20.4324565356  MEMB      5               0.0000000000
       504         5  PMPE      H11B            4.9844691524        6.4902948473       19.0535497921  MEMB      5               0.0000000000
       505         5  PMPE      P               7.1434541162        8.7483998788       18.6336923438  MEMB      5               0.0000000000
       506         5  PMPE      O13             7.7341478848        9.1169510351       19.9785681433  MEMB      5               0.0000000000
       507         5  PMPE      O14             6.0199010172        9.5462672615       18.1409541809  MEMB      5               0.0000000000
       508         5  PMPE      O11             8.1998180950        8.8606711766       17.5575561865  MEMB      5               0.0000000000
       509         5  PMPE      O12             6.8977980361        7.1457721718       18.6281045611  MEMB      5               0.0000000000
       510         5  PMPE      C1              8.3111116969        8.3019234854       16.2804599695  MEMB      5               0.0000000000
       511         5  PMPE      HA              7.9450753978        7.2530358481       16.2936197986  MEMB      5               0.0000000000
       512         5  PMPE      HB              9.3541392070        8.1113784036       15.9486357889  MEMB      5               0.0000000000
       513         5  PMPE      C2              7.6173752278        9.1001040572       15.2028575280  MEMB      5               0.0000000000
       514         5  PMPE      HS              8.0921046331       10.1045570080       15.2080739173  MEMB      5               0.0000000000
       515         5  PMPE      O21             6.1164720884        9.0391582634       15.4168017060  MEMB      5               0.0000000000
       516         5  PMPE      C21             5.4955980013       10.1349500078       14.9263211183  MEMB      5               0.0000000000
       517         5  PMPE      O22             5.9747102421       11.0511766957       14.3346496862  MEMB      5               0.0000000000
       518         5  PMPE      C22             3.9840228094        9.9373292768       15.1101798920  MEMB      5               0.0000000000
       519         5  PMPE      H2R             3.7586678567       10.0931666322       16.1868649129  MEMB      5               0.0000000000
       520         5  PMPE      H2S             3.7853783584        8.8621071400       14.9133078761  MEMB      5               0.0000000000
       521         5  PMPE      C3              7.8232517040        8.5092600213       13.7719076134  MEMB      5               0.0000000000
       522         5  PMPE      HX              8.9144806556        8.6693917565       13.6381244089  MEMB      5               0.0000000000
       523         5  PMPE      HY              7.2572757578        9.1375000350       13.0512782221  MEMB      5               0.0000000000
       524         5  PMPE      O31             7.4248873635        7.0999562334       13.7277961342  MEMB      5               0.0000000000
       525         5  PMPE      C31             6.3842651807        6.6284700608       12.9914098448  MEMB      5               0.0000000000
       526         5  PMPE      O32             5.8485986302        7.3157647111       12.1497405421  MEMB      5               0.0000000000
       527         5  PMPE      C32             6.1395922848        5.1011165826       13.3191718397  MEMB      5               0.0000000000
       528         5  PMPE      H2X             5.5938471096        4.9123222231       14.2682980861  MEMB      5               0.0000000000
       529         5  PMPE      H2Y             7.1417862867        4.6565475445       13.4988560933  MEMB      5               0.0000000000
       530         5  PMPE      C23             3.1638301762       10.7306585312       14.0793634694  MEMB      5               0.0000000000
       531         5  PMPE      H3R             3.2735286809       11.8146228395       14.2968687734  MEMB      5               0.0000000000
       532         5  PMPE      H3S             2.1245440079       10.3800165017       14.2561551110  MEMB      5               0.0000000000
       533         5  PMPE      C24             3.5515871386       10.3871102373       12.6188181708  MEMB      5               0.0000000000
       534         5  PMPE      H4R             3.5764853043        9.2779230974       12.5604674050  MEMB      5               0.0000000000
       535         5  PMPE      H4S             4.6133765618       10.6165417077       12.3858259598  MEMB      5               0.0000000000
       536         5  PMPE      C25             2.5515910450       10.7179962037       11.5686005609  MEMB      5               0.0000000000
       537         5  PMPE      H5R             2.5006377407       11.8245048913       11.6544106607  MEMB      5               0.0000000000
       538         5  PMPE      H5S             1.4943271386       10.4131327350       11.7221334853  MEMB      5               0.0000000000
       539         5  PMPE      C26             3.0173483457       10.3843653600       10.1726768083  MEMB      5               0.0000000000
       540         5  PMPE      H6R             2.7553851535        9.3115138034       10.0514925102  MEMB      5               0.0000000000
       541         5  PMPE      H6S             4.1166185462       10.4311984267       10.3267304000  MEMB      5               0.0000000000
       542         5  PMPE      C27             2.4162610034       11.2886161470        9.1128860107  MEMB      5               0.0000000000
       543         5  PMPE      H7R             2.1240078907       12.2838135951        9.5109956425  MEMB      5               0.0000000000
       544         5  PMPE      H7S             1.4890140707       10.8451910364        8.6910930070  MEMB      5               0.0000000000
       545         5  PMPE      C28             3.2979771414       11.4043322254        7.8387350802  MEMB      5               0.0000000000
       546         5  PMPE      H8R             4.1310757985       12.0955223481        8.0887836418  MEMB      5               0.0000000000
       547         5  PMPE      H8S             2.7523735359       11.7566094822        6.9373264367  MEMB      5               0.0000000000
       548         5  PMPE      C29             3.9265463954       10.0033478454        7.4454040670  MEMB      5               0.0000000000
       549         5  PMPE      H9R             3.2975748874        9.0936945148        7.5514537923  MEMB      5               0.0000000000
       550         5  PMPE      C217            5.4771213502        9.9419381639        7.5234136180  MEMB      5               0.0000000000
       551         5  PMPE      H17R            5.8096782661        8.9409442175        7.7689873113  MEMB      5               0.0000000000
       552         5  PMPE      H17S            5.8309562180       10.8733384511        7.9478939581  MEMB      5               0.0000000000
       553         5  PMPE      C210            4.8099538151        9.8793640636        6.1901042983  MEMB      5               0.0000000000
       554         5  PMPE      H10R            4.8576173848        8.8580711854        5.7553522199  MEMB      5               0.0000000000
       555         5  PMPE      C211            5.2069367867       11.1020462991        5.2879273377  MEMB      5               0.0000000000
       556         5  PMPE      H11R            6.2904688200       11.0373670997        5.0510814896  MEMB      5               0.0000000000
       557         5  PMPE      H11S            5.0846725385       12.1090061748        5.7411428318  MEMB      5               0.0000000000
       558         5  PMPE      C212            4.5017751816       11.0456092454        3.9185802275  MEMB      5               0.0000000000
       559         5  PMPE      H12R            3.4067075988       11.1309514099        4.0855076400  MEMB      5               0.0000000000
       560         5  PMPE      H12S            4.7713506571       10.0921826509        3.4159587429  MEMB      5               0.0000000000
       561         5  PMPE      C213            4.8704267609       12.1485283387        2.9710485919  MEMB      5               0.0000000000
       562         5  PMPE      H13R            5.8590390960       12.4717268942        3.3615728063  MEMB      5               0.0000000000
       563         5  PMPE      H13S            4.2152009925       13.0266230251        3.1553020757  MEMB      5               0.0000000000
       564         5  PMPE      C214            4.8197314843       11.8236668951        1.4480860492  MEMB      5               0.0000000000
       565         5  PMPE      H14R            5.6189985143       11.0719675380        1.2736115739  MEMB      5               0.0000000000
       566         5  PMPE      H14S            4.9577447911       12.7347762356        0.8274785002  MEMB      5               0.0000000000
       567         5  PMPE      C215            3.5165216550       11.1580710403        0.9238269672  MEMB      5               0.0000000000
       568         5  PMPE      H15R            3.1699976107       10.4494589726        1.7062012136  MEMB      5               0.0000000000
       569         5  PMPE      H15S            3.8697918921       10.5265499732        0.0807944330  MEMB      5               0.0000000000
       570         5  PMPE      C216            2.3935083444       12.1213168996        0.3037377915  MEMB      5               0.0000000000
       571         5  PMPE      H16R            2.0852007887       12.7702077819        1.1512099763  MEMB      5               0.0000000000
       572         5  PMPE      H16S            2.8592563931       12.6456183673       -0.5579506787  MEMB      5               0.0000000000
       573         5  PMPE      H16T            1.5721946773       11.4744049602       -0.0721212858  MEMB      5               0.0000000000
       574         5  PMPE      C33             5.4152582297        4.2587141901       12.2671307026  MEMB      5               0.0000000000
       575         5  PMPE      H3X             5.7986599187        3.2234403086       12.3917593560  MEMB      5               0.0000000000
       576         5  PMPE      H3Y             5.9265135024        4.6348532142       11.3552875346  MEMB      5               0.0000000000
       577         5  PMPE      C34             3.9045759826        4.3368269587       12.2220221376  MEMB      5               0.0000000000
       578         5  PMPE      H4X             3.6777704363        5.4060854831       12.4209351141  MEMB      5               0.0000000000
       579         5  PMPE      H4Y             3.3674259349        3.8002616687       13.0331252349  MEMB      5               0.0000000000
       580         5  PMPE      C35             3.3643590400        3.7521934760       10.8689747086  MEMB      5               0.0000000000
       581         5  PMPE      H5X             2.8008935586        2.8260009902       11.1118639880  MEMB      5               0.0000000000
       582         5  PMPE      H5Y             4.2605577047        3.3682611488       10.3362974165  MEMB      5               0.0000000000
       583         5  PMPE      C36             2.5118459791        4.6809071433        9.9553624109  MEMB      5               0.0000000000
       584         5  PMPE      H6X             1.6252096293        5.0330023819       10.5247706844  MEMB      5               0.0000000000
       585         5  PMPE      H6Y             2.1266983002        4.1851341121        9.0387423047  MEMB      5               0.0000000000
       586         5  PMPE      C37             3.1562490096        6.0152542332        9.5633914701  MEMB      5               0.0000000000
       587         5  PMPE      H7X             3.3027349885        6.6152273162       10.4869145684  MEMB      5               0.0000000000
       588         5  PMPE      H7Y             2.4500767775        6.5642155166        8.9043898529  MEMB      5               0.0000000000
       589         5  PMPE      C38             4.4091480692        6.0554512329        8.7337856029  MEMB      5               0.0000000000
       590         5  PMPE      H8X             5.2548100625        5.7588876888        9.3904647132  MEMB      5               0.0000000000
       591         5  PMPE      H8Y             4.5998852202        7.0659553430        8.3132835265  MEMB      5               0.0000000000
       592         5  PMPE      C39             4.4154587522        5.0660036916        7.6149638577  MEMB      5               0.0000000000
       593         5  PMPE      H9X             3.8507324414        5.4708092723        6.7480509346  MEMB      5               0.0000000000
       594         5  PMPE      H9Y             3.9445427842        4.0952767361        7.8800071749  MEMB      5               0.0000000000
       595         5  PMPE      C310            5.7978401232        4.6737223927        7.0144828352  MEMB      5               0.0000000000
       596         5  PMPE      H10X            5.5071463567        4.1390402866        6.0850032095  MEMB      5               0.0000000000
       597         5  PMPE      H10Y            6.3990948004        4.0431843475        7.7038562439  MEMB      5               0.0000000000
       598         5  PMPE      C311            6.6863410935        5.8254512015        6.6225467728  MEMB      5               0.0000000000
       599         5  PMPE      H11X            7.7672765360        5.5814188114        6.7022201456  MEMB      5               0.0000000000
       600         5  PMPE      H11Y            6.4537689180        6.6907752972        7.2793922482  MEMB      5               0.0000000000
       601         5  PMPE      C312            6.4554896326        6.2335679722        5.1252051483  MEMB      5               0.0000000000
       602         5  PMPE      H12X            5.3721285344        6.4156596838        4.9593956979  MEMB      5               0.0000000000
       603         5  PMPE      H12Y            6.6825084075        5.4157506887        4.4082961957  MEMB      5               0.0000000000
       604         5  PMPE      C313            7.2695001892        7.4476912885        4.6178329274  MEMB      5               0.0000000000
       605         5  PMPE      H13X            8.3394121182        7.1483787836        4.6224847443  MEMB      5               0.0000000000
       606         5  PMPE      H13Y            6.9751643705        8.2942475011        5.2743621694  MEMB      5               0.0000000000
       607         5  PMPE      C314            6.7575325277        7.7203374155        3.1974586441  MEMB      5               0.0000000000
       608         5  PMPE      H14X            5.7072983368        8.0827032366        3.1929752925  MEMB      5               0.0000000000
       609         5  PMPE      H14Y            6.5509393208        6.7430929693        2.7110083390  MEMB      5               0.0000000000
       610         5  PMPE      C315            7.8210655369        8.4958928833        2.4112178624  MEMB      5               0.0000000000
       611         5  PMPE      H15X            8.8650104741        8.2417776144        2.6939284727  MEMB      5               0.0000000000
       612         5  PMPE      H15Y            7.8935913849        9.5188785173        2.8384891077  MEMB      5               0.0000000000
       613         5  PMPE      C316            7.6319276359        8.5997027871        0.9274922362  MEMB      5               0.0000000000
       614         5  PMPE      H16X            7.1691450489        7.6837753649        0.5017806757  MEMB      5               0.0000000000
       615         5  PMPE      H16Y            8.5582243760        8.6883319794        0.3205004916  MEMB      5               0.0000000000
       616         5  PMPE      H16Z            7.0095900082        9.4940477671        0.7103203629  MEMB      5               0.0000000000
       617         6  POPE      N               8.0222535398       -8.6650073623       21.6242834335  MEMB      6               0.0000000000
       618         6  POPE      HN1             7.1976792655       -9.0733429936       22.1089888984  MEMB      6               0.0000000000
       619         6  POPE      HN2             8.2761079911       -9.3071608241       20.8465966345  MEMB      6               0.0000000000
       620         6  POPE      HN3             8.8605557216       -8.6861817763       22.2394267597  MEMB      6               0.0000000000
       621         6  POPE      C12             7.7683829610       -7.3205745359       21.0635355667  MEMB      6               0.0000000000
       622         6  POPE      H12A            7.7011649743       -6.5811355733       21.8899935823  MEMB      6               0.0000000000
       623         6  POPE      H12B            6.8938696536       -7.3466089782       20.3787951789  MEMB      6               0.0000000000
       624         6  POPE      C11             9.1102028757       -6.8179698986       20.3251341855  MEMB      6               0.0000000000
       625         6  POPE      H11A            9.9977237179       -6.9744245454       20.9748647695  MEMB      6               0.0000000000
       626         6  POPE      H11B            9.0112711113       -5.7378628166       20.0845056872  MEMB      6               0.0000000000
       627         6  POPE      P               8.9026162618       -7.1723816724       17.7481234209  MEMB      6               0.0000000000
       628         6  POPE      O13             7.7931368064       -6.2128285742       17.8635618504  MEMB      6               0.0000000000
       629         6  POPE      O14             8.6208913532       -8.4098734734       17.0440265949  MEMB      6               0.0000000000
       630         6  POPE      O11            10.1919743843       -6.4437710265       17.1875989693  MEMB      6               0.0000000000
       631         6  POPE      O12             9.4072330955       -7.6429056187       19.1437359780  MEMB      6               0.0000000000
       632         6  POPE      C1             11.4847745475       -6.8794272859       17.4117726244  MEMB      6               0.0000000000
       633         6  POPE      HA             11.6267769143       -7.8946812965       17.8400431454  MEMB      6               0.0000000000
       634         6  POPE      HB             11.8794413253       -6.2005143881       18.1976709824  MEMB      6               0.0000000000
       635         6  POPE      C2             12.5045485604       -6.6879601404       16.1709353847  MEMB      6               0.0000000000
       636         6  POPE      HS             13.4992883234       -6.6532588446       16.6645035144  MEMB      6               0.0000000000
       637         6  POPE      O21            12.2349094537       -5.4913963655       15.4039551402  MEMB      6               0.0000000000
       638         6  POPE      C21            12.2971712711       -4.2875263922       15.9619817862  MEMB      6               0.0000000000
       639         6  POPE      O22            12.4873773485       -3.9806195462       17.1361237426  MEMB      6               0.0000000000
       640         6  POPE      C22            12.1870696616       -3.2980617123       14.7922744434  MEMB      6               0.0000000000
       641         6  POPE      H2R            12.4757072275       -3.8216424497       13.8558597441  MEMB      6               0.0000000000
       642         6  POPE      H2S            12.8995793181       -2.4670209157       14.9820708472  MEMB      6               0.0000000000
       643         6  POPE      C3             12.4122965325       -7.9092156799       15.2791219859  MEMB      6               0.0000000000
       644         6  POPE      HX             12.6376493991       -8.7816638563       15.9290226697  MEMB      6               0.0000000000
       645         6  POPE      HY             13.2508507739       -7.8953238330       14.5504553865  MEMB      6               0.0000000000
       646         6  POPE      O31            11.1261983473       -7.9970222839       14.7439895330  MEMB      6               0.0000000000
       647         6  POPE      C31            10.8831265422       -7.5472523626       13.5858518539  MEMB      6               0.0000000000
       648         6  POPE      O32            11.6395628692       -6.9903119755       12.7892519203  MEMB      6               0.0000000000
       649         6  POPE      C32             9.3959050990       -7.8184290909       13.3929183534  MEMB      6               0.0000000000
       650         6  POPE      H2X             9.1723349966       -7.4497194705       12.3690089148  MEMB      6               0.0000000000
       651         6  POPE      H2Y             8.7564086980       -7.2230876550       14.0791644108  MEMB      6               0.0000000000
       652         6  POPE      C23            10.7579004721       -2.8541675441       14.6233988071  MEMB      6               0.0000000000
       653         6  POPE      H3R            10.7910014078       -2.0957675706       13.8121932926  MEMB      6               0.0000000000
       654         6  POPE      H3S            10.2346241161       -2.3969677612       15.4902732191  MEMB      6               0.0000000000
       655         6  POPE      C24             9.9281614083       -4.0155290728       14.0419065463  MEMB      6               0.0000000000
       656         6  POPE      H4R             9.9494072273       -4.9174290900       14.6903246106  MEMB      6               0.0000000000
       657         6  POPE      H4S            10.4363541393       -4.2759841240       13.0888984807  MEMB      6               0.0000000000
       658         6  POPE      C25             8.4170359676       -3.6467434397       13.9793738258  MEMB      6               0.0000000000
       659         6  POPE      H5R             8.3265298620       -2.5510458877       13.8194452383  MEMB      6               0.0000000000
       660         6  POPE      H5S             7.8517314695       -3.8533937344       14.9132085706  MEMB      6               0.0000000000
       661         6  POPE      C26             7.6560540009       -4.3534423886       12.8311904237  MEMB      6               0.0000000000
       662         6  POPE      H6R             7.9932322955       -5.4042971739       12.7033780464  MEMB      6               0.0000000000
       663         6  POPE      H6S             7.9372907184       -3.8647367052       11.8739060103  MEMB      6               0.0000000000
       664         6  POPE      C27             6.1563453283       -4.2057600053       13.0073302825  MEMB      6               0.0000000000
       665         6  POPE      H7R             5.7276365276       -3.2012585170       13.2110615559  MEMB      6               0.0000000000
       666         6  POPE      H7S             5.9599971465       -4.7440526795       13.9591755803  MEMB      6               0.0000000000
       667         6  POPE      C28             5.3892545189       -4.7667276008       11.8000397493  MEMB      6               0.0000000000
       668         6  POPE      H8R             5.8346924192       -4.1595241504       10.9832103129  MEMB      6               0.0000000000
       669         6  POPE      H8S             4.3624976769       -4.3963207138       12.0071400305  MEMB      6               0.0000000000
       670         6  POPE      C29             5.2200481679       -6.2489566916       11.4051913385  MEMB      6               0.0000000000
       671         6  POPE      H91             4.8207266875       -6.8791848673       12.2134946569  MEMB      6               0.0000000000
       672         6  POPE      C210            5.3600825149       -6.7731677196       10.1775073484  MEMB      6               0.0000000000
       673         6  POPE      H101            5.1285591053       -7.8444272283       10.0836998221  MEMB      6               0.0000000000
       674         6  POPE      C211            5.7413247963       -6.1354095388        8.9115819253  MEMB      6               0.0000000000
       675         6  POPE      H11R            5.4852079818       -5.0595331150        8.8056796576  MEMB      6               0.0000000000
       676         6  POPE      H11S            5.1731633572       -6.6331806730        8.0968810708  MEMB      6               0.0000000000
       677         6  POPE      C212            7.2005670350       -6.3628708574        8.5712063880  MEMB      6               0.0000000000
       678         6  POPE      H12R            7.3915297816       -7.4386555445        8.7725556529  MEMB      6               0.0000000000
       679         6  POPE      H12S            7.8766756490       -5.8449725994        9.2846345230  MEMB      6               0.0000000000
       680         6  POPE      C213            7.5535787643       -5.9976440702        7.1235090580  MEMB      6               0.0000000000
       681         6  POPE      H13R            8.5957357783       -6.2970469225        6.8814605050  MEMB      6               0.0000000000
       682         6  POPE      H13S            7.4748890703       -4.8977735270        6.9878115896  MEMB      6               0.0000000000
       683         6  POPE      C214            6.7510061067       -6.7091573332        5.9969774342  MEMB      6               0.0000000000
       684         6  POPE      H14R            5.6498275131       -6.5870970536        6.0796090288  MEMB      6               0.0000000000
       685         6  POPE      H14S            7.0180495449       -7.7866726262        5.9526014618  MEMB      6               0.0000000000
       686         6  POPE      C215            7.2241392490       -6.0845990793        4.7076686455  MEMB      6               0.0000000000
       687         6  POPE      H15R            8.3315345601       -6.0247634254        4.7741237410  MEMB      6               0.0000000000
       688         6  POPE      H15S            6.8187305116       -5.0876242855        4.4319775126  MEMB      6               0.0000000000
       689         6  POPE      C216            7.0371150899       -7.0519707352        3.4878603473  MEMB      6               0.0000000000
       690         6  POPE      H16R            5.9294616037       -7.1061979696        3.4208977159  MEMB      6               0.0000000000
       691         6  POPE      H16S            7.5285919618       -8.0305433609        3.6753889958  MEMB      6               0.0000000000
       692         6  POPE      C217            7.5998618044       -6.5212347223        2.1178149148  MEMB      6               0.0000000000
       693         6  POPE      H17R            8.7067189822       -6.5164627884        2.0220767427  MEMB      6               0.0000000000
       694         6  POPE      H17S            7.3717115468       -5.4369652809        2.1992295798  MEMB      6               0.0000000000
       695         6  POPE      C218            6.9800681554       -7.0607851895        0.8305650503  MEMB      6               0.0000000000
       696         6  POPE      H18R            7.3059249861       -8.1105864639        0.6691472323  MEMB      6               0.0000000000
       697         6  POPE      H18S            7.1894034851       -6.3833693068       -0.0247747485  MEMB      6               0.0000000000
       698         6  POPE      H18T            5.8705745745       -7.0179546377        0.7916947040  MEMB      6               0.0000000000
       699         6  POPE      C33             8.9830547980       -9.3421144773       13.3279517468  MEMB      6               0.0000000000
       700         6  POPE      H3X             9.0849710779       -9.9140996482       14.2749295829  MEMB      6               0.0000000000
       701         6  POPE      H3Y             9.6424920360       -9.8471858785       12.5901402261  MEMB      6               0.0000000000
       702         6  POPE      C34             7.5383678708       -9.2877100599       12.9377186676  MEMB      6               0.0000000000
       703         6  POPE      H4X             7.4696940614       -8.6388569254       12.0384996612  MEMB      6               0.0000000000
       704         6  POPE      H4Y             6.9893240997       -8.7126448652       13.7137157972  MEMB      6               0.0000000000
       705         6  POPE      C35             6.8103213232      -10.6122335727       12.7724072262  MEMB      6               0.0000000000
       706         6  POPE      H5X             5.7848622397      -10.3657877715       12.4230945726  MEMB      6               0.0000000000
       707         6  POPE      H5Y             6.8189540524      -11.2662767108       13.6704461856  MEMB      6               0.0000000000
       708         6  POPE      C36             7.2292211854      -11.3574303729       11.5172944458  MEMB      6               0.0000000000
       709         6  POPE      H6X             6.5951758032      -12.2628680790       11.4055340252  MEMB      6               0.0000000000
       710         6  POPE      H6Y             8.2972373155      -11.6474486115       11.6150268057  MEMB      6               0.0000000000
       711         6  POPE      C37             6.9323444212      -10.6380132624       10.1766262793  MEMB      6               0.0000000000
       712         6  POPE      H7X             7.4633242266       -9.6685862482       10.2888428943  MEMB      6               0.0000000000
       713         6  POPE      H7Y             5.8432769816      -10.4884500396       10.0157401068  MEMB      6               0.0000000000
       714         6  POPE      C38             7.5213669630      -11.3464166607        8.9611468906  MEMB      6               0.0000000000
       715         6  POPE      H8X             7.1781600246      -10.8573186542        8.0244963741  MEMB      6               0.0000000000
       716         6  POPE      H8Y             7.0474508384      -12.3464698406        8.8630748496  MEMB      6               0.0000000000
       717         6  POPE      C39             9.1007500173      -11.4440389919        9.0246037747  MEMB      6               0.0000000000
       718         6  POPE      H9X             9.3542374506      -11.7826362795        7.9972691042  MEMB      6               0.0000000000
       719         6  POPE      H9Y             9.5657878471      -12.1874818646        9.7067723532  MEMB      6               0.0000000000
       720         6  POPE      C310            9.7916339246      -10.0911780445        8.9989219608  MEMB      6               0.0000000000
       721         6  POPE      H10X            9.9264319247       -9.8376575560       10.0721778504  MEMB      6               0.0000000000
       722         6  POPE      H10Y            9.1711848125       -9.3952635117        8.3947148575  MEMB      6               0.0000000000
       723         6  POPE      C311           11.1336627787      -10.1261454505        8.3861145298  MEMB      6               0.0000000000
       724         6  POPE      H11X           11.8203203120      -10.8720632907        8.8404586546  MEMB      6               0.0000000000
       725         6  POPE      H11Y           11.5256077231       -9.1407267397        8.7172491861  MEMB      6               0.0000000000
       726         6  POPE      C312           11.1138295641      -10.1096241092        6.8221525679  MEMB      6               0.0000000000
       727         6  POPE      H12X           10.5957280860      -10.9973689463        6.4004884207  MEMB      6               0.0000000000
       728         6  POPE      H12Y           12.1010975518      -10.1867829293        6.3184966392  MEMB      6               0.0000000000
       729         6  POPE      C313           10.4545521940       -8.8808679628        6.2784988482  MEMB      6               0.0000000000
       730         6  POPE      H13X           10.8881029153       -8.0508453433        6.8763429932  MEMB      6               0.0000000000
       731         6  POPE      H13Y            9.3620754552       -8.9140395568        6.4777863350  MEMB      6               0.0000000000
       732         6  POPE      C314           10.5510563106       -8.7525748289        4.7701150780  MEMB      6               0.0000000000
       733         6  POPE      H14X           11.5365611671       -8.2757851598        4.5809786373  MEMB      6               0.0000000000
       734         6  POPE      H14Y            9.8230396927       -8.0175155480        4.3651450717  MEMB      6               0.0000000000
       735         6  POPE      C315           10.4539614024      -10.0629595439        3.9722184749  MEMB      6               0.0000000000
       736         6  POPE      H15X            9.4368101191      -10.4428764908        4.2075638106  MEMB      6               0.0000000000
       737         6  POPE      H15Y           11.2582219507      -10.7839497796        4.2323323123  MEMB      6               0.0000000000
       738         6  POPE      C316           10.5300279319       -9.7094507310        2.5221521759  MEMB      6               0.0000000000
       739         6  POPE      H16X           11.3767028709       -9.0404540673        2.2577562366  MEMB      6               0.0000000000
       740         6  POPE      H16Y            9.5620983728       -9.2785313913        2.1878741558  MEMB      6               0.0000000000
       741         6  POPE      H16Z           10.5964835983      -10.6181954234        1.8864744589  MEMB      6               0.0000000000
       742         7  PMPE      N              -9.9654956470       -8.5877747418       17.3534679303  MEMB      7               0.0000000000
       743         7  PMPE      HN1           -10.8915213260       -8.6758100228       16.8883590791  MEMB      7               0.0000000000
       744         7  PMPE      HN2            -9.0957111420       -8.6975915286       16.7939905211  MEMB      7               0.0000000000
       745         7  PMPE      HN3            -9.9463956397       -9.3123727960       18.0992513054  MEMB      7               0.0000000000
       746         7  PMPE      C12           -10.1316462717       -7.2111670388       17.9506772367  MEMB      7               0.0000000000
       747         7  PMPE      H12A          -10.9846692419       -7.2234073991       18.6623813758  MEMB      7               0.0000000000
       748         7  PMPE      H12B          -10.5231610192       -6.4149866240       17.2819964923  MEMB      7               0.0000000000
       749         7  PMPE      C11            -8.8824069641       -6.7917257838       18.7128457893  MEMB      7               0.0000000000
       750         7  PMPE      H11A           -8.9144234823       -5.8165758800       19.2442386220  MEMB      7               0.0000000000
       751         7  PMPE      H11B           -8.0553601658       -6.6630815502       17.9822533873  MEMB      7               0.0000000000
       752         7  PMPE      P              -7.2529087999       -8.6620512168       19.6596498244  MEMB      7               0.0000000000
       753         7  PMPE      O13            -7.3338713375       -9.8712439296       20.5703683530  MEMB      7               0.0000000000
       754         7  PMPE      O14            -6.1028126427       -7.7930686990       19.8500237043  MEMB      7               0.0000000000
       755         7  PMPE      O11            -7.2986192530       -9.2638398210       18.2004788831  MEMB      7               0.0000000000
       756         7  PMPE      O12            -8.5596347652       -7.7891149264       19.7024882792  MEMB      7               0.0000000000
       757         7  PMPE      C1             -6.9373255032      -10.5485669890       17.8811040881  MEMB      7               0.0000000000
       758         7  PMPE      HA             -7.7819554242      -11.2701264494       17.8976381006  MEMB      7               0.0000000000
       759         7  PMPE      HB             -6.0624718824      -10.8784469309       18.4812137182  MEMB      7               0.0000000000
       760         7  PMPE      C2             -6.5075517948      -10.6549822817       16.4061804644  MEMB      7               0.0000000000
       761         7  PMPE      HS             -5.5364051057      -10.1205956222       16.3311723878  MEMB      7               0.0000000000
       762         7  PMPE      O21            -7.4182573186      -10.0679702515       15.5167170444  MEMB      7               0.0000000000
       763         7  PMPE      C21            -7.3136095185       -8.7186297906       15.3326715319  MEMB      7               0.0000000000
       764         7  PMPE      O22            -6.5284508333       -8.0231462869       15.8908259955  MEMB      7               0.0000000000
       765         7  PMPE      C22            -8.3983330104       -8.3750830710       14.3947894654  MEMB      7               0.0000000000
       766         7  PMPE      H2R            -9.3026259036       -7.9359502584       14.8677985531  MEMB      7               0.0000000000
       767         7  PMPE      H2S            -8.6516343296       -9.2169879843       13.7155578499  MEMB      7               0.0000000000
       768         7  PMPE      C3             -6.4250585079      -12.1806991204       16.0175695196  MEMB      7               0.0000000000
       769         7  PMPE      HX             -7.3790997058      -12.7402705970       16.1224795057  MEMB      7               0.0000000000
       770         7  PMPE      HY             -5.7220273245      -12.6901991526       16.7107343510  MEMB      7               0.0000000000
       771         7  PMPE      O31            -5.9180604774      -12.2877693102       14.6287316500  MEMB      7               0.0000000000
       772         7  PMPE      C31            -6.7276548286      -12.2325700770       13.6857438179  MEMB      7               0.0000000000
       773         7  PMPE      O32            -7.9602463052      -12.2283525630       13.7497270014  MEMB      7               0.0000000000
       774         7  PMPE      C32            -5.8667669769      -12.1847979907       12.4328350792  MEMB      7               0.0000000000
       775         7  PMPE      H2X            -5.9633153525      -13.1933601728       11.9769818224  MEMB      7               0.0000000000
       776         7  PMPE      H2Y            -4.8021350156      -11.9327102138       12.6260489211  MEMB      7               0.0000000000
       777         7  PMPE      C23            -7.9288914664       -7.2947875198       13.4160799828  MEMB      7               0.0000000000
       778         7  PMPE      H3R            -7.0788719295       -7.8328030737       12.9445645171  MEMB      7               0.0000000000
       779         7  PMPE      H3S            -7.5177542466       -6.4687592659       14.0349213577  MEMB      7               0.0000000000
       780         7  PMPE      C24            -8.9948745859       -6.8903572611       12.3558181904  MEMB      7               0.0000000000
       781         7  PMPE      H4R           -10.0340334792       -6.7354137354       12.7170139721  MEMB      7               0.0000000000
       782         7  PMPE      H4S            -8.8805164791       -7.7111962355       11.6159086676  MEMB      7               0.0000000000
       783         7  PMPE      C25            -8.7339233630       -5.5858049326       11.5829395825  MEMB      7               0.0000000000
       784         7  PMPE      H5R            -8.6109545862       -4.8787922443       12.4310742638  MEMB      7               0.0000000000
       785         7  PMPE      H5S            -9.5677886569       -5.1357354571       11.0029160143  MEMB      7               0.0000000000
       786         7  PMPE      C26            -7.5737405228       -5.8237134258       10.6442053591  MEMB      7               0.0000000000
       787         7  PMPE      H6R            -7.6916286601       -6.8492662639       10.2335176028  MEMB      7               0.0000000000
       788         7  PMPE      H6S            -6.6538241167       -5.9342872865       11.2572699760  MEMB      7               0.0000000000
       789         7  PMPE      C27            -7.3309057162       -4.7860564387        9.5603418443  MEMB      7               0.0000000000
       790         7  PMPE      H7R            -6.3807426948       -5.0266233369        9.0372370611  MEMB      7               0.0000000000
       791         7  PMPE      H7S            -7.1466186065       -3.7979956468       10.0337276935  MEMB      7               0.0000000000
       792         7  PMPE      C28            -8.4923786489       -4.5701906693        8.5549193396  MEMB      7               0.0000000000
       793         7  PMPE      H8R            -8.0643157838       -3.9704500360        7.7234184539  MEMB      7               0.0000000000
       794         7  PMPE      H8S            -9.3266984238       -4.0094351307        9.0279787492  MEMB      7               0.0000000000
       795         7  PMPE      C29            -8.8408643225       -5.9651209793        7.9753909664  MEMB      7               0.0000000000
       796         7  PMPE      H9R            -9.2845281426       -6.7935321086        8.5680275708  MEMB      7               0.0000000000
       797         7  PMPE      C217           -7.9788083866       -6.4039713931        6.8512141232  MEMB      7               0.0000000000
       798         7  PMPE      H17R           -7.8129405849       -7.4741916517        6.8488658326  MEMB      7               0.0000000000
       799         7  PMPE      H17S           -7.3378441966       -5.6499952850        6.4112439483  MEMB      7               0.0000000000
       800         7  PMPE      C210           -9.4746484297       -6.0699149396        6.6187935137  MEMB      7               0.0000000000
       801         7  PMPE      H10R          -10.1934357343       -6.9028994924        6.4645111737  MEMB      7               0.0000000000
       802         7  PMPE      C211           -9.7496004757       -4.7731327625        5.8326668451  MEMB      7               0.0000000000
       803         7  PMPE      H11R           -8.8595025394       -4.1088796719        5.8612073763  MEMB      7               0.0000000000
       804         7  PMPE      H11S          -10.5908712669       -4.4324987175        6.4734108967  MEMB      7               0.0000000000
       805         7  PMPE      C212          -10.1068632010       -5.0173668004        4.3585257805  MEMB      7               0.0000000000
       806         7  PMPE      H12R           -9.8390007772       -4.0083249826        3.9785193618  MEMB      7               0.0000000000
       807         7  PMPE      H12S          -11.1639583340       -5.3522545644        4.2898180767  MEMB      7               0.0000000000
       808         7  PMPE      C213           -9.1028150609       -5.9289573302        3.6738130936  MEMB      7               0.0000000000
       809         7  PMPE      H13R           -8.9256638295       -6.8931564348        4.1965542409  MEMB      7               0.0000000000
       810         7  PMPE      H13S           -8.0849139661       -5.4899536489        3.5998269054  MEMB      7               0.0000000000
       811         7  PMPE      C214           -9.3093337430       -6.1134947382        2.1461907878  MEMB      7               0.0000000000
       812         7  PMPE      H14R          -10.3909784928       -6.2377549102        1.9250025732  MEMB      7               0.0000000000
       813         7  PMPE      H14S           -8.7925613287       -7.0397205189        1.8154742008  MEMB      7               0.0000000000
       814         7  PMPE      C215           -8.8692425128       -4.8613215253        1.4424769523  MEMB      7               0.0000000000
       815         7  PMPE      H15R           -7.7992761349       -4.8162740447        1.7382177431  MEMB      7               0.0000000000
       816         7  PMPE      H15S           -9.4595464543       -3.9570275447        1.7034633563  MEMB      7               0.0000000000
       817         7  PMPE      C216           -9.1124148187       -4.9889019669       -0.0757892013  MEMB      7               0.0000000000
       818         7  PMPE      H16R           -8.7601096842       -4.0714895852       -0.5940129020  MEMB      7               0.0000000000
       819         7  PMPE      H16S           -8.7059680660       -5.9676630627       -0.4091797449  MEMB      7               0.0000000000
       820         7  PMPE      H16T          -10.2145610668       -4.9179713819       -0.1964657209  MEMB      7               0.0000000000
       821         7  PMPE      C33            -6.4161735737      -11.1952774362       11.3584093711  MEMB      7               0.0000000000
       822         7  PMPE      H3X            -6.5188553766      -10.1832083818       11.8050567321  MEMB      7               0.0000000000
       823         7  PMPE      H3Y            -7.4819888603      -11.4869097163       11.2430433247  MEMB      7               0.0000000000
       824         7  PMPE      C34            -5.5400687222      -11.3739981001       10.1817341787  MEMB      7               0.0000000000
       825         7  PMPE      H4X            -5.8048905129      -12.3508546697        9.7235399112  MEMB      7               0.0000000000
       826         7  PMPE      H4Y            -4.5251090504      -11.4991218290       10.6159251933  MEMB      7               0.0000000000
       827         7  PMPE      C35            -5.4930097805      -10.1785273049        9.2023570519  MEMB      7               0.0000000000
       828         7  PMPE      H5X            -4.6603241166      -10.2315841480        8.4687759351  MEMB      7               0.0000000000
       829         7  PMPE      H5Y            -5.3550200106       -9.3104994781        9.8819209871  MEMB      7               0.0000000000
       830         7  PMPE      C36            -6.7423295610       -9.9982459050        8.3386648076  MEMB      7               0.0000000000
       831         7  PMPE      H6X            -6.8125493016       -9.0187525739        7.8190656996  MEMB      7               0.0000000000
       832         7  PMPE      H6Y            -7.6411262287      -10.2044383152        8.9583178063  MEMB      7               0.0000000000
       833         7  PMPE      C37            -6.8405800281      -11.0617917131        7.2238433357  MEMB      7               0.0000000000
       834         7  PMPE      H7X            -6.9638926072      -12.0840417651        7.6411195765  MEMB      7               0.0000000000
       835         7  PMPE      H7Y            -5.8428116224      -10.8963436027        6.7640544217  MEMB      7               0.0000000000
       836         7  PMPE      C38            -7.8915970972      -10.8017036399        6.1772034542  MEMB      7               0.0000000000
       837         7  PMPE      H8X            -7.9117174175       -9.7174035819        5.9359366085  MEMB      7               0.0000000000
       838         7  PMPE      H8Y            -8.8105925250      -11.0829576740        6.7345757503  MEMB      7               0.0000000000
       839         7  PMPE      C39            -7.7459714762      -11.5543867348        4.8022127307  MEMB      7               0.0000000000
       840         7  PMPE      H9X            -7.4386608221      -12.5983764679        5.0257435931  MEMB      7               0.0000000000
       841         7  PMPE      H9Y            -6.9514802450      -11.0829470702        4.1850829007  MEMB      7               0.0000000000
       842         7  PMPE      C310           -9.0176423839      -11.7567493692        3.9131199970  MEMB      7               0.0000000000
       843         7  PMPE      H10X           -9.8597601294      -12.0430891638        4.5788291573  MEMB      7               0.0000000000
       844         7  PMPE      H10Y           -8.8003468546      -12.5835441473        3.2035324923  MEMB      7               0.0000000000
       845         7  PMPE      C311           -9.1923936462      -10.5564661391        3.0625946871  MEMB      7               0.0000000000
       846         7  PMPE      H11X           -8.2070595087      -10.5616968956        2.5493604894  MEMB      7               0.0000000000
       847         7  PMPE      H11Y           -9.2598714892       -9.6139311275        3.6468863433  MEMB      7               0.0000000000
       848         7  PMPE      C312          -10.3013877548      -10.5436079429        2.0514202515  MEMB      7               0.0000000000
       849         7  PMPE      H12X          -10.3288176021       -9.5129273632        1.6375778282  MEMB      7               0.0000000000
       850         7  PMPE      H12Y          -11.1648483279      -10.7610480286        2.7158580258  MEMB      7               0.0000000000
       851         7  PMPE      C313          -10.1572982007      -11.5298810577        0.8853927798  MEMB      7               0.0000000000
       852         7  PMPE      H13X          -10.0045232357      -12.5822071331        1.2072475010  MEMB      7               0.0000000000
       853         7  PMPE      H13Y           -9.2259626219      -11.1916151658        0.3828875149  MEMB      7               0.0000000000
       854         7  PMPE      C314          -11.2582524885      -11.4498315784       -0.1275156871  MEMB      7               0.0000000000
       855         7  PMPE      H14X          -11.6545738576      -10.4144052568       -0.1992282458  MEMB      7               0.0000000000
       856         7  PMPE      H14Y          -12.0943163690      -12.0818985626        0.2410072173  MEMB      7               0.0000000000
       857         7  PMPE      C315          -10.9562257585      -12.0366842893       -1.5534140697  MEMB      7               0.0000000000
       858         7  PMPE      H15X          -10.3844736047      -12.9887498533       -1.5849115772  MEMB      7               0.0000000000
       859         7  PMPE      H15Y          -10.2323434745      -11.2394176405       -1.8266918521  MEMB      7               0.0000000000
       860         7  PMPE      C316          -12.1325220201      -11.9858839833       -2.5106719813  MEMB      7               0.0000000000
       861         7  PMPE      H16X          -11.8105095206      -12.0695461312       -3.5706875637  MEMB      7               0.0000000000
       862         7  PMPE      H16Y          -12.7556238131      -11.0663838055       -2.5348476023  MEMB      7               0.0000000000
       863         7  PMPE      H16Z          -12.7254218104      -12.8720881090       -2.1985296190  MEMB      7               0.0000000000
       864         8  PMPE      N             -12.3353428645        4.9495054228       18.5709228846  MEMB      8               0.0000000000
       865         8  PMPE      HN1           -12.7590759715        4.6832838636       17.6592341861  MEMB      8               0.0000000000
       866         8  PMPE      HN2           -12.7816130193        4.5749428078       19.4324017258  MEMB      8               0.0000000000
       867         8  PMPE      HN3           -12.4647230223        5.9732007117       18.4408901242  MEMB      8               0.0000000000
       868         8  PMPE      C12           -10.8596144319        4.5742789724       18.5550725361  MEMB      8               0.0000000000
       869         8  PMPE      H12A          -10.6667148658        4.7330672567       17.4725306109  MEMB      8               0.0000000000
       870         8  PMPE      H12B          -10.7522200448        3.5305060212       18.9202104305  MEMB      8               0.0000000000
       871         8  PMPE      C11           -10.0724446081        5.5974186785       19.3782117751  MEMB      8               0.0000000000
       872         8  PMPE      H11A           -9.1565299379        5.0987148681       19.7612466887  MEMB      8               0.0000000000
       873         8  PMPE      H11B          -10.6901134728        5.8673920733       20.2613428793  MEMB      8               0.0000000000
       874         8  PMPE      P              -8.6729181196        7.7620269923       19.1971106198  MEMB      8               0.0000000000
       875         8  PMPE      O13            -7.3470149249        7.2842741324       18.8060822740  MEMB      8               0.0000000000
       876         8  PMPE      O14            -8.9494707463        8.0671629686       20.6297229063  MEMB      8               0.0000000000
       877         8  PMPE      O11            -9.0271577254        8.9722809532       18.3284150865  MEMB      8               0.0000000000
       878         8  PMPE      O12            -9.7800786611        6.7665963777       18.5344619153  MEMB      8               0.0000000000
       879         8  PMPE      C1            -10.3591146623        9.2280837742       18.0715683282  MEMB      8               0.0000000000
       880         8  PMPE      HA            -10.4532483056       10.3349229652       18.0524211720  MEMB      8               0.0000000000
       881         8  PMPE      HB            -11.1586747723        8.9297614817       18.7829250442  MEMB      8               0.0000000000
       882         8  PMPE      C2            -10.8547814093        8.7275065342       16.6591743689  MEMB      8               0.0000000000
       883         8  PMPE      HS            -11.0443031615        7.6328060429       16.6649533002  MEMB      8               0.0000000000
       884         8  PMPE      O21            -9.8268560631        9.0251599400       15.7591990398  MEMB      8               0.0000000000
       885         8  PMPE      C21            -9.2453494322        8.0266579676       15.0570038620  MEMB      8               0.0000000000
       886         8  PMPE      O22            -9.3691327421        6.8520461974       15.2200218369  MEMB      8               0.0000000000
       887         8  PMPE      C22            -8.3616594093        8.6858322887       14.0744781767  MEMB      8               0.0000000000
       888         8  PMPE      H2R            -7.8890956272        9.6139868588       14.4611741779  MEMB      8               0.0000000000
       889         8  PMPE      H2S            -8.9033080260        8.7497869339       13.1065692461  MEMB      8               0.0000000000
       890         8  PMPE      C3            -12.1799801203        9.4226816891       16.1699112305  MEMB      8               0.0000000000
       891         8  PMPE      HX            -12.0253315937       10.5193245543       16.2581121349  MEMB      8               0.0000000000
       892         8  PMPE      HY            -13.0441855047        9.2127740101       16.8358005378  MEMB      8               0.0000000000
       893         8  PMPE      O31           -12.4738459387        9.1916959251       14.7393721844  MEMB      8               0.0000000000
       894         8  PMPE      C31           -12.6148918185        7.9198437710       14.2135731407  MEMB      8               0.0000000000
       895         8  PMPE      O32           -12.3760142144        6.9330635829       14.8189847373  MEMB      8               0.0000000000
       896         8  PMPE      C32           -12.8739697163        7.8461256118       12.6686748204  MEMB      8               0.0000000000
       897         8  PMPE      H2X           -13.9703258552        7.8872050801       12.4936419474  MEMB      8               0.0000000000
       898         8  PMPE      H2Y           -12.3699930723        6.9828013475       12.1839070155  MEMB      8               0.0000000000
       899         8  PMPE      C23            -7.1802864812        7.7802074503       13.7263753585  MEMB      8               0.0000000000
       900         8  PMPE      H3R            -7.4748984915        6.7213350907       13.5641590919  MEMB      8               0.0000000000
       901         8  PMPE      H3S            -6.5634734501        7.8213144756       14.6495071888  MEMB      8               0.0000000000
       902         8  PMPE      C24            -6.1739111578        8.2461833009       12.6705430003  MEMB      8               0.0000000000
       903         8  PMPE      H4R            -5.2783250549        7.5919927763       12.6051127222  MEMB      8               0.0000000000
       904         8  PMPE      H4S            -5.8633787624        9.2833615014       12.9198461689  MEMB      8               0.0000000000
       905         8  PMPE      C25            -6.6552773450        8.3287606640       11.2516130480  MEMB      8               0.0000000000
       906         8  PMPE      H5R            -5.7955855471        8.6342365672       10.6176293772  MEMB      8               0.0000000000
       907         8  PMPE      H5S            -7.5031219403        9.0463563401       11.2284403593  MEMB      8               0.0000000000
       908         8  PMPE      C26            -7.1302476045        6.9764457238       10.7353773523  MEMB      8               0.0000000000
       909         8  PMPE      H6R            -7.8070737277        6.5727460740       11.5184833415  MEMB      8               0.0000000000
       910         8  PMPE      H6S            -6.2696214170        6.2752618324       10.6908244099  MEMB      8               0.0000000000
       911         8  PMPE      C27            -7.9079581549        6.9644491977        9.4149653016  MEMB      8               0.0000000000
       912         8  PMPE      H7R            -8.9293474542        7.3739676848        9.5678690571  MEMB      8               0.0000000000
       913         8  PMPE      H7S            -8.1068098728        5.9184555411        9.0976700475  MEMB      8               0.0000000000
       914         8  PMPE      C28            -7.2131266021        7.5420573072        8.1841932846  MEMB      8               0.0000000000
       915         8  PMPE      H8R            -6.6688619672        8.4970180978        8.3458934033  MEMB      8               0.0000000000
       916         8  PMPE      H8S            -7.9839512403        7.7174120883        7.4035512826  MEMB      8               0.0000000000
       917         8  PMPE      C29            -6.2376970264        6.6215674203        7.5616977080  MEMB      8               0.0000000000
       918         8  PMPE      H9R            -6.3807742466        5.5284858861        7.6996196431  MEMB      8               0.0000000000
       919         8  PMPE      C217           -4.7373170880        7.0440296469        7.7732336926  MEMB      8               0.0000000000
       920         8  PMPE      H17R           -3.9425671800        6.3084964196        7.7573519975  MEMB      8               0.0000000000
       921         8  PMPE      H17S           -4.6299355744        8.0413540553        8.1815259807  MEMB      8               0.0000000000
       922         8  PMPE      C210           -5.3665966240        7.1266025231        6.3728650825  MEMB      8               0.0000000000
       923         8  PMPE      H10R           -4.9134148181        6.2953793074        5.7914738395  MEMB      8               0.0000000000
       924         8  PMPE      C211           -5.7736735816        8.4024859880        5.7704285592  MEMB      8               0.0000000000
       925         8  PMPE      H11R           -4.9904068051        8.8304367257        5.1088615002  MEMB      8               0.0000000000
       926         8  PMPE      H11S           -6.0300151264        9.2222718524        6.4751000976  MEMB      8               0.0000000000
       927         8  PMPE      C212           -6.9629948805        8.1311852928        4.8073842722  MEMB      8               0.0000000000
       928         8  PMPE      H12R           -7.6176264188        9.0174661168        4.6649593716  MEMB      8               0.0000000000
       929         8  PMPE      H12S           -7.6235128761        7.3472699752        5.2357686519  MEMB      8               0.0000000000
       930         8  PMPE      C213           -6.4283342401        7.5326582039        3.4365991316  MEMB      8               0.0000000000
       931         8  PMPE      H13R           -7.3089534855        7.0458798923        2.9655601754  MEMB      8               0.0000000000
       932         8  PMPE      H13S           -5.7266220882        6.7004984431        3.6589303220  MEMB      8               0.0000000000
       933         8  PMPE      C214           -5.7668072837        8.6532535820        2.5218448916  MEMB      8               0.0000000000
       934         8  PMPE      H14R           -5.1181362886        9.3678082721        3.0722616280  MEMB      8               0.0000000000
       935         8  PMPE      H14S           -6.5030294267        9.3672338024        2.0946091665  MEMB      8               0.0000000000
       936         8  PMPE      C215           -4.9313768041        8.0095363933        1.4276547375  MEMB      8               0.0000000000
       937         8  PMPE      H15R           -4.1309585669        7.4006786529        1.8998232625  MEMB      8               0.0000000000
       938         8  PMPE      H15S           -4.4652684650        8.7899870232        0.7889348653  MEMB      8               0.0000000000
       939         8  PMPE      C216           -5.7225608288        7.0951424754        0.4928157567  MEMB      8               0.0000000000
       940         8  PMPE      H16R           -6.4858718795        7.7164553088       -0.0225934131  MEMB      8               0.0000000000
       941         8  PMPE      H16S           -5.0811791279        6.7408846645       -0.3423204397  MEMB      8               0.0000000000
       942         8  PMPE      H16T           -6.4038882473        6.4098257183        1.0409541258  MEMB      8               0.0000000000
       943         8  PMPE      C33           -12.2599015493        9.1529565510       12.0223952134  MEMB      8               0.0000000000
       944         8  PMPE      H3X           -11.1787509593        9.1410813547       12.2779212241  MEMB      8               0.0000000000
       945         8  PMPE      H3Y           -12.5945019716       10.1487338047       12.3840460107  MEMB      8               0.0000000000
       946         8  PMPE      C34           -12.3024342611        9.1966089051       10.4868435866  MEMB      8               0.0000000000
       947         8  PMPE      H4X           -13.3330320150        9.2729090504       10.0789615503  MEMB      8               0.0000000000
       948         8  PMPE      H4Y           -11.8464337875        8.2218314713       10.2108121594  MEMB      8               0.0000000000
       949         8  PMPE      C35           -11.4394933477       10.3872706128       10.0948851531  MEMB      8               0.0000000000
       950         8  PMPE      H5X           -10.4083710407       10.2741867843       10.4927797158  MEMB      8               0.0000000000
       951         8  PMPE      H5Y           -11.8669476785       11.2666460917       10.6224292440  MEMB      8               0.0000000000
       952         8  PMPE      C36           -11.1231474680       10.7073684483        8.6201362259  MEMB      8               0.0000000000
       953         8  PMPE      H6X           -10.4378682600       11.5799825629        8.6772152166  MEMB      8               0.0000000000
       954         8  PMPE      H6Y           -12.0034192916       11.0350411264        8.0267788601  MEMB      8               0.0000000000
       955         8  PMPE      C37           -10.3743516804        9.6096622253        7.9008012729  MEMB      8               0.0000000000
       956         8  PMPE      H7X           -11.1344589101        8.8150133155        7.7423997783  MEMB      8               0.0000000000
       957         8  PMPE      H7Y            -9.5535489689        9.1796209059        8.5137187731  MEMB      8               0.0000000000
       958         8  PMPE      C38            -9.7037787383        9.9867462013        6.5174569558  MEMB      8               0.0000000000
       959         8  PMPE      H8X            -9.2728537190        9.0671423946        6.0669528253  MEMB      8               0.0000000000
       960         8  PMPE      H8Y            -8.7983519308       10.5978495628        6.7201290520  MEMB      8               0.0000000000
       961         8  PMPE      C39           -10.6201534172       10.8023239110        5.6081880982  MEMB      8               0.0000000000
       962         8  PMPE      H9X           -10.6303266941       11.8644126552        5.9340487486  MEMB      8               0.0000000000
       963         8  PMPE      H9Y           -11.6638588762       10.4429950627        5.4821608016  MEMB      8               0.0000000000
       964         8  PMPE      C310          -10.1551779364       10.8103426004        4.1336419924  MEMB      8               0.0000000000
       965         8  PMPE      H10X          -10.3822993675        9.8336782038        3.6552448658  MEMB      8               0.0000000000
       966         8  PMPE      H10Y           -9.1059998669       11.1532468473        4.0072964002  MEMB      8               0.0000000000
       967         8  PMPE      C311          -10.9132941016       11.7574731851        3.2317958711  MEMB      8               0.0000000000
       968         8  PMPE      H11X          -10.6767353690       12.8075548805        3.5069124599  MEMB      8               0.0000000000
       969         8  PMPE      H11Y          -12.0198162943       11.6956038625        3.3099086586  MEMB      8               0.0000000000
       970         8  PMPE      C312          -10.4819768771       11.3479003285        1.8303618497  MEMB      8               0.0000000000
       971         8  PMPE      H12X           -9.5418173769       10.7561134673        1.8158767441  MEMB      8               0.0000000000
       972         8  PMPE      H12Y          -10.1499801298       12.2679099377        1.3034078900  MEMB      8               0.0000000000
       973         8  PMPE      C313          -11.4917561873       10.5925359825        0.9930085047  MEMB      8               0.0000000000
       974         8  PMPE      H13X          -11.5098889748       10.9571520342       -0.0562997545  MEMB      8               0.0000000000
       975         8  PMPE      H13Y          -12.5461411700       10.8534107464        1.2265399878  MEMB      8               0.0000000000
       976         8  PMPE      C314          -11.2497031352        9.0849087291        0.9908505245  MEMB      8               0.0000000000
       977         8  PMPE      H14X          -11.8647166118        8.8672505887        0.0915708436  MEMB      8               0.0000000000
       978         8  PMPE      H14Y          -11.6204609173        8.4906497179        1.8532411845  MEMB      8               0.0000000000
       979         8  PMPE      C315           -9.7808673887        8.5639472069        0.6527207311  MEMB      8               0.0000000000
       980         8  PMPE      H15X           -9.2145459432        8.7856242159        1.5824845489  MEMB      8               0.0000000000
       981         8  PMPE      H15Y           -9.3225512142        9.1445066843       -0.1762652149  MEMB      8               0.0000000000
       982         8  PMPE      C316           -9.7561082342        7.1161654435        0.1502874529  MEMB      8               0.0000000000
       983         8  PMPE      H16X          -10.5460965874        6.9949701750       -0.6214311893  MEMB      8               0.0000000000
       984         8  PMPE      H16Y          -10.0656226302        6.3629086568        0.9060178868  MEMB      8               0.0000000000
       985         8  PMPE      H16Z           -8.8213263476        6.8764053334       -0.4001828107  MEMB      8               0.0000000000
       986         9  PMPE      N              10.2607059630        1.3329492144       20.6173220115  MEMB      9               0.0000000000
       987         9  PMPE      HN1            10.2997485410        2.2014950140       20.0466173584  MEMB      9               0.0000000000
       988         9  PMPE      HN2             9.5156300968        1.5099793759       21.3209710483  MEMB      9               0.0000000000
       989         9  PMPE      HN3            11.1920421622        1.1913176302       21.0579503901  MEMB      9               0.0000000000
       990         9  PMPE      C12            10.1266793836        0.0002523764       19.8866967665  MEMB      9               0.0000000000
       991         9  PMPE      H12A            9.0548550897       -0.2894627690       19.8469626060  MEMB      9               0.0000000000
       992         9  PMPE      H12B           10.5476468648       -0.7896405986       20.5448582292  MEMB      9               0.0000000000
       993         9  PMPE      C11            10.7112896286        0.0852524105       18.4721544536  MEMB      9               0.0000000000
       994         9  PMPE      H11A           10.1125701313        0.9004639888       18.0124959109  MEMB      9               0.0000000000
       995         9  PMPE      H11B           10.6419808521       -0.8894277704       17.9434619580  MEMB      9               0.0000000000
       996         9  PMPE      P              13.1622193674       -0.4942763537       18.6269674705  MEMB      9               0.0000000000
       997         9  PMPE      O13            13.0095703372       -1.4615035874       17.5632276751  MEMB      9               0.0000000000
       998         9  PMPE      O14            13.2468838380       -0.9529273666       19.9895248130  MEMB      9               0.0000000000
       999         9  PMPE      O11            14.5030277386        0.3182945803       18.4397482048  MEMB      9               0.0000000000
      1000         9  PMPE      O12            12.0140061887        0.5503911252       18.4043585990  MEMB      9               0.0000000000
      1001         9  PMPE      C1             14.8381389157        1.5329424077       19.1030690266  MEMB      9               0.0000000000
      1002         9  PMPE      HA             15.8435661575        1.3728901214       19.5478391130  MEMB      9               0.0000000000
      1003         9  PMPE      HB             14.1436326544        1.8304765129       19.9175968889  MEMB      9               0.0000000000
      1004         9  PMPE      C2             14.9578723575        2.7036657256       18.1060947573  MEMB      9               0.0000000000
      1005         9  PMPE      HS             15.1044992722        3.6109167893       18.7303679915  MEMB      9               0.0000000000
      1006         9  PMPE      O21            13.7578677753        2.8496779271       17.3557361202  MEMB      9               0.0000000000
      1007         9  PMPE      C21            13.6321604015        3.9422084245       16.6419624389  MEMB      9               0.0000000000
      1008         9  PMPE      O22            14.3769521242        4.9090790048       16.6735313828  MEMB      9               0.0000000000
      1009         9  PMPE      C22            12.3287369483        3.6856373183       15.7753657332  MEMB      9               0.0000000000
      1010         9  PMPE      H2R            11.5291414668        3.9374493281       16.5044465049  MEMB      9               0.0000000000
      1011         9  PMPE      H2S            12.3244009323        2.6825632157       15.2977210417  MEMB      9               0.0000000000
      1012         9  PMPE      C3             16.1599173926        2.4610662711       17.1645500496  MEMB      9               0.0000000000
      1013         9  PMPE      HX             16.9582487243        2.4444028950       17.9370202164  MEMB      9               0.0000000000
      1014         9  PMPE      HY             16.2268896974        3.3573216092       16.5114327437  MEMB      9               0.0000000000
      1015         9  PMPE      O31            16.1182255820        1.2208750488       16.5102392981  MEMB      9               0.0000000000
      1016         9  PMPE      C31            15.7482920718        1.1130123150       15.2883516259  MEMB      9               0.0000000000
      1017         9  PMPE      O32            15.5625913588        2.0414338632       14.5301863307  MEMB      9               0.0000000000
      1018         9  PMPE      C32            15.6059271207       -0.4361509057       14.9027692604  MEMB      9               0.0000000000
      1019         9  PMPE      H2X            14.8965786648       -0.9354341233       15.5969323746  MEMB      9               0.0000000000
      1020         9  PMPE      H2Y            16.6472127285       -0.7889260888       15.0627532104  MEMB      9               0.0000000000
      1021         9  PMPE      C23            12.1929568384        4.7308378109       14.6495094773  MEMB      9               0.0000000000
      1022         9  PMPE      H3R            12.0357796264        5.6985368661       15.1721717627  MEMB      9               0.0000000000
      1023         9  PMPE      H3S            11.2769606857        4.4975049923       14.0657051816  MEMB      9               0.0000000000
      1024         9  PMPE      C24            13.4228318074        4.7312822855       13.6436622084  MEMB      9               0.0000000000
      1025         9  PMPE      H4R            14.3800657222        4.4826460896       14.1498283850  MEMB      9               0.0000000000
      1026         9  PMPE      H4S            13.3229556089        5.6845482377       13.0818524411  MEMB      9               0.0000000000
      1027         9  PMPE      C25            13.4235361071        3.6969759571       12.4718233601  MEMB      9               0.0000000000
      1028         9  PMPE      H5R            13.1714214609        2.7134440014       12.9228492839  MEMB      9               0.0000000000
      1029         9  PMPE      H5S            14.4413495186        3.7583663559       12.0306796612  MEMB      9               0.0000000000
      1030         9  PMPE      C26            12.3663577697        3.9024277303       11.3320348900  MEMB      9               0.0000000000
      1031         9  PMPE      H6R            12.4766550646        4.9534274036       10.9891705155  MEMB      9               0.0000000000
      1032         9  PMPE      H6S            11.3310221716        3.8883423957       11.7347790719  MEMB      9               0.0000000000
      1033         9  PMPE      C27            12.6692856719        2.9796528127       10.0721025137  MEMB      9               0.0000000000
      1034         9  PMPE      H7R            12.5738126256        1.9469549896       10.4705256216  MEMB      9               0.0000000000
      1035         9  PMPE      H7S            13.7427856462        3.1609091653        9.8505970590  MEMB      9               0.0000000000
      1036         9  PMPE      C28            11.7528348505        3.2539486863        8.8043414553  MEMB      9               0.0000000000
      1037         9  PMPE      H8R            12.1455669606        2.5087152610        8.0799737973  MEMB      9               0.0000000000
      1038         9  PMPE      H8S            11.8407311079        4.3133479066        8.4814359656  MEMB      9               0.0000000000
      1039         9  PMPE      C29            10.3087678937        2.9010471722        9.2012434343  MEMB      9               0.0000000000
      1040         9  PMPE      H9R             9.7852286409        3.3496903526       10.0724189047  MEMB      9               0.0000000000
      1041         9  PMPE      C217           10.0678298973        1.3407982373        9.2675923755  MEMB      9               0.0000000000
      1042         9  PMPE      H17R            9.6637086158        1.2073755558       10.2634697541  MEMB      9               0.0000000000
      1043         9  PMPE      H17S           10.9388543109        0.8011214723        8.9169431726  MEMB      9               0.0000000000
      1044         9  PMPE      C210            9.3158861574        2.1210834554        8.2202707608  MEMB      9               0.0000000000
      1045         9  PMPE      H10R            8.2373827203        2.3023566548        8.4159528725  MEMB      9               0.0000000000
      1046         9  PMPE      C211            9.5470431265        1.9368300984        6.6829037198  MEMB      9               0.0000000000
      1047         9  PMPE      H11R            8.9835338455        1.0492832487        6.3236839573  MEMB      9               0.0000000000
      1048         9  PMPE      H11S           10.6108041533        1.6362063397        6.5717322505  MEMB      9               0.0000000000
      1049         9  PMPE      C212            9.2615387572        3.1603035572        5.8672829311  MEMB      9               0.0000000000
      1050         9  PMPE      H12R           10.0302320960        3.8360205040        6.2995309044  MEMB      9               0.0000000000
      1051         9  PMPE      H12S            8.2036197739        3.4889645383        5.9516064307  MEMB      9               0.0000000000
      1052         9  PMPE      C213            9.5729616296        3.0667856797        4.3078928854  MEMB      9               0.0000000000
      1053         9  PMPE      H13R            8.6340472078        2.7273418551        3.8205129616  MEMB      9               0.0000000000
      1054         9  PMPE      H13S           10.4119932809        2.3404829753        4.2546846648  MEMB      9               0.0000000000
      1055         9  PMPE      C214            9.9149037948        4.4008044987        3.6606857688  MEMB      9               0.0000000000
      1056         9  PMPE      H14R           10.7909221887        4.8626266973        4.1643058939  MEMB      9               0.0000000000
      1057         9  PMPE      H14S            9.0031361189        5.0309613181        3.7375175602  MEMB      9               0.0000000000
      1058         9  PMPE      C215           10.1146154491        4.3222150898        2.1293412327  MEMB      9               0.0000000000
      1059         9  PMPE      H15R            9.2997442484        3.7144508102        1.6810900567  MEMB      9               0.0000000000
      1060         9  PMPE      H15S           10.9877879454        3.6595068748        1.9484865557  MEMB      9               0.0000000000
      1061         9  PMPE      C216           10.2696991731        5.6451743198        1.2904398681  MEMB      9               0.0000000000
      1062         9  PMPE      H16R           10.5108800489        5.3245856494        0.2544002371  MEMB      9               0.0000000000
      1063         9  PMPE      H16S            9.3918583447        6.3258815371        1.3092673083  MEMB      9               0.0000000000
      1064         9  PMPE      H16T           11.0588108272        6.3622079164        1.6026673907  MEMB      9               0.0000000000
      1065         9  PMPE      C33            15.1901337508       -0.7445837657       13.4039376670  MEMB      9               0.0000000000
      1066         9  PMPE      H3X            15.4071622062        0.1914778176       12.8462564954  MEMB      9               0.0000000000
      1067         9  PMPE      H3Y            14.0813782416       -0.8058280541       13.3688430936  MEMB      9               0.0000000000
      1068         9  PMPE      C34            16.0188290638       -1.8786646211       12.8380417146  MEMB      9               0.0000000000
      1069         9  PMPE      H4X            15.6920142890       -2.7205486741       13.4851464718  MEMB      9               0.0000000000
      1070         9  PMPE      H4Y            17.0966794893       -1.8075564992       13.0978544336  MEMB      9               0.0000000000
      1071         9  PMPE      C35            15.7350235580       -2.1202322429       11.3593484532  MEMB      9               0.0000000000
      1072         9  PMPE      H5X            14.6870111845       -2.4696946546       11.2415908905  MEMB      9               0.0000000000
      1073         9  PMPE      H5Y            16.2385664873       -3.0245358200       10.9556148400  MEMB      9               0.0000000000
      1074         9  PMPE      C36            16.1385844970       -1.0397565455       10.2937593156  MEMB      9               0.0000000000
      1075         9  PMPE      H6X            16.4708308736       -1.7154375341        9.4768212366  MEMB      9               0.0000000000
      1076         9  PMPE      H6Y            17.1415769460       -0.6357792528       10.5489658926  MEMB      9               0.0000000000
      1077         9  PMPE      C37            15.1636699659        0.0048379774        9.9449421324  MEMB      9               0.0000000000
      1078         9  PMPE      H7X            15.3941641338        0.8216844603       10.6618483102  MEMB      9               0.0000000000
      1079         9  PMPE      H7Y            14.1038399048       -0.3226029901       10.0070989029  MEMB      9               0.0000000000
      1080         9  PMPE      C38            15.3495224315        0.5492745654        8.4916841552  MEMB      9               0.0000000000
      1081         9  PMPE      H8X            16.4325845622        0.6653477789        8.2729969423  MEMB      9               0.0000000000
      1082         9  PMPE      H8Y            14.8262705978        1.5191134705        8.3504707344  MEMB      9               0.0000000000
      1083         9  PMPE      C39            14.8084850983       -0.4435058685        7.4387510528  MEMB      9               0.0000000000
      1084         9  PMPE      H9X            15.3882640233       -1.3885964457        7.5093287819  MEMB      9               0.0000000000
      1085         9  PMPE      H9Y            15.2004707606       -0.0447429807        6.4787217076  MEMB      9               0.0000000000
      1086         9  PMPE      C310           13.2583156586       -0.6262569265        7.3548359447  MEMB      9               0.0000000000
      1087         9  PMPE      H10X           12.7681652506        0.3697274096        7.3091329618  MEMB      9               0.0000000000
      1088         9  PMPE      H10Y           12.9996290857       -1.1316773923        8.3097978336  MEMB      9               0.0000000000
      1089         9  PMPE      C311           12.7131045251       -1.3825691428        6.1304028157  MEMB      9               0.0000000000
      1090         9  PMPE      H11X           11.6422103207       -1.6290502793        6.2939680647  MEMB      9               0.0000000000
      1091         9  PMPE      H11Y           13.2295159861       -2.3661587359        6.1165652844  MEMB      9               0.0000000000
      1092         9  PMPE      C312           12.8488731898       -0.6306438745        4.8079070958  MEMB      9               0.0000000000
      1093         9  PMPE      H12X           13.8849702646       -0.4397722905        4.4552144459  MEMB      9               0.0000000000
      1094         9  PMPE      H12Y           12.3407088205        0.3480640283        4.9428917562  MEMB      9               0.0000000000
      1095         9  PMPE      C313           12.0039615836       -1.3162501303        3.7094205332  MEMB      9               0.0000000000
      1096         9  PMPE      H13X           11.4309620003       -0.4799319937        3.2549263600  MEMB      9               0.0000000000
      1097         9  PMPE      H13Y           11.1993498097       -1.8694639563        4.2393974193  MEMB      9               0.0000000000
      1098         9  PMPE      C314           12.7732974081       -2.1229915855        2.7018552472  MEMB      9               0.0000000000
      1099         9  PMPE      H14X           13.4313067521       -2.8606183888        3.2090550883  MEMB      9               0.0000000000
      1100         9  PMPE      H14Y           13.4988294771       -1.4753005179        2.1648089208  MEMB      9               0.0000000000
      1101         9  PMPE      C315           11.8729712093       -2.6163287401        1.4927035338  MEMB      9               0.0000000000
      1102         9  PMPE      H15X           12.4478267581       -2.8302348770        0.5663626864  MEMB      9               0.0000000000
      1103         9  PMPE      H15Y           11.1158032871       -1.8371307772        1.2606064872  MEMB      9               0.0000000000
      1104         9  PMPE      C316           11.0987639446       -3.9302099439        1.7571728127  MEMB      9               0.0000000000
      1105         9  PMPE      H16X           10.3864324202       -3.8136263968        0.9125939968  MEMB      9               0.0000000000
      1106         9  PMPE      H16Y           10.4987287076       -3.8321420985        2.6870456019  MEMB      9               0.0000000000
      1107         9  PMPE      H16Z           11.7843198583       -4.7897145523        1.5972178717  MEMB      9               0.0000000000
      1108        10  PMPG      C13           -10.8263151210       -1.2462958538       20.5258841578  MEMB      10              0.0000000000
      1109        10  PMPG      H13A          -10.8159206511       -1.9085272217       19.6338849127  MEMB      10              0.0000000000
      1110        10  PMPG      H13B          -10.0393027066       -0.4763750457       20.3770411429  MEMB      10              0.0000000000
      1111        10  PMPG      OC3           -10.3699121567       -2.0327534816       21.6603488482  MEMB      10              0.0000000000
      1112        10  PMPG      HO3            -9.7171813544       -2.6773619146       21.3774668131  MEMB      10              0.0000000000
      1113        10  PMPG      C12           -12.2845050362       -0.5876509340       20.7582293989  MEMB      10              0.0000000000
      1114        10  PMPG      H12A          -12.1602561305        0.2408591141       21.4936968350  MEMB      10              0.0000000000
      1115        10  PMPG      OC2           -13.1745430023       -1.5502703080       21.3250073534  MEMB      10              0.0000000000
      1116        10  PMPG      HO2           -14.0432771575       -1.0930324769       21.2941630131  MEMB      10              0.0000000000
      1117        10  PMPG      C11           -12.8864677487        0.0047870287       19.4782587443  MEMB      10              0.0000000000
      1118        10  PMPG      H11A          -12.1564578957        0.6616874163       18.9587508638  MEMB      10              0.0000000000
      1119        10  PMPG      H11B          -13.7518975429        0.6164454947       19.8117646508  MEMB      10              0.0000000000
      1120        10  PMPG      P             -13.8128220270       -0.6484658164       17.2208652293  MEMB      10              0.0000000000
      1121        10  PMPG      O13           -14.9531016981        0.2068673755       17.5540366112  MEMB      10              0.0000000000
      1122        10  PMPG      O14           -14.0673271149       -1.9472993698       16.5018055797  MEMB      10              0.0000000000
      1123        10  PMPG      O11           -12.7855396638        0.2272382891       16.4031113550  MEMB      10              0.0000000000
      1124        10  PMPG      O12           -13.1673314359       -1.0474470684       18.5724527247  MEMB      10              0.0000000000
      1125        10  PMPG      C1            -11.4169039104       -0.1329304966       16.3673924822  MEMB      10              0.0000000000
      1126        10  PMPG      HA            -11.0154511378       -0.4553222986       17.3518823219  MEMB      10              0.0000000000
      1127        10  PMPG      HB            -10.8850699111        0.8366864480       16.2610134856  MEMB      10              0.0000000000
      1128        10  PMPG      C2            -10.9349212822       -1.2271889637       15.4199220431  MEMB      10              0.0000000000
      1129        10  PMPG      HS            -11.1808083421       -2.1858001404       15.9248232952  MEMB      10              0.0000000000
      1130        10  PMPG      O21            -9.6005096755       -1.0331571819       15.0272885066  MEMB      10              0.0000000000
      1131        10  PMPG      C21            -9.1114451534       -2.0675444586       14.3888034862  MEMB      10              0.0000000000
      1132        10  PMPG      O22            -9.4861344166       -3.2056606249       14.5435215514  MEMB      10              0.0000000000
      1133        10  PMPG      C22            -8.0876042615       -1.5859401370       13.3390922968  MEMB      10              0.0000000000
      1134        10  PMPG      H2R            -7.2345252406       -2.2844902139       13.2026915239  MEMB      10              0.0000000000
      1135        10  PMPG      H2S            -7.5397098992       -0.6728114861       13.6558396761  MEMB      10              0.0000000000
      1136        10  PMPG      C3            -11.8445528391       -1.2291803078       14.0479876444  MEMB      10              0.0000000000
      1137        10  PMPG      HX            -12.8949531974       -1.3663634193       14.3828919515  MEMB      10              0.0000000000
      1138        10  PMPG      HY            -11.6101107575       -2.0630456380       13.3522669915  MEMB      10              0.0000000000
      1139        10  PMPG      O31           -11.8114442152        0.0592767067       13.3213552160  MEMB      10              0.0000000000
      1140        10  PMPG      C31           -12.3819469945        0.0078897526       12.1328245156  MEMB      10              0.0000000000
      1141        10  PMPG      O32           -12.9716422758       -0.9064092445       11.5854080537  MEMB      10              0.0000000000
      1142        10  PMPG      C32           -12.4377594524        1.4263729225       11.5708213993  MEMB      10              0.0000000000
      1143        10  PMPG      H2X           -12.0067348083        2.2174152443       12.2210450873  MEMB      10              0.0000000000
      1144        10  PMPG      H2Y           -13.4899867287        1.6392357082       11.2847650328  MEMB      10              0.0000000000
      1145        10  PMPG      C23            -8.7487000728       -1.2543593727       11.9797952303  MEMB      10              0.0000000000
      1146        10  PMPG      H3R            -9.0346454861       -0.1810449286       12.0032978635  MEMB      10              0.0000000000
      1147        10  PMPG      H3S            -9.5879361872       -1.9509408637       11.7681875045  MEMB      10              0.0000000000
      1148        10  PMPG      C24            -7.8098540110       -1.3826044665       10.7007765344  MEMB      10              0.0000000000
      1149        10  PMPG      H4R            -7.3162706682       -2.3778255616       10.7159997399  MEMB      10              0.0000000000
      1150        10  PMPG      H4S            -6.9511532681       -0.6793328854       10.6521657909  MEMB      10              0.0000000000
      1151        10  PMPG      C25            -8.5704459570       -1.2876559096        9.4417695596  MEMB      10              0.0000000000
      1152        10  PMPG      H5R            -7.8723865369       -1.0824807180        8.6021643939  MEMB      10              0.0000000000
      1153        10  PMPG      H5S            -9.3523221734       -0.4990416132        9.4089331350  MEMB      10              0.0000000000
      1154        10  PMPG      C26            -9.3365825436       -2.6426535426        9.2465437206  MEMB      10              0.0000000000
      1155        10  PMPG      H6R           -10.1607779598       -2.7854986805        9.9777189594  MEMB      10              0.0000000000
      1156        10  PMPG      H6S            -8.6016656371       -3.4735044522        9.3090349760  MEMB      10              0.0000000000
      1157        10  PMPG      C27           -10.1335617263       -2.7129716996        7.9175096454  MEMB      10              0.0000000000
      1158        10  PMPG      H7R            -9.5244053526       -3.2022438734        7.1276604689  MEMB      10              0.0000000000
      1159        10  PMPG      H7S           -10.3710216052       -1.7697339321        7.3806338258  MEMB      10              0.0000000000
      1160        10  PMPG      C28           -11.3925077157       -3.5086939240        8.2010991260  MEMB      10              0.0000000000
      1161        10  PMPG      H8R           -11.9717710503       -2.9964282587        8.9988207396  MEMB      10              0.0000000000
      1162        10  PMPG      H8S           -11.1352841876       -4.4897320368        8.6546645903  MEMB      10              0.0000000000
      1163        10  PMPG      C29           -12.3594574073       -3.6496115528        7.0518360148  MEMB      10              0.0000000000
      1164        10  PMPG      H9R           -11.9993254072       -4.1167489749        6.1103430977  MEMB      10              0.0000000000
      1165        10  PMPG      C217          -13.8454711521       -3.5789290318        7.2287736401  MEMB      10              0.0000000000
      1166        10  PMPG      H17R          -14.4718879190       -3.9686423617        6.4359219688  MEMB      10              0.0000000000
      1167        10  PMPG      H17S          -14.2610204830       -3.5112847557        8.2265869801  MEMB      10              0.0000000000
      1168        10  PMPG      C210          -13.1550699633       -2.3577838246        6.7250474183  MEMB      10              0.0000000000
      1169        10  PMPG      H10R          -13.3793963030       -2.1759222178        5.6522351944  MEMB      10              0.0000000000
      1170        10  PMPG      C211          -13.1247500093       -1.1322644632        7.6172577966  MEMB      10              0.0000000000
      1171        10  PMPG      H11R          -13.0568243049       -1.2457929279        8.7203520748  MEMB      10              0.0000000000
      1172        10  PMPG      H11S          -12.2455275459       -0.5047147273        7.3575077204  MEMB      10              0.0000000000
      1173        10  PMPG      C212          -14.3306959709       -0.1721382843        7.3954709744  MEMB      10              0.0000000000
      1174        10  PMPG      H12R          -14.1371878932        0.7978656527        7.9014043200  MEMB      10              0.0000000000
      1175        10  PMPG      H12S          -15.2730587777       -0.5958265424        7.8038357474  MEMB      10              0.0000000000
      1176        10  PMPG      C213          -14.7186773392        0.1632002091        5.9830611885  MEMB      10              0.0000000000
      1177        10  PMPG      H13R          -15.5683695475        0.8763464638        5.9216878120  MEMB      10              0.0000000000
      1178        10  PMPG      H13S          -15.1268060297       -0.7336070745        5.4697493857  MEMB      10              0.0000000000
      1179        10  PMPG      C214          -13.6123882204        0.7373064741        5.1074117371  MEMB      10              0.0000000000
      1180        10  PMPG      H14R          -12.8548744753       -0.0609975244        4.9550807552  MEMB      10              0.0000000000
      1181        10  PMPG      H14S          -13.0482117742        1.5810754957        5.5591636027  MEMB      10              0.0000000000
      1182        10  PMPG      C215          -14.1082350724        1.3747754277        3.7667271718  MEMB      10              0.0000000000
      1183        10  PMPG      H15R          -14.8706675337        2.1457801574        4.0087382461  MEMB      10              0.0000000000
      1184        10  PMPG      H15S          -14.7074836229        0.5934348526        3.2522090821  MEMB      10              0.0000000000
      1185        10  PMPG      C216          -12.9507243666        2.0333251412        2.8881901962  MEMB      10              0.0000000000
      1186        10  PMPG      H16R          -12.6771778024        2.9542279258        3.4462511027  MEMB      10              0.0000000000
      1187        10  PMPG      H16S          -13.3604173263        2.2603782860        1.8807576006  MEMB      10              0.0000000000
      1188        10  PMPG      H16T          -11.9885385212        1.4778865995        2.8854498239  MEMB      10              0.0000000000
      1189        10  PMPG      C33           -11.6515981632        1.3583901043       10.2037920701  MEMB      10              0.0000000000
      1190        10  PMPG      H3X           -11.8704219393        0.4226095032        9.6463412895  MEMB      10              0.0000000000
      1191        10  PMPG      H3Y           -10.5790320831        1.2045005648       10.4492323966  MEMB      10              0.0000000000
      1192        10  PMPG      C34           -11.7506982397        2.6614047243        9.3543441786  MEMB      10              0.0000000000
      1193        10  PMPG      H4X           -11.4284994292        3.5476894908        9.9417187586  MEMB      10              0.0000000000
      1194        10  PMPG      H4Y           -12.7998396775        2.8677321956        9.0525956073  MEMB      10              0.0000000000
      1195        10  PMPG      C35           -10.7841283163        2.5577612282        8.1700255501  MEMB      10              0.0000000000
      1196        10  PMPG      H5X           -11.0535731942        1.5623269499        7.7567081216  MEMB      10              0.0000000000
      1197        10  PMPG      H5Y            -9.7630979073        2.5838970860        8.6072151542  MEMB      10              0.0000000000
      1198        10  PMPG      C36           -10.7976804569        3.5858081845        7.0004596496  MEMB      10              0.0000000000
      1199        10  PMPG      H6X           -10.6787183389        4.6050607053        7.4262452854  MEMB      10              0.0000000000
      1200        10  PMPG      H6Y           -11.8378081361        3.4421878405        6.6373771757  MEMB      10              0.0000000000
      1201        10  PMPG      C37            -9.7106909210        3.3327928955        5.9774197678  MEMB      10              0.0000000000
      1202        10  PMPG      H7X            -8.6897083155        3.3162219619        6.4151879547  MEMB      10              0.0000000000
      1203        10  PMPG      H7Y            -9.6464315976        4.1079323084        5.1841039856  MEMB      10              0.0000000000
      1204        10  PMPG      C38            -9.8123927085        1.9098963181        5.3088863619  MEMB      10              0.0000000000
      1205        10  PMPG      H8X           -10.9045888491        1.8154830973        5.1285673746  MEMB      10              0.0000000000
      1206        10  PMPG      H8Y            -9.5737089409        1.0920897006        6.0220083897  MEMB      10              0.0000000000
      1207        10  PMPG      C39            -9.0023853171        1.7738131843        4.0673436717  MEMB      10              0.0000000000
      1208        10  PMPG      H9X            -8.0906487854        2.4078332531        4.1001437748  MEMB      10              0.0000000000
      1209        10  PMPG      H9Y            -9.5846720735        2.0328733616        3.1573153605  MEMB      10              0.0000000000
      1210        10  PMPG      C310           -8.5205063042        0.3164134844        3.7097848231  MEMB      10              0.0000000000
      1211        10  PMPG      H10X           -7.9238542932        0.1137384446        4.6247982715  MEMB      10              0.0000000000
      1212        10  PMPG      H10Y           -8.0192571372        0.2665158747        2.7195419348  MEMB      10              0.0000000000
      1213        10  PMPG      C311           -9.6625021561       -0.6742543381        3.8010847377  MEMB      10              0.0000000000
      1214        10  PMPG      H11X          -10.5071588196       -0.2957983620        3.1865547859  MEMB      10              0.0000000000
      1215        10  PMPG      H11Y          -10.0601726849       -0.6945580884        4.8382764276  MEMB      10              0.0000000000
      1216        10  PMPG      C312           -9.4036435893       -2.1340864615        3.5113470359  MEMB      10              0.0000000000
      1217        10  PMPG      H12X          -10.3803746554       -2.5517675367        3.8367075091  MEMB      10              0.0000000000
      1218        10  PMPG      H12Y           -8.6754918353       -2.6765392261        4.1515507923  MEMB      10              0.0000000000
      1219        10  PMPG      C313           -9.0388417025       -2.3925410592        2.0363344784  MEMB      10              0.0000000000
      1220        10  PMPG      H13X           -8.5741924402       -3.3805254831        1.8306437420  MEMB      10              0.0000000000
      1221        10  PMPG      H13Y           -8.3788754107       -1.6174349072        1.5913903924  MEMB      10              0.0000000000
      1222        10  PMPG      C314          -10.2865019892       -2.2257575835        1.1183199704  MEMB      10              0.0000000000
      1223        10  PMPG      H14X           -9.9460532013       -2.6004810585        0.1293816952  MEMB      10              0.0000000000
      1224        10  PMPG      H14Y          -10.4513712906       -1.1272239302        1.0992686622  MEMB      10              0.0000000000
      1225        10  PMPG      C315          -11.4559279406       -3.1843019735        1.5096775085  MEMB      10              0.0000000000
      1226        10  PMPG      H15X          -11.9006426226       -2.7194726558        2.4154828267  MEMB      10              0.0000000000
      1227        10  PMPG      H15Y          -11.0251023880       -4.1534403776        1.8405570961  MEMB      10              0.0000000000
      1228        10  PMPG      C316          -12.5328993191       -3.3804850277        0.4529052237  MEMB      10              0.0000000000
      1229        10  PMPG      H16X          -11.9588076969       -3.3373542796       -0.4972932692  MEMB      10              0.0000000000
      1230        10  PMPG      H16Y          -13.2968983087       -2.5741444361        0.4318957394  MEMB      10              0.0000000000
      1231        10  PMPG      H16Z          -13.0574285650       -4.3507241351        0.5864208366  MEMB      10              0.0000000000
      1232        11  POPE      N              -0.7988594053       16.6393430635       20.5660119581  MEMB      11              0.0000000000
      1233        11  POPE      HN1            -1.4655944225       16.5512930281       21.3593037000  MEMB      11              0.0000000000
      1234        11  POPE      HN2            -0.5087936815       17.6178302159       20.3659508623  MEMB      11              0.0000000000
      1235        11  POPE      HN3            -1.2120496368       16.3092644311       19.6705109960  MEMB      11              0.0000000000
      1236        11  POPE      C12             0.2867161186       15.6378244051       20.8673529914  MEMB      11              0.0000000000
      1237        11  POPE      H12A            0.0994226878       15.4301387633       21.9425780301  MEMB      11              0.0000000000
      1238        11  POPE      H12B            1.2409081170       16.2065302387       20.8876583950  MEMB      11              0.0000000000
      1239        11  POPE      C11             0.3265635653       14.3822847459       19.9557926251  MEMB      11              0.0000000000
      1240        11  POPE      H11A           -0.7342572183       14.0526770308       19.9742114069  MEMB      11              0.0000000000
      1241        11  POPE      H11B            0.9426150994       13.5691647241       20.3958350405  MEMB      11              0.0000000000
      1242        11  POPE      P               2.2188540854       14.1303838008       18.1010794857  MEMB      11              0.0000000000
      1243        11  POPE      O13             3.0910045996       13.6928490831       19.2762105421  MEMB      11              0.0000000000
      1244        11  POPE      O14             2.8008323120       15.1340355277       17.1812817228  MEMB      11              0.0000000000
      1245        11  POPE      O11             1.7944708168       12.8436364540       17.3603050837  MEMB      11              0.0000000000
      1246        11  POPE      O12             0.8055405104       14.7948740707       18.6919655946  MEMB      11              0.0000000000
      1247        11  POPE      C1              0.5163906584       12.7919445496       16.8384081058  MEMB      11              0.0000000000
      1248        11  POPE      HA              0.1675343130       13.8047311461       16.5436480581  MEMB      11              0.0000000000
      1249        11  POPE      HB             -0.2038542978       12.4044050442       17.5903264602  MEMB      11              0.0000000000
      1250        11  POPE      C2              0.4291748001       11.8297636028       15.6206433142  MEMB      11              0.0000000000
      1251        11  POPE      HS              0.9438497956       10.8669438976       15.8265778205  MEMB      11              0.0000000000
      1252        11  POPE      O21             1.0783379855       12.4099935790       14.4435819859  MEMB      11              0.0000000000
      1253        11  POPE      C21             1.4887123281       11.5418392389       13.4794599453  MEMB      11              0.0000000000
      1254        11  POPE      O22             1.3199006590       10.3245096716       13.6329729663  MEMB      11              0.0000000000
      1255        11  POPE      C22             2.0657070891       12.2036245741       12.2090330761  MEMB      11              0.0000000000
      1256        11  POPE      H2R             1.7757301686       13.2752764967       12.2514217994  MEMB      11              0.0000000000
      1257        11  POPE      H2S             1.6614367283       11.7255937827       11.2912243016  MEMB      11              0.0000000000
      1258        11  POPE      C3             -1.0879118956       11.5349787027       15.2297991966  MEMB      11              0.0000000000
      1259        11  POPE      HX             -1.4961227255       11.0052951674       16.1169971536  MEMB      11              0.0000000000
      1260        11  POPE      HY             -1.1097396392       10.8613582224       14.3465778172  MEMB      11              0.0000000000
      1261        11  POPE      O31            -1.9012467405       12.7685993540       14.9513710526  MEMB      11              0.0000000000
      1262        11  POPE      C31            -2.2028009967       13.0149650755       13.7367850377  MEMB      11              0.0000000000
      1263        11  POPE      O32            -2.3246961132       12.1400665348       12.8281934853  MEMB      11              0.0000000000
      1264        11  POPE      C32            -2.3514715744       14.5239073060       13.3968944443  MEMB      11              0.0000000000
      1265        11  POPE      H2X            -3.4175643450       14.7345744743       13.1658391989  MEMB      11              0.0000000000
      1266        11  POPE      H2Y            -1.7371574311       14.6246576259       12.4766830037  MEMB      11              0.0000000000
      1267        11  POPE      C23             3.6312181429       12.1304165524       12.2280079876  MEMB      11              0.0000000000
      1268        11  POPE      H3R             3.8966290721       12.4360459867       11.1933730204  MEMB      11              0.0000000000
      1269        11  POPE      H3S             4.0373509382       11.0986533820       12.2975954213  MEMB      11              0.0000000000
      1270        11  POPE      C24             4.2181390407       13.0294828608       13.3956050660  MEMB      11              0.0000000000
      1271        11  POPE      H4R             5.2737661357       12.7136907714       13.5378997109  MEMB      11              0.0000000000
      1272        11  POPE      H4S             3.6582092659       12.8425575718       14.3368058561  MEMB      11              0.0000000000
      1273        11  POPE      C25             4.2718873476       14.4830310904       13.0446024342  MEMB      11              0.0000000000
      1274        11  POPE      H5R             4.5508721671       15.1565749624       13.8829505735  MEMB      11              0.0000000000
      1275        11  POPE      H5S             3.2532717094       14.8871386435       12.8617362565  MEMB      11              0.0000000000
      1276        11  POPE      C26             5.4887184821       14.9639209654       12.1219211465  MEMB      11              0.0000000000
      1277        11  POPE      H6R             5.8203008852       14.2424096747       11.3448779667  MEMB      11              0.0000000000
      1278        11  POPE      H6S             6.3580746996       15.0318200643       12.8103475195  MEMB      11              0.0000000000
      1279        11  POPE      C27             5.2801390007       16.4911230377       11.8117662617  MEMB      11              0.0000000000
      1280        11  POPE      H7R             6.2303670156       16.9647905948       11.4846173817  MEMB      11              0.0000000000
      1281        11  POPE      H7S             5.1099477134       17.0220537362       12.7727388330  MEMB      11              0.0000000000
      1282        11  POPE      C28             4.1491011448       16.8451322628       10.7634525897  MEMB      11              0.0000000000
      1283        11  POPE      H8R             4.1148252299       17.9422660874       10.5918606708  MEMB      11              0.0000000000
      1284        11  POPE      H8S             3.1638001151       16.6583741169       11.2415988891  MEMB      11              0.0000000000
      1285        11  POPE      C29             4.5139193441       16.1717686288        9.4546547816  MEMB      11              0.0000000000
      1286        11  POPE      H91             5.4882278347       16.5267058151        9.0875818389  MEMB      11              0.0000000000
      1287        11  POPE      C210            3.8654253626       15.2202758980        8.7878510753  MEMB      11              0.0000000000
      1288        11  POPE      H101            4.1365246604       15.0476329750        7.7358532313  MEMB      11              0.0000000000
      1289        11  POPE      C211            2.5674435133       14.5904003229        9.1670535402  MEMB      11              0.0000000000
      1290        11  POPE      H11R            1.9851750728       15.1955530215        9.8944284863  MEMB      11              0.0000000000
      1291        11  POPE      H11S            2.7488468338       13.6285620035        9.6926772023  MEMB      11              0.0000000000
      1292        11  POPE      C212            1.6279745335       14.2797307831        8.0008465089  MEMB      11              0.0000000000
      1293        11  POPE      H12R            1.5777120143       15.0952458452        7.2480318837  MEMB      11              0.0000000000
      1294        11  POPE      H12S            0.6955790752       14.0580410543        8.5628199567  MEMB      11              0.0000000000
      1295        11  POPE      C213            2.1780535977       13.0474795172        7.1595395649  MEMB      11              0.0000000000
      1296        11  POPE      H13R            2.5612504287       12.2546424924        7.8369551494  MEMB      11              0.0000000000
      1297        11  POPE      H13S            3.1031128761       13.3065776458        6.6014585493  MEMB      11              0.0000000000
      1298        11  POPE      C214            1.0643647832       12.4422370793        6.2721141290  MEMB      11              0.0000000000
      1299        11  POPE      H14R            0.8748862389       13.1588143112        5.4445061561  MEMB      11              0.0000000000
      1300        11  POPE      H14S            0.0949281554       12.5447779698        6.8050299670  MEMB      11              0.0000000000
      1301        11  POPE      C215            1.4671522684       11.0895736126        5.7288607159  MEMB      11              0.0000000000
      1302        11  POPE      H15R            0.5477963160       10.5910029268        5.3539837034  MEMB      11              0.0000000000
      1303        11  POPE      H15S            2.0065687812       10.5280688098        6.5213653549  MEMB      11              0.0000000000
      1304        11  POPE      C216            2.3995860023       11.1192000553        4.4238949950  MEMB      11              0.0000000000
      1305        11  POPE      H16R            2.5422727762       10.0427073207        4.1891088503  MEMB      11              0.0000000000
      1306        11  POPE      H16S            3.4336054081       11.5158875344        4.5120075839  MEMB      11              0.0000000000
      1307        11  POPE      C217            1.6888410945       11.8859370743        3.3260696036  MEMB      11              0.0000000000
      1308        11  POPE      H17R            1.7479813917       12.9791738252        3.5149001600  MEMB      11              0.0000000000
      1309        11  POPE      H17S            0.6046389180       11.6635286914        3.2293169046  MEMB      11              0.0000000000
      1310        11  POPE      C218            2.1545860381       11.6079381982        1.9266325514  MEMB      11              0.0000000000
      1311        11  POPE      H18R            1.7270901656       12.2044169550        1.0924979988  MEMB      11              0.0000000000
      1312        11  POPE      H18S            2.1412987699       10.5214488373        1.6949324627  MEMB      11              0.0000000000
      1313        11  POPE      H18T            3.2378399689       11.6782035790        1.6901065069  MEMB      11              0.0000000000
      1314        11  POPE      C33            -2.0371472971       15.4884862175       14.5275307180  MEMB      11              0.0000000000
      1315        11  POPE      H3X            -1.4842463915       15.0020677272       15.3594075518  MEMB      11              0.0000000000
      1316        11  POPE      H3Y            -2.9325909614       15.7107640857       15.1464768292  MEMB      11              0.0000000000
      1317        11  POPE      C34            -1.4523376355       16.7908519223       14.1418726969  MEMB      11              0.0000000000
      1318        11  POPE      H4X            -0.4092287086       16.5594704818       13.8373937481  MEMB      11              0.0000000000
      1319        11  POPE      H4Y            -1.4954432349       17.4866765505       15.0069111514  MEMB      11              0.0000000000
      1320        11  POPE      C35            -2.2199153623       17.3994369494       12.9681133450  MEMB      11              0.0000000000
      1321        11  POPE      H5X            -3.2593836154       17.6459968403       13.2731304084  MEMB      11              0.0000000000
      1322        11  POPE      H5Y            -2.3102664493       16.7524312366       12.0694801801  MEMB      11              0.0000000000
      1323        11  POPE      C36            -1.5870383774       18.6981704067       12.4171785147  MEMB      11              0.0000000000
      1324        11  POPE      H6X            -1.3539752968       19.3599183494       13.2786262829  MEMB      11              0.0000000000
      1325        11  POPE      H6Y            -2.3506437083       19.2171738397       11.7992272020  MEMB      11              0.0000000000
      1326        11  POPE      C37            -0.3681653380       18.5869550527       11.4740813042  MEMB      11              0.0000000000
      1327        11  POPE      H7X            -0.6438376561       17.8485175389       10.6911154576  MEMB      11              0.0000000000
      1328        11  POPE      H7Y             0.5119386923       18.2078072747       12.0362065164  MEMB      11              0.0000000000
      1329        11  POPE      C38             0.0757501603       19.8899441387       10.8289433526  MEMB      11              0.0000000000
      1330        11  POPE      H8X             0.1605076437       20.6125257229       11.6685940941  MEMB      11              0.0000000000
      1331        11  POPE      H8Y            -0.8008835533       20.2139931626       10.2282551296  MEMB      11              0.0000000000
      1332        11  POPE      C39             1.4135293754       19.9182182727       10.1006570136  MEMB      11              0.0000000000
      1333        11  POPE      H9X             2.2041084261       20.0077667473       10.8760842377  MEMB      11              0.0000000000
      1334        11  POPE      H9Y             1.5369713973       20.8480124102        9.5052034128  MEMB      11              0.0000000000
      1335        11  POPE      C310            1.7333365426       18.8416624410        9.1019377287  MEMB      11              0.0000000000
      1336        11  POPE      H10X            1.2617610928       17.9132672524        9.4892615846  MEMB      11              0.0000000000
      1337        11  POPE      H10Y            2.8232967370       18.6334171314        9.0477020091  MEMB      11              0.0000000000
      1338        11  POPE      C311            1.2034127692       18.9715857460        7.6796422789  MEMB      11              0.0000000000
      1339        11  POPE      H11X            1.8127514247       19.6624073341        7.0585200201  MEMB      11              0.0000000000
      1340        11  POPE      H11Y            0.1421487881       19.2961018078        7.6274006451  MEMB      11              0.0000000000
      1341        11  POPE      C312            1.1258789666       17.6062044256        7.0550551773  MEMB      11              0.0000000000
      1342        11  POPE      H12X            0.3361810956       17.0632597779        7.6171134453  MEMB      11              0.0000000000
      1343        11  POPE      H12Y            2.1800638713       17.2693166618        7.1526343637  MEMB      11              0.0000000000
      1344        11  POPE      C313            0.7497955274       17.7103951860        5.5156492160  MEMB      11              0.0000000000
      1345        11  POPE      H13X            1.6199257223       18.2559773094        5.0919337196  MEMB      11              0.0000000000
      1346        11  POPE      H13Y           -0.1624440408       18.3250571023        5.3596651612  MEMB      11              0.0000000000
      1347        11  POPE      C314            0.6416697590       16.3512692245        4.7524683315  MEMB      11              0.0000000000
      1348        11  POPE      H14X           -0.3906502156       15.9636106535        4.8879572928  MEMB      11              0.0000000000
      1349        11  POPE      H14Y            1.3040676536       15.6564389397        5.3117186716  MEMB      11              0.0000000000
      1350        11  POPE      C315            1.0483647282       16.2042069327        3.2613045995  MEMB      11              0.0000000000
      1351        11  POPE      H15X            0.5269305925       15.2614229182        2.9900381317  MEMB      11              0.0000000000
      1352        11  POPE      H15Y            2.1473619456       16.0413940429        3.2570495082  MEMB      11              0.0000000000
      1353        11  POPE      C316            0.5964707349       17.2859111545        2.3160474169  MEMB      11              0.0000000000
      1354        11  POPE      H16X            1.0060910510       17.0523070031        1.3100834697  MEMB      11              0.0000000000
      1355        11  POPE      H16Y            1.0914357541       18.2100071488        2.6839837995  MEMB      11              0.0000000000
      1356        11  POPE      H16Z           -0.4983683024       17.4743832741        2.3047881137  MEMB      11              0.0000000000
      1357        12  PYPG      C13            -4.5466237750       12.8395133181       20.0554110786  MEMB      12              0.0000000000
      1358        12  PYPG      H13A           -3.8565109948       11.9759635884       19.9442936508  MEMB      12              0.0000000000
      1359        12  PYPG      H13B           -4.2758376538       13.3699425947       20.9933026067  MEMB      12              0.0000000000
      1360        12  PYPG      OC3            -5.8274484216       12.3943470043       20.5328508190  MEMB      12              0.0000000000
      1361        12  PYPG      HO3            -6.4840615929       12.8679305962       20.0169266721  MEMB      12              0.0000000000
      1362        12  PYPG      C12            -4.4954295489       13.5759918016       18.6522256290  MEMB      12              0.0000000000
      1363        12  PYPG      H12A           -4.8722492829       12.8578223804       17.8873605361  MEMB      12              0.0000000000
      1364        12  PYPG      OC2            -3.1465100888       13.9069742885       18.3191974418  MEMB      12              0.0000000000
      1365        12  PYPG      HO2            -3.2476159017       14.4670073544       17.5186617338  MEMB      12              0.0000000000
      1366        12  PYPG      C11            -5.3959323304       14.8446517879       18.6101206709  MEMB      12              0.0000000000
      1367        12  PYPG      H11A           -5.3559241210       15.1840493542       17.5529878880  MEMB      12              0.0000000000
      1368        12  PYPG      H11B           -4.9876605357       15.6753023501       19.2246568695  MEMB      12              0.0000000000
      1369        12  PYPG      P              -7.9381840523       15.5171077737       18.8208236653  MEMB      12              0.0000000000
      1370        12  PYPG      O13            -8.1389541518       16.3086567829       20.0447546332  MEMB      12              0.0000000000
      1371        12  PYPG      O14            -9.1146453287       14.8555555031       18.2890520233  MEMB      12              0.0000000000
      1372        12  PYPG      O11            -7.3850543333       16.4693872699       17.6984884757  MEMB      12              0.0000000000
      1373        12  PYPG      O12            -6.7049106435       14.4817784462       18.9770755865  MEMB      12              0.0000000000
      1374        12  PYPG      C1             -7.9837550484       17.7206023204       17.4923594221  MEMB      12              0.0000000000
      1375        12  PYPG      HA             -7.5508575264       18.5231152672       18.1270985045  MEMB      12              0.0000000000
      1376        12  PYPG      HB             -9.0347280693       17.7857928479       17.8466570237  MEMB      12              0.0000000000
      1377        12  PYPG      C2             -7.8543889576       18.0159868189       16.0262021490  MEMB      12              0.0000000000
      1378        12  PYPG      HS             -8.4406247682       18.9347549461       15.8105315366  MEMB      12              0.0000000000
      1379        12  PYPG      O21            -8.2311260210       16.8875957297       15.1690397174  MEMB      12              0.0000000000
      1380        12  PYPG      C21            -9.5431448370       16.8198839427       15.0625197864  MEMB      12              0.0000000000
      1381        12  PYPG      O22           -10.4136548713       17.3892984563       15.7232344880  MEMB      12              0.0000000000
      1382        12  PYPG      C22            -9.9726413764       15.8145179144       13.9781691070  MEMB      12              0.0000000000
      1383        12  PYPG      H2R            -9.6979661835       16.1553588147       12.9570411885  MEMB      12              0.0000000000
      1384        12  PYPG      H2S           -11.0813196917       15.8470150732       14.0421826350  MEMB      12              0.0000000000
      1385        12  PYPG      C3             -6.4683099164       18.4697400097       15.6631335609  MEMB      12              0.0000000000
      1386        12  PYPG      HX             -6.2882644132       19.4646006120       16.1237383932  MEMB      12              0.0000000000
      1387        12  PYPG      HY             -6.3440236529       18.6553364734       14.5748191111  MEMB      12              0.0000000000
      1388        12  PYPG      O31            -5.4307277706       17.4900799140       16.0985852528  MEMB      12              0.0000000000
      1389        12  PYPG      C31            -4.1647968860       17.8215421535       15.9267311799  MEMB      12              0.0000000000
      1390        12  PYPG      O32            -3.7615296697       18.9346312693       15.5841913051  MEMB      12              0.0000000000
      1391        12  PYPG      C32            -3.2883431956       16.5174376825       16.0509581281  MEMB      12              0.0000000000
      1392        12  PYPG      H2X            -2.2782264620       16.7364489409       15.6435038548  MEMB      12              0.0000000000
      1393        12  PYPG      H2Y            -3.2149561284       16.3527547599       17.1472313028  MEMB      12              0.0000000000
      1394        12  PYPG      C23            -9.5169309950       14.3851305922       14.2293278771  MEMB      12              0.0000000000
      1395        12  PYPG      H3R            -9.2703782461       14.3262377010       15.3110230952  MEMB      12              0.0000000000
      1396        12  PYPG      H3S            -8.6030660940       14.3026605636       13.6029326369  MEMB      12              0.0000000000
      1397        12  PYPG      C24           -10.5166865930       13.2257543922       13.9328174549  MEMB      12              0.0000000000
      1398        12  PYPG      H4R           -10.9110696141       13.5383758794       12.9423371930  MEMB      12              0.0000000000
      1399        12  PYPG      H4S           -11.2911577488       13.2459958759       14.7291247270  MEMB      12              0.0000000000
      1400        12  PYPG      C25           -10.0769884880       11.7242643114       13.8435473144  MEMB      12              0.0000000000
      1401        12  PYPG      H5R           -10.9664945409       11.0752490066       13.6956326234  MEMB      12              0.0000000000
      1402        12  PYPG      H5S            -9.6665364848       11.4687107801       14.8438183624  MEMB      12              0.0000000000
      1403        12  PYPG      C26            -9.0722713511       11.4623658970       12.7392734859  MEMB      12              0.0000000000
      1404        12  PYPG      H6R            -8.7402032106       10.4100125220       12.8681298661  MEMB      12              0.0000000000
      1405        12  PYPG      H6S            -8.1550219184       12.0886705881       12.7660486277  MEMB      12              0.0000000000
      1406        12  PYPG      C27            -9.7210793187       11.4635109118       11.3607497524  MEMB      12              0.0000000000
      1407        12  PYPG      H7R           -10.3911968155       12.3462475994       11.2830357065  MEMB      12              0.0000000000
      1408        12  PYPG      H7S           -10.4912025987       10.6661370819       11.2870927145  MEMB      12              0.0000000000
      1409        12  PYPG      C28            -8.8702029468       11.4496902822       10.1063925610  MEMB      12              0.0000000000
      1410        12  PYPG      H8R            -8.1686314654       12.3110338179       10.1207394542  MEMB      12              0.0000000000
      1411        12  PYPG      H8S            -9.5656537120       11.6417670843        9.2615403392  MEMB      12              0.0000000000
      1412        12  PYPG      C29            -8.1324603918       10.1402104179        9.8186205800  MEMB      12              0.0000000000
      1413        12  PYPG      H9R            -7.3089747642        9.9517939946       10.5231565157  MEMB      12              0.0000000000
      1414        12  PYPG      C210           -8.3606511297        9.2317925892        8.8112149037  MEMB      12              0.0000000000
      1415        12  PYPG      H10R           -7.7215631822        8.3388507054        8.7462416597  MEMB      12              0.0000000000
      1416        12  PYPG      C211           -9.4777952601        9.3310060541        7.8036088408  MEMB      12              0.0000000000
      1417        12  PYPG      H11R          -10.4784695964        9.5794384267        8.2174361669  MEMB      12              0.0000000000
      1418        12  PYPG      H11S           -9.4883858507        8.2620231418        7.5011442650  MEMB      12              0.0000000000
      1419        12  PYPG      C212           -9.2370824768       10.2595778251        6.6053965018  MEMB      12              0.0000000000
      1420        12  PYPG      H12R           -8.7750062578       11.1782660255        7.0258940800  MEMB      12              0.0000000000
      1421        12  PYPG      H12S          -10.2699784705       10.3971502299        6.2200134772  MEMB      12              0.0000000000
      1422        12  PYPG      C213           -8.2890761660        9.7592431949        5.6077469034  MEMB      12              0.0000000000
      1423        12  PYPG      H13R           -8.5888240432        8.8152180001        5.1044687234  MEMB      12              0.0000000000
      1424        12  PYPG      H13S           -7.3627495923        9.5180057106        6.1717015726  MEMB      12              0.0000000000
      1425        12  PYPG      C214           -7.8912906645       10.7674902363        4.5023613728  MEMB      12              0.0000000000
      1426        12  PYPG      H14R           -7.8767157383       11.8100523496        4.8859930166  MEMB      12              0.0000000000
      1427        12  PYPG      H14S           -6.9047779486       10.4821766910        4.0784398435  MEMB      12              0.0000000000
      1428        12  PYPG      C215           -8.9563610894       10.7575929584        3.3716693527  MEMB      12              0.0000000000
      1429        12  PYPG      H15R           -9.2080821006       11.8351009619        3.2719983547  MEMB      12              0.0000000000
      1430        12  PYPG      H15S           -9.9278632581       10.2935963545        3.6459175697  MEMB      12              0.0000000000
      1431        12  PYPG      C216           -8.3725323220       10.3703692477        2.0233028498  MEMB      12              0.0000000000
      1432        12  PYPG      H16R           -8.0118820180        9.3218621859        2.0931958938  MEMB      12              0.0000000000
      1433        12  PYPG      H16S           -7.5091711518       11.0023363559        1.7240612209  MEMB      12              0.0000000000
      1434        12  PYPG      H16T           -9.0915479400       10.4233286544        1.1780039162  MEMB      12              0.0000000000
      1435        12  PYPG      C33            -3.7680634306       15.3100303830       15.2758525555  MEMB      12              0.0000000000
      1436        12  PYPG      H3X            -4.8155736609       15.0341430687       15.5226918102  MEMB      12              0.0000000000
      1437        12  PYPG      H3Y            -3.1531909995       14.4139770746       15.5068097337  MEMB      12              0.0000000000
      1438        12  PYPG      C34            -3.5955149410       15.5525433628       13.7068457885  MEMB      12              0.0000000000
      1439        12  PYPG      H4X            -2.5416000259       15.7549940966       13.4194474147  MEMB      12              0.0000000000
      1440        12  PYPG      H4Y            -4.1213897056       16.5033237255       13.4749116721  MEMB      12              0.0000000000
      1441        12  PYPG      C35            -4.1155361398       14.3431453125       12.9285924717  MEMB      12              0.0000000000
      1442        12  PYPG      H5X            -5.1955172233       14.2583017865       13.1750945806  MEMB      12              0.0000000000
      1443        12  PYPG      H5Y            -3.4564633269       13.4752368398       13.1446455191  MEMB      12              0.0000000000
      1444        12  PYPG      C36            -4.1786039568       14.8255874535       11.4000681111  MEMB      12              0.0000000000
      1445        12  PYPG      H6X            -3.2069825497       14.9297751930       10.8714676098  MEMB      12              0.0000000000
      1446        12  PYPG      H6Y            -4.7531168534       15.7757733452       11.3626151057  MEMB      12              0.0000000000
      1447        12  PYPG      C37            -4.9457834806       13.8093583850       10.4874981562  MEMB      12              0.0000000000
      1448        12  PYPG      H7X            -4.3066997649       12.9080082528       10.6035208532  MEMB      12              0.0000000000
      1449        12  PYPG      H7Y            -5.9767411548       13.6394270678       10.8650834936  MEMB      12              0.0000000000
      1450        12  PYPG      C38            -4.9115782680       13.9991281701        8.8916035941  MEMB      12              0.0000000000
      1451        12  PYPG      H8X            -5.2254162400       13.0284825753        8.4515197187  MEMB      12              0.0000000000
      1452        12  PYPG      H8Y            -3.8766472127       14.3263954706        8.6546761171  MEMB      12              0.0000000000
      1453        12  PYPG      C39            -5.9519388200       15.0805422782        8.3403822365  MEMB      12              0.0000000000
      1454        12  PYPG      H9X            -5.4464889871       16.0698484052        8.3296610972  MEMB      12              0.0000000000
      1455        12  PYPG      H9Y            -6.7729715977       15.0704150270        9.0887960062  MEMB      12              0.0000000000
      1456        12  PYPG      C310           -6.3124212443       14.8534173693        6.8941008567  MEMB      12              0.0000000000
      1457        12  PYPG      H10X           -7.2405997293       15.3235196243        6.5044737104  MEMB      12              0.0000000000
      1458        12  PYPG      H10Y           -6.4408336647       13.7555368925        6.7823445151  MEMB      12              0.0000000000
      1459        12  PYPG      C311           -5.1980404376       15.3784430204        5.9496091536  MEMB      12              0.0000000000
      1460        12  PYPG      H11X           -4.2500963350       15.1642535954        6.4879824014  MEMB      12              0.0000000000
      1461        12  PYPG      H11Y           -5.3782955173       16.4653526457        5.8065839283  MEMB      12              0.0000000000
      1462        12  PYPG      C312           -5.2280180017       14.7636541004        4.5845538735  MEMB      12              0.0000000000
      1463        12  PYPG      H12X           -5.0791799902       13.6770160698        4.7617146022  MEMB      12              0.0000000000
      1464        12  PYPG      H12Y           -6.2221736048       14.8660435787        4.0992788782  MEMB      12              0.0000000000
      1465        12  PYPG      C313           -4.2239918379       15.3094755359        3.6064951876  MEMB      12              0.0000000000
      1466        12  PYPG      H13X           -4.4860777478       16.3328886801        3.2626096673  MEMB      12              0.0000000000
      1467        12  PYPG      H13Y           -3.2482317096       15.3688123497        4.1344084923  MEMB      12              0.0000000000
      1468        12  PYPG      C314           -3.9280475848       14.4758088053        2.4274668740  MEMB      12              0.0000000000
      1469        12  PYPG      H14X           -3.5854592705       13.5213087579        2.8812106550  MEMB      12              0.0000000000
      1470        12  PYPG      H14Y           -4.8177050564       14.4294416919        1.7636283858  MEMB      12              0.0000000000
      1471        12  PYPG      C315           -2.7910348225       14.9054215006        1.5177729057  MEMB      12              0.0000000000
      1472        12  PYPG      H15X           -2.7633276814       14.1871702634        0.6706198601  MEMB      12              0.0000000000
      1473        12  PYPG      H15Y           -3.1632282214       15.8306247375        1.0280875861  MEMB      12              0.0000000000
      1474        12  PYPG      C316           -1.3719013479       15.0518090977        2.0527166314  MEMB      12              0.0000000000
      1475        12  PYPG      H16X           -0.8388854325       14.0851263193        2.1781746100  MEMB      12              0.0000000000
      1476        12  PYPG      H16Y           -1.3514260381       15.6109566802        3.0125368794  MEMB      12              0.0000000000
      1477        12  PYPG      H16Z           -0.7703401153       15.6122343455        1.3054759610  MEMB      12              0.0000000000
      1478        13  PMPG      C13            -1.7829024161      -17.1202620453       17.1311482482  MEMB      13              0.0000000000
      1479        13  PMPG      H13A           -1.3858074531      -16.0850089509       17.2010602806  MEMB      13              0.0000000000
      1480        13  PMPG      H13B           -1.0064435687      -17.6924804682       17.6825089990  MEMB      13              0.0000000000
      1481        13  PMPG      OC3            -1.8687378945      -17.4853444687       15.7614088756  MEMB      13              0.0000000000
      1482        13  PMPG      HO3            -1.4682758801      -16.7579124235       15.2796697739  MEMB      13              0.0000000000
      1483        13  PMPG      C12            -3.1554231634      -17.0434131078       17.7811621966  MEMB      13              0.0000000000
      1484        13  PMPG      H12A           -3.4276074763      -18.0754250391       18.1031033608  MEMB      13              0.0000000000
      1485        13  PMPG      OC2            -4.1270593644      -16.6081229557       16.8290663682  MEMB      13              0.0000000000
      1486        13  PMPG      HO2            -4.9277204910      -16.4656402044       17.3798451495  MEMB      13              0.0000000000
      1487        13  PMPG      C11            -3.2094188580      -16.1417769924       19.0291360717  MEMB      13              0.0000000000
      1488        13  PMPG      H11A           -2.7280403684      -15.1949943660       18.7032550342  MEMB      13              0.0000000000
      1489        13  PMPG      H11B           -2.6334444438      -16.6448764530       19.8350302265  MEMB      13              0.0000000000
      1490        13  PMPG      P              -4.7284855928      -15.0404664115       20.8141308672  MEMB      13              0.0000000000
      1491        13  PMPG      O13            -3.3922220692      -14.4709042546       21.1972546182  MEMB      13              0.0000000000
      1492        13  PMPG      O14            -5.4943033574      -15.8575142498       21.7459334521  MEMB      13              0.0000000000
      1493        13  PMPG      O11            -5.5416920063      -13.7911912709       20.3039568108  MEMB      13              0.0000000000
      1494        13  PMPG      O12            -4.5595641084      -15.8758552319       19.4068024791  MEMB      13              0.0000000000
      1495        13  PMPG      C1             -5.2350587688      -13.1375804050       19.0487214847  MEMB      13              0.0000000000
      1496        13  PMPG      HA             -4.2017755493      -13.3741138983       18.7160072648  MEMB      13              0.0000000000
      1497        13  PMPG      HB             -5.3079418713      -12.0330891008       19.1441570630  MEMB      13              0.0000000000
      1498        13  PMPG      C2             -6.2277102657      -13.4934006436       17.8881944970  MEMB      13              0.0000000000
      1499        13  PMPG      HS             -7.1700862876      -12.9727486029       18.1623657600  MEMB      13              0.0000000000
      1500        13  PMPG      O21            -6.4529285824      -14.9502862855       17.8868488379  MEMB      13              0.0000000000
      1501        13  PMPG      C21            -7.3862960660      -15.3169103293       17.0640377916  MEMB      13              0.0000000000
      1502        13  PMPG      O22            -8.1034527650      -14.6524606201       16.4032287429  MEMB      13              0.0000000000
      1503        13  PMPG      C22            -7.4739970085      -16.8379498038       17.1315882315  MEMB      13              0.0000000000
      1504        13  PMPG      H2R            -8.1151822829      -17.0951389824       18.0016778532  MEMB      13              0.0000000000
      1505        13  PMPG      H2S            -6.4479287073      -17.1620758222       17.4080792416  MEMB      13              0.0000000000
      1506        13  PMPG      C3             -5.7733363962      -13.0182738438       16.4995784098  MEMB      13              0.0000000000
      1507        13  PMPG      HX             -5.2953001807      -12.0280338297       16.6584093081  MEMB      13              0.0000000000
      1508        13  PMPG      HY             -6.5863169022      -12.8715981135       15.7566988934  MEMB      13              0.0000000000
      1509        13  PMPG      O31            -4.7124295297      -13.8366342465       15.9639699117  MEMB      13              0.0000000000
      1510        13  PMPG      C31            -3.8778310920      -13.2403910882       15.0723051767  MEMB      13              0.0000000000
      1511        13  PMPG      O32            -3.9442680956      -12.0996829349       14.6371889714  MEMB      13              0.0000000000
      1512        13  PMPG      C32            -2.8447302003      -14.2830668936       14.5897900845  MEMB      13              0.0000000000
      1513        13  PMPG      H2X            -2.6227296884      -14.9334449142       15.4627420808  MEMB      13              0.0000000000
      1514        13  PMPG      H2Y            -1.9073705433      -13.7107397546       14.4221008349  MEMB      13              0.0000000000
      1515        13  PMPG      C23            -7.9474254047      -17.4187580425       15.7588853175  MEMB      13              0.0000000000
      1516        13  PMPG      H3R            -9.0170239822      -17.1601568730       15.6058952748  MEMB      13              0.0000000000
      1517        13  PMPG      H3S            -7.7912394685      -18.5005347125       15.9580993944  MEMB      13              0.0000000000
      1518        13  PMPG      C24            -7.0819643060      -17.0598139319       14.5637200495  MEMB      13              0.0000000000
      1519        13  PMPG      H4R            -6.0115017435      -16.9260313385       14.8293005340  MEMB      13              0.0000000000
      1520        13  PMPG      H4S            -7.4836167653      -16.0436513875       14.3626976606  MEMB      13              0.0000000000
      1521        13  PMPG      C25            -7.2917389892      -17.9515220695       13.3608568578  MEMB      13              0.0000000000
      1522        13  PMPG      H5R            -7.0654905273      -17.3803524289       12.4351689998  MEMB      13              0.0000000000
      1523        13  PMPG      H5S            -8.3717081773      -18.1999863381       13.2817812898  MEMB      13              0.0000000000
      1524        13  PMPG      C26            -6.2848784458      -19.1479263808       13.2168429930  MEMB      13              0.0000000000
      1525        13  PMPG      H6R            -6.6470268186      -19.9926620326       12.5926703134  MEMB      13              0.0000000000
      1526        13  PMPG      H6S            -5.8693240444      -19.4603876765       14.1986794812  MEMB      13              0.0000000000
      1527        13  PMPG      C27            -5.0117149519      -18.8178595136       12.3863919714  MEMB      13              0.0000000000
      1528        13  PMPG      H7R            -4.5802911948      -17.9152911766       12.8696774583  MEMB      13              0.0000000000
      1529        13  PMPG      H7S            -5.2975559709      -18.6137130556       11.3323808214  MEMB      13              0.0000000000
      1530        13  PMPG      C28            -3.9613109610      -19.9465461716       12.4940597496  MEMB      13              0.0000000000
      1531        13  PMPG      H8R            -4.5364434180      -20.8152074052       12.1080914480  MEMB      13              0.0000000000
      1532        13  PMPG      H8S            -3.7003552655      -20.0247085379       13.5711452113  MEMB      13              0.0000000000
      1533        13  PMPG      C29            -2.6811233316      -19.6013490200       11.7974063025  MEMB      13              0.0000000000
      1534        13  PMPG      H9R            -1.9872910880      -18.9757951370       12.3987382202  MEMB      13              0.0000000000
      1535        13  PMPG      C217           -2.0798346880      -20.5389587228       10.7779274728  MEMB      13              0.0000000000
      1536        13  PMPG      H17R           -1.0039622844      -20.6622159949       10.7919115234  MEMB      13              0.0000000000
      1537        13  PMPG      H17S           -2.6968018548      -21.4132024114       10.6107799515  MEMB      13              0.0000000000
      1538        13  PMPG      C210           -2.6035297245      -19.2695952928       10.3044657254  MEMB      13              0.0000000000
      1539        13  PMPG      H10R           -1.7610941242      -18.5863592569       10.0640253785  MEMB      13              0.0000000000
      1540        13  PMPG      C211           -3.8367644711      -19.3506959109        9.3522974384  MEMB      13              0.0000000000
      1541        13  PMPG      H11R           -4.5269516246      -20.1647920876        9.6608591768  MEMB      13              0.0000000000
      1542        13  PMPG      H11S           -4.2874689368      -18.3375712854        9.2832680208  MEMB      13              0.0000000000
      1543        13  PMPG      C212           -3.4063677581      -19.7493443375        7.9314760296  MEMB      13              0.0000000000
      1544        13  PMPG      H12R           -2.9540859142      -20.7574309297        7.8151851459  MEMB      13              0.0000000000
      1545        13  PMPG      H12S           -2.5401287231      -19.1436339368        7.5893272084  MEMB      13              0.0000000000
      1546        13  PMPG      C213           -4.5621405209      -19.4902414097        6.9203696110  MEMB      13              0.0000000000
      1547        13  PMPG      H13R           -4.5956647867      -18.3860461230        7.0384793366  MEMB      13              0.0000000000
      1548        13  PMPG      H13S           -5.5949626020      -19.8642115910        7.0869414751  MEMB      13              0.0000000000
      1549        13  PMPG      C214           -4.2505876376      -19.7818879747        5.4846506095  MEMB      13              0.0000000000
      1550        13  PMPG      H14R           -5.1314360099      -19.6022277103        4.8318499879  MEMB      13              0.0000000000
      1551        13  PMPG      H14S           -4.2330947603      -20.8893181195        5.5719068540  MEMB      13              0.0000000000
      1552        13  PMPG      C215           -2.9464119204      -19.1312511528        4.8671927148  MEMB      13              0.0000000000
      1553        13  PMPG      H15R           -2.0874035461      -19.3657325486        5.5316052424  MEMB      13              0.0000000000
      1554        13  PMPG      H15S           -2.9659140321      -18.0214781003        4.9156120168  MEMB      13              0.0000000000
      1555        13  PMPG      C216           -2.7664886000      -19.5301716909        3.4199714777  MEMB      13              0.0000000000
      1556        13  PMPG      H16R           -1.7180047126      -19.3233012405        3.1163156765  MEMB      13              0.0000000000
      1557        13  PMPG      H16S           -3.4805755343      -19.1266782504        2.6705756077  MEMB      13              0.0000000000
      1558        13  PMPG      H16T           -2.9421666576      -20.6245968996        3.3445325708  MEMB      13              0.0000000000
      1559        13  PMPG      C33            -3.3660365010      -15.2333737340       13.5392856793  MEMB      13              0.0000000000
      1560        13  PMPG      H3X            -4.0378033575      -15.9647608586       14.0374054315  MEMB      13              0.0000000000
      1561        13  PMPG      H3Y            -2.4697584201      -15.7725112988       13.1646693456  MEMB      13              0.0000000000
      1562        13  PMPG      C34            -4.1902935414      -14.6377100951       12.3545738159  MEMB      13              0.0000000000
      1563        13  PMPG      H4X            -3.5324989459      -13.8131367447       12.0057099687  MEMB      13              0.0000000000
      1564        13  PMPG      H4Y            -5.2043325897      -14.3027306921       12.6608987851  MEMB      13              0.0000000000
      1565        13  PMPG      C35            -4.4321555402      -15.5215423747       11.1689603111  MEMB      13              0.0000000000
      1566        13  PMPG      H5X            -5.3805245716      -16.0724413675       11.3462386967  MEMB      13              0.0000000000
      1567        13  PMPG      H5Y            -3.6070558573      -16.1912823078       10.8449537070  MEMB      13              0.0000000000
      1568        13  PMPG      C36            -4.7449170025      -14.6158226395        9.9259437468  MEMB      13              0.0000000000
      1569        13  PMPG      H6X            -3.8231796503      -14.0431470680        9.6876922134  MEMB      13              0.0000000000
      1570        13  PMPG      H6Y            -5.5715035901      -13.9153055012       10.1716093554  MEMB      13              0.0000000000
      1571        13  PMPG      C37            -4.9970064689      -15.3511119958        8.6519859757  MEMB      13              0.0000000000
      1572        13  PMPG      H7X            -5.7510413297      -16.1327314185        8.8861295930  MEMB      13              0.0000000000
      1573        13  PMPG      H7Y            -4.0510676537      -15.8178249900        8.3031307396  MEMB      13              0.0000000000
      1574        13  PMPG      C38            -5.4034555098      -14.4470913064        7.4831283854  MEMB      13              0.0000000000
      1575        13  PMPG      H8X            -4.9931297167      -13.4619792029        7.7921715165  MEMB      13              0.0000000000
      1576        13  PMPG      H8Y            -6.5090669793      -14.4281474611        7.5907636528  MEMB      13              0.0000000000
      1577        13  PMPG      C39            -5.0077935137      -14.8422543115        5.9906840007  MEMB      13              0.0000000000
      1578        13  PMPG      H9X            -5.2875065879      -15.9036266472        5.8187254078  MEMB      13              0.0000000000
      1579        13  PMPG      H9Y            -3.8981996956      -14.8173323599        5.9406700692  MEMB      13              0.0000000000
      1580        13  PMPG      C310           -5.8297527401      -14.0034178575        4.9556102349  MEMB      13              0.0000000000
      1581        13  PMPG      H10X           -5.3942309372      -12.9863013473        5.0561851849  MEMB      13              0.0000000000
      1582        13  PMPG      H10Y           -6.9255700181      -14.0414881268        5.1346526015  MEMB      13              0.0000000000
      1583        13  PMPG      C311           -5.5646403797      -14.4732637918        3.5325625070  MEMB      13              0.0000000000
      1584        13  PMPG      H11X           -6.0293952800      -13.8556128136        2.7345445497  MEMB      13              0.0000000000
      1585        13  PMPG      H11Y           -5.9647921660      -15.4941711162        3.3538216582  MEMB      13              0.0000000000
      1586        13  PMPG      C312           -4.1221787188      -14.1544727431        3.1133429468  MEMB      13              0.0000000000
      1587        13  PMPG      H12X           -3.4087787984      -14.9556077185        3.4024176327  MEMB      13              0.0000000000
      1588        13  PMPG      H12Y           -3.7583442559      -13.2128153809        3.5772675513  MEMB      13              0.0000000000
      1589        13  PMPG      C313           -3.8505018213      -13.9780035450        1.5845978185  MEMB      13              0.0000000000
      1590        13  PMPG      H13X           -2.7862975590      -13.6777662754        1.4766723697  MEMB      13              0.0000000000
      1591        13  PMPG      H13Y           -4.4452341496      -13.1287706836        1.1853251756  MEMB      13              0.0000000000
      1592        13  PMPG      C314           -4.2275259470      -15.1767154540        0.6993668358  MEMB      13              0.0000000000
      1593        13  PMPG      H14X           -3.8616753685      -14.9182208387       -0.3173211195  MEMB      13              0.0000000000
      1594        13  PMPG      H14Y           -5.3199710824      -15.3668517415        0.6305730112  MEMB      13              0.0000000000
      1595        13  PMPG      C315           -3.6918982675      -16.5782034751        1.0996094247  MEMB      13              0.0000000000
      1596        13  PMPG      H15X           -4.2661498146      -17.2830800417        0.4610929746  MEMB      13              0.0000000000
      1597        13  PMPG      H15Y           -4.0097769128      -16.7412182490        2.1516089604  MEMB      13              0.0000000000
      1598        13  PMPG      C316           -2.2213116589      -16.7284644618        1.0105958927  MEMB      13              0.0000000000
      1599        13  PMPG      H16X           -1.6488543865      -15.9648417230        1.5793627935  MEMB      13              0.0000000000
      1600        13  PMPG      H16Y           -1.8207557852      -16.8772186953       -0.0149516907  MEMB      13              0.0000000000
      1601        13  PMPG      H16Z           -1.9291741177      -17.6299382742        1.5905287136  MEMB      13              0.0000000000
      1602        14  PMPE      N               6.4749229411      -17.4896786803       19.3509214120  MEMB      14              0.0000000000
      1603        14  PMPE      HN1             6.8441878854      -18.3738619687       19.7552269169  MEMB      14              0.0000000000
      1604        14  PMPE      HN2             5.6232306874      -17.6266660925       18.7700128887  MEMB      14              0.0000000000
      1605        14  PMPE      HN3             7.1779915457      -16.9498311330       18.8069918169  MEMB      14              0.0000000000
      1606        14  PMPE      C12             6.2328529355      -16.6601029726       20.5644515486  MEMB      14              0.0000000000
      1607        14  PMPE      H12A            7.1886459498      -16.3384366838       21.0306182505  MEMB      14              0.0000000000
      1608        14  PMPE      H12B            5.7547349835      -17.4325310875       21.2040443409  MEMB      14              0.0000000000
      1609        14  PMPE      C11             5.1628676876      -15.5632818730       20.3788052677  MEMB      14              0.0000000000
      1610        14  PMPE      H11A            5.6045208540      -14.6874222638       19.8571410680  MEMB      14              0.0000000000
      1611        14  PMPE      H11B            4.7687918753      -15.1238635340       21.3200473728  MEMB      14              0.0000000000
      1612        14  PMPE      P               3.5501062204      -15.5148416362       18.2844458238  MEMB      14              0.0000000000
      1613        14  PMPE      O13             2.9788135899      -14.2110836597       18.5618061410  MEMB      14              0.0000000000
      1614        14  PMPE      O14             2.7242244205      -16.4670899388       17.5012497139  MEMB      14              0.0000000000
      1615        14  PMPE      O11             4.9777733690      -15.4389190970       17.5946290817  MEMB      14              0.0000000000
      1616        14  PMPE      O12             3.9195033991      -16.0654189444       19.7636910109  MEMB      14              0.0000000000
      1617        14  PMPE      C1              4.9810175788      -14.6985720355       16.3670702410  MEMB      14              0.0000000000
      1618        14  PMPE      HA              5.7461572402      -13.8935501925       16.3957440801  MEMB      14              0.0000000000
      1619        14  PMPE      HB              4.1787607149      -13.9429298814       16.2266785797  MEMB      14              0.0000000000
      1620        14  PMPE      C2              5.1331509734      -15.5643173804       15.0995356054  MEMB      14              0.0000000000
      1621        14  PMPE      HS              5.5575003787      -14.9744124756       14.2591423134  MEMB      14              0.0000000000
      1622        14  PMPE      O21             3.8769525476      -16.1652759946       14.6066377327  MEMB      14              0.0000000000
      1623        14  PMPE      C21             3.1290641095      -15.5649638277       13.6414556301  MEMB      14              0.0000000000
      1624        14  PMPE      O22             3.2511937094      -14.4899024616       13.2436209546  MEMB      14              0.0000000000
      1625        14  PMPE      C22             2.3417786608      -16.7171762754       12.9196198685  MEMB      14              0.0000000000
      1626        14  PMPE      H2R             1.7204215316      -17.2854845815       13.6443694985  MEMB      14              0.0000000000
      1627        14  PMPE      H2S             3.0455259455      -17.4468554087       12.4650550356  MEMB      14              0.0000000000
      1628        14  PMPE      C3              6.0843369215      -16.8053823746       15.4202248886  MEMB      14              0.0000000000
      1629        14  PMPE      HX              5.5477746517      -17.5965576469       15.9863199022  MEMB      14              0.0000000000
      1630        14  PMPE      HY              6.9465080431      -16.4448930770       16.0210819705  MEMB      14              0.0000000000
      1631        14  PMPE      O31             6.5707691882      -17.4072275976       14.2428669758  MEMB      14              0.0000000000
      1632        14  PMPE      C31             7.4761333830      -16.8043656394       13.4749649351  MEMB      14              0.0000000000
      1633        14  PMPE      O32             7.9950881520      -15.7590437132       13.6262345484  MEMB      14              0.0000000000
      1634        14  PMPE      C32             7.6993727716      -17.8105656640       12.2810147043  MEMB      14              0.0000000000
      1635        14  PMPE      H2X             6.6962706020      -18.0099659947       11.8470254232  MEMB      14              0.0000000000
      1636        14  PMPE      H2Y             8.0055178694      -18.8179507949       12.6356570024  MEMB      14              0.0000000000
      1637        14  PMPE      C23             1.5579125521      -16.0368927710       11.7966149858  MEMB      14              0.0000000000
      1638        14  PMPE      H3R             2.2863921718      -15.5152033571       11.1397449194  MEMB      14              0.0000000000
      1639        14  PMPE      H3S             0.6854685016      -15.3935425965       12.0400546339  MEMB      14              0.0000000000
      1640        14  PMPE      C24             0.9999773460      -17.1234108464       10.8080366191  MEMB      14              0.0000000000
      1641        14  PMPE      H4R             0.1628603381      -16.6078475962       10.2905899091  MEMB      14              0.0000000000
      1642        14  PMPE      H4S             0.6254642047      -17.8997254776       11.5090335722  MEMB      14              0.0000000000
      1643        14  PMPE      C25             1.9908485851      -17.7746331953        9.7677984822  MEMB      14              0.0000000000
      1644        14  PMPE      H5R             1.3928098925      -18.5635264222        9.2634982044  MEMB      14              0.0000000000
      1645        14  PMPE      H5S             2.7178823129      -18.3920229094       10.3375110197  MEMB      14              0.0000000000
      1646        14  PMPE      C26             2.5915258331      -16.7573992976        8.8127972805  MEMB      14              0.0000000000
      1647        14  PMPE      H6R             3.2303296989      -17.3237001121        8.1017736254  MEMB      14              0.0000000000
      1648        14  PMPE      H6S             3.2814086450      -16.0003936089        9.2432909944  MEMB      14              0.0000000000
      1649        14  PMPE      C27             1.5269099926      -16.0549577757        7.9259667151  MEMB      14              0.0000000000
      1650        14  PMPE      H7R             1.1767743483      -15.1885509032        8.5268541167  MEMB      14              0.0000000000
      1651        14  PMPE      H7S             0.6502208051      -16.7230593274        7.7867660528  MEMB      14              0.0000000000
      1652        14  PMPE      C28             1.9614397832      -15.6096964280        6.5246374811  MEMB      14              0.0000000000
      1653        14  PMPE      H8R             1.1935158195      -14.9267573870        6.1024905321  MEMB      14              0.0000000000
      1654        14  PMPE      H8S             2.0641473748      -16.4757959630        5.8364194942  MEMB      14              0.0000000000
      1655        14  PMPE      C29             3.2864594881      -14.8806085305        6.5759853586  MEMB      14              0.0000000000
      1656        14  PMPE      H9R             4.1792370841      -15.4251300989        6.9511728037  MEMB      14              0.0000000000
      1657        14  PMPE      C217            3.1762348754      -13.4472209605        7.1798262285  MEMB      14              0.0000000000
      1658        14  PMPE      H17R            4.0029318450      -13.0999482665        7.7871670467  MEMB      14              0.0000000000
      1659        14  PMPE      H17S            2.1401864680      -13.1746496403        7.3385634254  MEMB      14              0.0000000000
      1660        14  PMPE      C210            3.5813966721      -13.7193074700        5.6984285635  MEMB      14              0.0000000000
      1661        14  PMPE      H10R            4.6663463685      -13.5257048420        5.5579905657  MEMB      14              0.0000000000
      1662        14  PMPE      C211            2.6779227123      -13.1958319092        4.5180803058  MEMB      14              0.0000000000
      1663        14  PMPE      H11R            2.8062691806      -12.0987401692        4.3987576856  MEMB      14              0.0000000000
      1664        14  PMPE      H11S            1.5958250807      -13.3398591253        4.7245793416  MEMB      14              0.0000000000
      1665        14  PMPE      C212            2.9394334941      -13.8011976346        3.1541550108  MEMB      14              0.0000000000
      1666        14  PMPE      H12R            2.1798066341      -13.4838834107        2.4080995933  MEMB      14              0.0000000000
      1667        14  PMPE      H12S            2.8916380781      -14.8781180818        3.4230027852  MEMB      14              0.0000000000
      1668        14  PMPE      C213            4.3208226746      -13.5088504874        2.4693593549  MEMB      14              0.0000000000
      1669        14  PMPE      H13R            5.1681585674      -13.6881757523        3.1651930155  MEMB      14              0.0000000000
      1670        14  PMPE      H13S            4.3669579460      -12.4452160368        2.1517509843  MEMB      14              0.0000000000
      1671        14  PMPE      C214            4.6468572429      -14.4775896751        1.3066756449  MEMB      14              0.0000000000
      1672        14  PMPE      H14R            4.3405218491      -15.4788491267        1.6781050038  MEMB      14              0.0000000000
      1673        14  PMPE      H14S            5.7459165213      -14.4898825785        1.1446915862  MEMB      14              0.0000000000
      1674        14  PMPE      C215            4.0737352830      -14.1865855126       -0.0904355026  MEMB      14              0.0000000000
      1675        14  PMPE      H15R            4.3790507647      -15.0333314632       -0.7416844057  MEMB      14              0.0000000000
      1676        14  PMPE      H15S            4.6222266991      -13.2930516081       -0.4579616253  MEMB      14              0.0000000000
      1677        14  PMPE      C216            2.5530339676      -13.9819738933       -0.2066551630  MEMB      14              0.0000000000
      1678        14  PMPE      H16R            2.0741894495      -14.8112002863        0.3567387910  MEMB      14              0.0000000000
      1679        14  PMPE      H16S            2.2463820454      -13.0241925514        0.2655092157  MEMB      14              0.0000000000
      1680        14  PMPE      H16T            2.1633718551      -13.9665866591       -1.2469663459  MEMB      14              0.0000000000
      1681        14  PMPE      C33             8.7072971052      -17.2349427709       11.1999857355  MEMB      14              0.0000000000
      1682        14  PMPE      H3X             9.0596268544      -18.1146675989       10.6200990125  MEMB      14              0.0000000000
      1683        14  PMPE      H3Y             9.5733450667      -16.7562782244       11.7051220565  MEMB      14              0.0000000000
      1684        14  PMPE      C34             7.9780811548      -16.2197472925       10.2163186407  MEMB      14              0.0000000000
      1685        14  PMPE      H4X             8.6960464339      -15.5865573968        9.6524767007  MEMB      14              0.0000000000
      1686        14  PMPE      H4Y             7.3416152599      -15.5073206653       10.7834874534  MEMB      14              0.0000000000
      1687        14  PMPE      C35             7.1160905508      -16.9417635937        9.0673618123  MEMB      14              0.0000000000
      1688        14  PMPE      H5X             6.3985788009      -16.1735048370        8.7078113175  MEMB      14              0.0000000000
      1689        14  PMPE      H5Y             6.5548232187      -17.6620718623        9.7001776048  MEMB      14              0.0000000000
      1690        14  PMPE      C36             7.9223813800      -17.4382075075        7.8584757333  MEMB      14              0.0000000000
      1691        14  PMPE      H6X             8.7491198682      -18.0348012846        8.2999501735  MEMB      14              0.0000000000
      1692        14  PMPE      H6Y             8.3594426908      -16.5469140965        7.3595819622  MEMB      14              0.0000000000
      1693        14  PMPE      C37             7.2040262726      -18.3653190387        6.8503347074  MEMB      14              0.0000000000
      1694        14  PMPE      H7X             6.9080912050      -19.2099906527        7.5085695027  MEMB      14              0.0000000000
      1695        14  PMPE      H7Y             7.9582540581      -18.7354133194        6.1233603353  MEMB      14              0.0000000000
      1696        14  PMPE      C38             6.0271062105      -17.6512579060        6.0613180663  MEMB      14              0.0000000000
      1697        14  PMPE      H8X             6.3511017929      -17.2478028198        5.0781740754  MEMB      14              0.0000000000
      1698        14  PMPE      H8Y             5.6743403996      -16.7310757664        6.5742913180  MEMB      14              0.0000000000
      1699        14  PMPE      C39             4.7348739405      -18.3950416735        5.7275935317  MEMB      14              0.0000000000
      1700        14  PMPE      H9X             4.0540984523      -17.5577992120        5.4632251777  MEMB      14              0.0000000000
      1701        14  PMPE      H9Y             4.2982591644      -18.9066527767        6.6118689937  MEMB      14              0.0000000000
      1702        14  PMPE      C310            4.8389174073      -19.3341289861        4.5174702421  MEMB      14              0.0000000000
      1703        14  PMPE      H10X            5.3265745076      -20.3023285386        4.7605779779  MEMB      14              0.0000000000
      1704        14  PMPE      H10Y            5.4859863857      -18.7691300445        3.8129144854  MEMB      14              0.0000000000
      1705        14  PMPE      C311            3.5448615370      -19.6232804603        3.7299967893  MEMB      14              0.0000000000
      1706        14  PMPE      H11X            2.9144634799      -20.3498899822        4.2858367431  MEMB      14              0.0000000000
      1707        14  PMPE      H11Y            3.7020001829      -20.2810909447        2.8485703186  MEMB      14              0.0000000000
      1708        14  PMPE      C312            2.7484028163      -18.3845791582        3.3406517296  MEMB      14              0.0000000000
      1709        14  PMPE      H12X            3.6550673692      -17.7962495753        3.0834583068  MEMB      14              0.0000000000
      1710        14  PMPE      H12Y            2.2105426324      -17.9788627807        4.2240671530  MEMB      14              0.0000000000
      1711        14  PMPE      C313            1.9092542648      -18.5979616212        2.1058198599  MEMB      14              0.0000000000
      1712        14  PMPE      H13X            1.1503954943      -19.3350916420        2.4450740986  MEMB      14              0.0000000000
      1713        14  PMPE      H13Y            2.6440026163      -18.9937919065        1.3724823781  MEMB      14              0.0000000000
      1714        14  PMPE      C314            1.0115064535      -17.4120476588        1.6106470341  MEMB      14              0.0000000000
      1715        14  PMPE      H14X            1.6835196316      -16.5393978151        1.4650391937  MEMB      14              0.0000000000
      1716        14  PMPE      H14Y            0.4181454242      -17.1389783456        2.5093566569  MEMB      14              0.0000000000
      1717        14  PMPE      C315            0.0043348514      -17.7177527554        0.5664056299  MEMB      14              0.0000000000
      1718        14  PMPE      H15X           -0.6789292070      -18.4009965449        1.1147204415  MEMB      14              0.0000000000
      1719        14  PMPE      H15Y            0.4342537596      -18.2091197661       -0.3325087081  MEMB      14              0.0000000000
      1720        14  PMPE      C316           -1.0084691765      -16.7323798299        0.0812882676  MEMB      14              0.0000000000
      1721        14  PMPE      H16X           -1.6683067136      -16.3741841489        0.9002095560  MEMB      14              0.0000000000
      1722        14  PMPE      H16Y           -1.6026304511      -17.1020780498       -0.7816231939  MEMB      14              0.0000000000
      1723        14  PMPE      H16Z           -0.3572230541      -15.9468309463       -0.3581571182  MEMB      14              0.0000000000
      1724        15  POPE      N              14.9275823811        9.2408279540       21.9948291396  MEMB      15              0.0000000000
      1725        15  POPE      HN1            14.1275544528        9.2022977320       21.3314508530  MEMB      15              0.0000000000
      1726        15  POPE      HN2            15.0810835235        8.4076246701       22.5979955187  MEMB      15              0.0000000000
      1727        15  POPE      HN3            14.9508771189       10.1531255174       22.4935983799  MEMB      15              0.0000000000
      1728        15  POPE      C12            16.0765530025        9.4103499357       20.9708251416  MEMB      15              0.0000000000
      1729        15  POPE      H12A           16.9970781020        9.4963449534       21.5869092031  MEMB      15              0.0000000000
      1730        15  POPE      H12B           15.8703399498       10.2919601902       20.3269613716  MEMB      15              0.0000000000
      1731        15  POPE      C11            16.0497415578        8.2339650023       20.0794510289  MEMB      15              0.0000000000
      1732        15  POPE      H11A           16.1619976422        7.2368258261       20.5563503810  MEMB      15              0.0000000000
      1733        15  POPE      H11B           16.9263712549        8.3250501081       19.4030304439  MEMB      15              0.0000000000
      1734        15  POPE      P              14.7688820024        7.9888847560       17.7685367674  MEMB      15              0.0000000000
      1735        15  POPE      O13            13.3110685417        7.7428581826       17.4014097549  MEMB      15              0.0000000000
      1736        15  POPE      O14            15.6896218115        6.9172397950       17.3121908639  MEMB      15              0.0000000000
      1737        15  POPE      O11            15.1312423758        9.4053947123       17.1067363971  MEMB      15              0.0000000000
      1738        15  POPE      O12            14.8733811264        8.1946339061       19.3660209052  MEMB      15              0.0000000000
      1739        15  POPE      C1             14.3403337176       10.5151225802       17.3273301837  MEMB      15              0.0000000000
      1740        15  POPE      HA             13.9769004216       10.6739575095       18.3651204555  MEMB      15              0.0000000000
      1741        15  POPE      HB             13.4026609794       10.4344395365       16.7369225769  MEMB      15              0.0000000000
      1742        15  POPE      C2             14.9344355995       11.8650566244       16.7650027660  MEMB      15              0.0000000000
      1743        15  POPE      HS             14.2718460917       12.7098755053       17.0506193166  MEMB      15              0.0000000000
      1744        15  POPE      O21            15.3093543233       11.7523632201       15.3702631500  MEMB      15              0.0000000000
      1745        15  POPE      C21            14.4917757740       12.2477004039       14.4311706950  MEMB      15              0.0000000000
      1746        15  POPE      O22            13.5445068525       12.9241062954       14.6179378267  MEMB      15              0.0000000000
      1747        15  POPE      C22            15.1493268675       11.9292913859       13.1084686769  MEMB      15              0.0000000000
      1748        15  POPE      H2R            15.2582582474       10.8283147040       13.0069540146  MEMB      15              0.0000000000
      1749        15  POPE      H2S            16.1439347993       12.4131212934       13.0036600420  MEMB      15              0.0000000000
      1750        15  POPE      C3             16.2365523064       12.2049562416       17.6090627090  MEMB      15              0.0000000000
      1751        15  POPE      HX             15.9266961976       12.3569447793       18.6650975846  MEMB      15              0.0000000000
      1752        15  POPE      HY             16.6052715603       13.2198986423       17.3477979670  MEMB      15              0.0000000000
      1753        15  POPE      O31            17.1842470852       11.0976389535       17.7157658712  MEMB      15              0.0000000000
      1754        15  POPE      C31            18.0426955782       11.1388937359       16.7713222071  MEMB      15              0.0000000000
      1755        15  POPE      O32            18.2370384235       12.0224161215       15.9393219069  MEMB      15              0.0000000000
      1756        15  POPE      C32            18.9714116354        9.9289365929       16.8861559671  MEMB      15              0.0000000000
      1757        15  POPE      H2X            18.4471884509        9.0995594121       17.4073511039  MEMB      15              0.0000000000
      1758        15  POPE      H2Y            19.8323808953       10.2680891021       17.5009960873  MEMB      15              0.0000000000
      1759        15  POPE      C23            14.4025158697       12.5964184368       11.9344172514  MEMB      15              0.0000000000
      1760        15  POPE      H3R            15.0991929825       12.4249893556       11.0861399218  MEMB      15              0.0000000000
      1761        15  POPE      H3S            14.2563166831       13.6742970503       12.1605239967  MEMB      15              0.0000000000
      1762        15  POPE      C24            13.1430944090       11.9063023058       11.5374549944  MEMB      15              0.0000000000
      1763        15  POPE      H4R            12.2748132163       12.3015435139       12.1068341819  MEMB      15              0.0000000000
      1764        15  POPE      H4S            13.2420514934       10.8229740009       11.7631288438  MEMB      15              0.0000000000
      1765        15  POPE      C25            12.9133404796       11.9917335821       10.0102557029  MEMB      15              0.0000000000
      1766        15  POPE      H5R            13.3743524746       11.0607125469        9.6165693983  MEMB      15              0.0000000000
      1767        15  POPE      H5S            13.4128543643       12.9046507852        9.6211683183  MEMB      15              0.0000000000
      1768        15  POPE      C26            11.4067668839       12.0250800343        9.5726704669  MEMB      15              0.0000000000
      1769        15  POPE      H6R            10.8667231756       12.8690670638       10.0526287295  MEMB      15              0.0000000000
      1770        15  POPE      H6S            10.9157596041       11.0795111122        9.8875233710  MEMB      15              0.0000000000
      1771        15  POPE      C27            11.1283171098       12.0833545102        8.1059904266  MEMB      15              0.0000000000
      1772        15  POPE      H7R            11.5925029600       12.9571053505        7.6006072589  MEMB      15              0.0000000000
      1773        15  POPE      H7S            10.0301393928       12.2110968903        7.9964062396  MEMB      15              0.0000000000
      1774        15  POPE      C28            11.6955318559       10.9641402380        7.2545257556  MEMB      15              0.0000000000
      1775        15  POPE      H8R            12.7547483022       10.8451354787        7.5679261480  MEMB      15              0.0000000000
      1776        15  POPE      H8S            11.6716101937       11.3799297130        6.2245412014  MEMB      15              0.0000000000
      1777        15  POPE      C29            11.0406701677        9.6187200782        7.4246566514  MEMB      15              0.0000000000
      1778        15  POPE      H91            10.7947570175        9.4269456043        8.4795265771  MEMB      15              0.0000000000
      1779        15  POPE      C210           10.8559041065        8.6510782980        6.5333935218  MEMB      15              0.0000000000
      1780        15  POPE      H101           10.3605147132        7.6840072285        6.7047483452  MEMB      15              0.0000000000
      1781        15  POPE      C211           11.3404623713        8.8573140222        5.1426488162  MEMB      15              0.0000000000
      1782        15  POPE      H11R           11.2717159011        9.9080908360        4.7884415460  MEMB      15              0.0000000000
      1783        15  POPE      H11S           10.5816941339        8.3640571358        4.4982200118  MEMB      15              0.0000000000
      1784        15  POPE      C212           12.7574299373        8.3112562097        4.8709237283  MEMB      15              0.0000000000
      1785        15  POPE      H12R           12.6681275647        7.2111426479        4.9977943387  MEMB      15              0.0000000000
      1786        15  POPE      H12S           13.3337585639        8.8521043853        5.6517242571  MEMB      15              0.0000000000
      1787        15  POPE      C213           13.3599245788        8.6580293511        3.5090050063  MEMB      15              0.0000000000
      1788        15  POPE      H13R           14.4566875331        8.4808469849        3.5152075311  MEMB      15              0.0000000000
      1789        15  POPE      H13S           13.1695207635        9.7454855953        3.3844813258  MEMB      15              0.0000000000
      1790        15  POPE      C214           12.8530807332        7.9362657861        2.2522458440  MEMB      15              0.0000000000
      1791        15  POPE      H14R           11.8142952724        7.5478472439        2.3184065386  MEMB      15              0.0000000000
      1792        15  POPE      H14S           13.3675332434        6.9521577641        2.2177334113  MEMB      15              0.0000000000
      1793        15  POPE      C215           13.0269144819        8.6650899434        0.9203147726  MEMB      15              0.0000000000
      1794        15  POPE      H15R           14.0383935829        9.1245171795        0.9328826896  MEMB      15              0.0000000000
      1795        15  POPE      H15S           12.3836101081        9.5704851157        0.9475184922  MEMB      15              0.0000000000
      1796        15  POPE      C216           12.7953742317        7.7863339400       -0.4015423010  MEMB      15              0.0000000000
      1797        15  POPE      H16R           11.8011236372        7.2998357947       -0.3061184461  MEMB      15              0.0000000000
      1798        15  POPE      H16S           13.5644717186        6.9865992857       -0.4584149416  MEMB      15              0.0000000000
      1799        15  POPE      C217           12.7118437548        8.6175481617       -1.6936067664  MEMB      15              0.0000000000
      1800        15  POPE      H17R           11.8762032691        9.3456035657       -1.6163978767  MEMB      15              0.0000000000
      1801        15  POPE      H17S           12.6021383514        7.9337701836       -2.5623614532  MEMB      15              0.0000000000
      1802        15  POPE      C218           13.9281089407        9.4879051551       -2.1218912552  MEMB      15              0.0000000000
      1803        15  POPE      H18R           13.7947954788        9.8316336533       -3.1699362272  MEMB      15              0.0000000000
      1804        15  POPE      H18S           14.8886952164        8.9297661775       -2.1131815792  MEMB      15              0.0000000000
      1805        15  POPE      H18T           14.0222328057       10.3027378768       -1.3725531331  MEMB      15              0.0000000000
      1806        15  POPE      C33            19.3636895998        9.4758662916       15.4177277618  MEMB      15              0.0000000000
      1807        15  POPE      H3X            19.9256264051        8.5211395354       15.5016638742  MEMB      15              0.0000000000
      1808        15  POPE      H3Y            19.8952733616       10.2518619339       14.8264833240  MEMB      15              0.0000000000
      1809        15  POPE      C34            18.1490340939        9.0254305706       14.6768238704  MEMB      15              0.0000000000
      1810        15  POPE      H4X            17.5434994433        9.9228171571       14.4271319675  MEMB      15              0.0000000000
      1811        15  POPE      H4Y            17.6570209510        8.2596203117       15.3138316868  MEMB      15              0.0000000000
      1812        15  POPE      C35            18.4403852420        8.4163771731       13.2955191254  MEMB      15              0.0000000000
      1813        15  POPE      H5X            18.2405681103        7.3524841425       13.5455704259  MEMB      15              0.0000000000
      1814        15  POPE      H5Y            19.5133890292        8.6363894818       13.1095661994  MEMB      15              0.0000000000
      1815        15  POPE      C36            17.7447613681        8.9852879116       11.9845883596  MEMB      15              0.0000000000
      1816        15  POPE      H6X            18.0179947228       10.0487216889       11.8149617691  MEMB      15              0.0000000000
      1817        15  POPE      H6Y            16.6491594027        8.8976671501       12.1467610876  MEMB      15              0.0000000000
      1818        15  POPE      C37            18.2394983224        8.1194462421       10.7789311996  MEMB      15              0.0000000000
      1819        15  POPE      H7X            18.2042975087        7.0861450056       11.1855897718  MEMB      15              0.0000000000
      1820        15  POPE      H7Y            19.3052520048        8.4310478783       10.7415892710  MEMB      15              0.0000000000
      1821        15  POPE      C38            17.5601148843        8.5075414710        9.4630482855  MEMB      15              0.0000000000
      1822        15  POPE      H8X            18.2657695661        8.1588606931        8.6789599549  MEMB      15              0.0000000000
      1823        15  POPE      H8Y            17.4926251602        9.6144467307        9.5303319524  MEMB      15              0.0000000000
      1824        15  POPE      C39            16.1495001855        7.9775918261        9.0381780345  MEMB      15              0.0000000000
      1825        15  POPE      H9X            15.4207775646        8.6501230829        9.5391631053  MEMB      15              0.0000000000
      1826        15  POPE      H9Y            15.9403380863        6.9755263642        9.4699622116  MEMB      15              0.0000000000
      1827        15  POPE      C310           16.0756801059        7.9690386640        7.5354564737  MEMB      15              0.0000000000
      1828        15  POPE      H10X           16.2244564681        9.0212488265        7.2113567888  MEMB      15              0.0000000000
      1829        15  POPE      H10Y           15.0191478082        7.6855677365        7.3412785773  MEMB      15              0.0000000000
      1830        15  POPE      C311           16.9126355825        6.9592710789        6.7475307784  MEMB      15              0.0000000000
      1831        15  POPE      H11X           16.7776739163        5.9354543487        7.1572939316  MEMB      15              0.0000000000
      1832        15  POPE      H11Y           17.9828993252        7.2460094571        6.8290016999  MEMB      15              0.0000000000
      1833        15  POPE      C312           16.5946224475        6.9587967422        5.2527650240  MEMB      15              0.0000000000
      1834        15  POPE      H12X           16.9542187061        7.9137502669        4.8133615882  MEMB      15              0.0000000000
      1835        15  POPE      H12Y           15.5112530270        6.7328634973        5.1548584939  MEMB      15              0.0000000000
      1836        15  POPE      C313           17.5645249688        5.9495919877        4.5948116704  MEMB      15              0.0000000000
      1837        15  POPE      H13X           17.0936736585        4.9553257625        4.7499094002  MEMB      15              0.0000000000
      1838        15  POPE      H13Y           18.5202659465        5.9793968041        5.1604901883  MEMB      15              0.0000000000
      1839        15  POPE      C314           17.8224533277        6.3067197196        3.1166564144  MEMB      15              0.0000000000
      1840        15  POPE      H14X           18.5864323256        5.6395947218        2.6632228831  MEMB      15              0.0000000000
      1841        15  POPE      H14Y           18.0060306889        7.4023887908        3.1052669741  MEMB      15              0.0000000000
      1842        15  POPE      C315           16.6511077462        6.0846896408        2.1214306540  MEMB      15              0.0000000000
      1843        15  POPE      H15X           15.7735075986        6.4096396458        2.7202191224  MEMB      15              0.0000000000
      1844        15  POPE      H15Y           16.5865333372        5.0216545810        1.8050341668  MEMB      15              0.0000000000
      1845        15  POPE      C316           16.7714856498        6.6824346745        0.6594651457  MEMB      15              0.0000000000
      1846        15  POPE      H16X           15.8870344393        6.3363871307        0.0829944881  MEMB      15              0.0000000000
      1847        15  POPE      H16Y           17.7311766573        6.3747411856        0.1918766894  MEMB      15              0.0000000000
      1848        15  POPE      H16Z           16.7167721404        7.7832132639        0.7995142926  MEMB      15              0.0000000000
      1849        16  PMPE      N              10.9024842103       17.4268751437       20.4072647069  MEMB      16              0.0000000000
      1850        16  PMPE      HN1            11.4503437264       17.8806357785       19.6486138250  MEMB      16              0.0000000000
      1851        16  PMPE      HN2             9.9114821002       17.3498398255       20.1013559651  MEMB      16              0.0000000000
      1852        16  PMPE      HN3            10.9877596234       18.1295349424       21.1692341339  MEMB      16              0.0000000000
      1853        16  PMPE      C12            11.5965824253       16.1699048845       20.7791559019  MEMB      16              0.0000000000
      1854        16  PMPE      H12A           10.9466877227       15.7342212639       21.5679128657  MEMB      16              0.0000000000
      1855        16  PMPE      H12B           12.6084263631       16.4695320991       21.1265984280  MEMB      16              0.0000000000
      1856        16  PMPE      C11            11.6711179122       15.1519577056       19.6272926474  MEMB      16              0.0000000000
      1857        16  PMPE      H11A           12.4287246703       14.4174172632       19.9748602219  MEMB      16              0.0000000000
      1858        16  PMPE      H11B           12.0343637451       15.6347042736       18.6949144159  MEMB      16              0.0000000000
      1859        16  PMPE      P               9.4489731539       14.5512307566       18.2253032147  MEMB      16              0.0000000000
      1860        16  PMPE      O13             9.7607956296       15.7856236811       17.5617397727  MEMB      16              0.0000000000
      1861        16  PMPE      O14             8.0508703746       14.1984468657       18.6003578341  MEMB      16              0.0000000000
      1862        16  PMPE      O11            10.1444075068       13.4133898517       17.2772046060  MEMB      16              0.0000000000
      1863        16  PMPE      O12            10.3879591970       14.5264638890       19.5216813162  MEMB      16              0.0000000000
      1864        16  PMPE      C1             10.8168886168       12.3139594601       17.7776730968  MEMB      16              0.0000000000
      1865        16  PMPE      HA             10.3352701009       11.9291293670       18.7019405185  MEMB      16              0.0000000000
      1866        16  PMPE      HB             11.8435585626       12.5595901719       18.1239898636  MEMB      16              0.0000000000
      1867        16  PMPE      C2             10.9618294642       11.2063527859       16.7195879504  MEMB      16              0.0000000000
      1868        16  PMPE      HS             11.7116832755       10.4013181585       16.8743747719  MEMB      16              0.0000000000
      1869        16  PMPE      O21            11.3051821278       11.7177772331       15.4320968112  MEMB      16              0.0000000000
      1870        16  PMPE      C21            11.8031501845       10.9057244875       14.4961251920  MEMB      16              0.0000000000
      1871        16  PMPE      O22            12.0284563615        9.6879021319       14.6234608469  MEMB      16              0.0000000000
      1872        16  PMPE      C22            11.9064920855       11.6869533234       13.1543699198  MEMB      16              0.0000000000
      1873        16  PMPE      H2R            12.9512105693       11.8086781313       12.7965045026  MEMB      16              0.0000000000
      1874        16  PMPE      H2S            11.3585358312       12.6422125166       13.3011502703  MEMB      16              0.0000000000
      1875        16  PMPE      C3              9.5600536838       10.4562636059       16.6371165787  MEMB      16              0.0000000000
      1876        16  PMPE      HX              9.2998828547       10.1154637890       17.6620493565  MEMB      16              0.0000000000
      1877        16  PMPE      HY              9.7814870279        9.5627275376       16.0151183536  MEMB      16              0.0000000000
      1878        16  PMPE      O31             8.6122255394       11.4402827377       16.1827569188  MEMB      16              0.0000000000
      1879        16  PMPE      C31             8.0187701778       11.2647969729       14.9922147241  MEMB      16              0.0000000000
      1880        16  PMPE      O32             8.0442588416       10.2706142700       14.3229634804  MEMB      16              0.0000000000
      1881        16  PMPE      C32             7.4091173462       12.5829261883       14.5290168872  MEMB      16              0.0000000000
      1882        16  PMPE      H2X             7.6821461279       13.3431136897       15.2918351495  MEMB      16              0.0000000000
      1883        16  PMPE      H2Y             6.3043947808       12.4986216862       14.4465416455  MEMB      16              0.0000000000
      1884        16  PMPE      C23            11.1048315809       10.9905329397       12.1121872813  MEMB      16              0.0000000000
      1885        16  PMPE      H3R            10.0175516606       11.2064692707       12.0379242222  MEMB      16              0.0000000000
      1886        16  PMPE      H3S            11.1956787563        9.8833532679       12.0973167030  MEMB      16              0.0000000000
      1887        16  PMPE      C24            11.6231260544       11.4065623949       10.6934300039  MEMB      16              0.0000000000
      1888        16  PMPE      H4R            10.8748378866       10.9709141288        9.9973009084  MEMB      16              0.0000000000
      1889        16  PMPE      H4S            12.5569801310       10.8352667984       10.5040643584  MEMB      16              0.0000000000
      1890        16  PMPE      C25            11.7914880884       12.8977404207       10.4366864480  MEMB      16              0.0000000000
      1891        16  PMPE      H5R            12.6157704513       13.3075975753       11.0586962586  MEMB      16              0.0000000000
      1892        16  PMPE      H5S            10.8240109288       13.3610036606       10.7259882532  MEMB      16              0.0000000000
      1893        16  PMPE      C26            12.0017487262       13.1064420353        8.8403696650  MEMB      16              0.0000000000
      1894        16  PMPE      H6R            11.7546663425       14.1476012334        8.5416077258  MEMB      16              0.0000000000
      1895        16  PMPE      H6S            11.2812011591       12.3916940108        8.3884099493  MEMB      16              0.0000000000
      1896        16  PMPE      C27            13.4287525355       12.6416886980        8.3482981586  MEMB      16              0.0000000000
      1897        16  PMPE      H7R            13.5119639032       11.5338543825        8.3383038805  MEMB      16              0.0000000000
      1898        16  PMPE      H7S            14.1446973702       13.1858877983        9.0006714528  MEMB      16              0.0000000000
      1899        16  PMPE      C28            13.7768399591       13.0402995595        6.8678438239  MEMB      16              0.0000000000
      1900        16  PMPE      H8R            14.8320902998       12.8321848378        6.5895347269  MEMB      16              0.0000000000
      1901        16  PMPE      H8S            13.6671815633       14.1458003487        6.8806631840  MEMB      16              0.0000000000
      1902        16  PMPE      C29            12.8289298133       12.3296339283        5.9253583386  MEMB      16              0.0000000000
      1903        16  PMPE      H9R            11.7483193978       12.3178819405        6.1831644827  MEMB      16              0.0000000000
      1904        16  PMPE      C217           13.3060750396       11.0445288823        5.2614489168  MEMB      16              0.0000000000
      1905        16  PMPE      H17R           12.5486123627       10.2801656073        5.1394323468  MEMB      16              0.0000000000
      1906        16  PMPE      H17S           14.3865189355       10.9783417338        5.2275474272  MEMB      16              0.0000000000
      1907        16  PMPE      C210           12.9763843880       12.2912334390        4.3955046147  MEMB      16              0.0000000000
      1908        16  PMPE      H10R           12.0394927226       12.1092422593        3.8267921852  MEMB      16              0.0000000000
      1909        16  PMPE      C211           14.1559541569       12.9972565454        3.6609316584  MEMB      16              0.0000000000
      1910        16  PMPE      H11R           14.3591859562       12.4310956633        2.7268656037  MEMB      16              0.0000000000
      1911        16  PMPE      H11S           15.0067092799       13.0298764608        4.3747050759  MEMB      16              0.0000000000
      1912        16  PMPE      C212           13.7742627072       14.4585339203        3.4360658077  MEMB      16              0.0000000000
      1913        16  PMPE      H12R           13.5807691910       14.9851068717        4.3950254940  MEMB      16              0.0000000000
      1914        16  PMPE      H12S           12.7901749641       14.5108102077        2.9230752517  MEMB      16              0.0000000000
      1915        16  PMPE      C213           14.7822708281       15.3622577895        2.6662657600  MEMB      16              0.0000000000
      1916        16  PMPE      H13R           15.6833601577       15.7102937272        3.2151092783  MEMB      16              0.0000000000
      1917        16  PMPE      H13S           14.1116475773       16.2141582312        2.4236731669  MEMB      16              0.0000000000
      1918        16  PMPE      C214           15.2889277418       14.7342338205        1.3380136764  MEMB      16              0.0000000000
      1919        16  PMPE      H14R           14.5064425765       14.7289144751        0.5493368882  MEMB      16              0.0000000000
      1920        16  PMPE      H14S           15.6262081426       13.7098368065        1.6047978682  MEMB      16              0.0000000000
      1921        16  PMPE      C215           16.4963812789       15.5421933695        0.8478482683  MEMB      16              0.0000000000
      1922        16  PMPE      H15R           16.8078124615       15.0198787253       -0.0819456281  MEMB      16              0.0000000000
      1923        16  PMPE      H15S           17.2344383570       15.5254497593        1.6780967596  MEMB      16              0.0000000000
      1924        16  PMPE      C216           16.3748274777       17.0043023840        0.4102494297  MEMB      16              0.0000000000
      1925        16  PMPE      H16R           17.3660168718       17.5047112340        0.3720970801  MEMB      16              0.0000000000
      1926        16  PMPE      H16S           15.8601052892       17.0552575201       -0.5730026350  MEMB      16              0.0000000000
      1927        16  PMPE      H16T           15.9132188388       17.5356263337        1.2698617829  MEMB      16              0.0000000000
      1928        16  PMPE      C33             7.9524159276       13.0013207332       13.1921099326  MEMB      16              0.0000000000
      1929        16  PMPE      H3X             7.7066912888       12.2847753669       12.3793960292  MEMB      16              0.0000000000
      1930        16  PMPE      H3Y             9.0609032282       13.0759363846       13.1951743304  MEMB      16              0.0000000000
      1931        16  PMPE      C34             7.3092770023       14.3328834116       12.6857255771  MEMB      16              0.0000000000
      1932        16  PMPE      H4X             7.4928205725       15.0373036485       13.5250256461  MEMB      16              0.0000000000
      1933        16  PMPE      H4Y             6.2216514421       14.2673175069       12.4687162676  MEMB      16              0.0000000000
      1934        16  PMPE      C35             7.9091018581       14.9760706972       11.4760976331  MEMB      16              0.0000000000
      1935        16  PMPE      H5X             9.0194194718       14.9839401186       11.5142273729  MEMB      16              0.0000000000
      1936        16  PMPE      H5Y             7.5098336478       16.0067456749       11.3637814174  MEMB      16              0.0000000000
      1937        16  PMPE      C36             7.3623991032       14.3284580345       10.1563131078  MEMB      16              0.0000000000
      1938        16  PMPE      H6X             6.2633811624       14.4269909453       10.2858174291  MEMB      16              0.0000000000
      1939        16  PMPE      H6Y             7.5527043209       13.2355607463       10.0956467158  MEMB      16              0.0000000000
      1940        16  PMPE      C37             8.0024460605       14.9184262719        8.8149232473  MEMB      16              0.0000000000
      1941        16  PMPE      H7X             9.1050042107       14.7854335499        8.8465394939  MEMB      16              0.0000000000
      1942        16  PMPE      H7Y             7.7235994851       15.9813221708        8.9786842686  MEMB      16              0.0000000000
      1943        16  PMPE      C38             7.4520143846       14.2051885571        7.5260095139  MEMB      16              0.0000000000
      1944        16  PMPE      H8X             6.3952805682       14.5305428757        7.4174782265  MEMB      16              0.0000000000
      1945        16  PMPE      H8Y             7.5514722557       13.1009739966        7.5977013440  MEMB      16              0.0000000000
      1946        16  PMPE      C39             8.1243520116       14.7505245816        6.2750767906  MEMB      16              0.0000000000
      1947        16  PMPE      H9X             9.2074091434       14.5050355937        6.2427744621  MEMB      16              0.0000000000
      1948        16  PMPE      H9Y             7.9897580430       15.8516629126        6.3359030161  MEMB      16              0.0000000000
      1949        16  PMPE      C310            7.5360404817       14.1644454147        4.9696581922  MEMB      16              0.0000000000
      1950        16  PMPE      H10X            6.4529779066       14.3915683687        4.8711120472  MEMB      16              0.0000000000
      1951        16  PMPE      H10Y            7.6972440812       13.0671239987        5.0346187095  MEMB      16              0.0000000000
      1952        16  PMPE      C311            8.0721695126       14.7908940364        3.6648351037  MEMB      16              0.0000000000
      1953        16  PMPE      H11X            7.7257877028       15.8464933833        3.6577052112  MEMB      16              0.0000000000
      1954        16  PMPE      H11Y            7.5260897061       14.3635600534        2.7967897669  MEMB      16              0.0000000000
      1955        16  PMPE      C312            9.5630662986       14.6761084811        3.4586388429  MEMB      16              0.0000000000
      1956        16  PMPE      H12X            9.7945659823       13.6078435016        3.6574819435  MEMB      16              0.0000000000
      1957        16  PMPE      H12Y           10.2428190837       15.1954152706        4.1675655872  MEMB      16              0.0000000000
      1958        16  PMPE      C313           10.0493399670       15.0470245256        2.0343648247  MEMB      16              0.0000000000
      1959        16  PMPE      H13X           10.0178332399       14.2095001490        1.3050630793  MEMB      16              0.0000000000
      1960        16  PMPE      H13Y           11.1183252154       15.3469514535        2.0748052945  MEMB      16              0.0000000000
      1961        16  PMPE      C314            9.3565535883       16.2619457683        1.5062872211  MEMB      16              0.0000000000
      1962        16  PMPE      H14X            9.4514725230       16.9937755634        2.3367913775  MEMB      16              0.0000000000
      1963        16  PMPE      H14Y            8.2918951717       15.9792401658        1.3617160361  MEMB      16              0.0000000000
      1964        16  PMPE      C315           10.0194899287       16.7545395675        0.1291080340  MEMB      16              0.0000000000
      1965        16  PMPE      H15X           11.0869027981       17.0482348496        0.2223505429  MEMB      16              0.0000000000
      1966        16  PMPE      H15Y            9.6103946371       17.7562693979       -0.1228818430  MEMB      16              0.0000000000
      1967        16  PMPE      C316            9.9268727621       15.9971525297       -1.1499540564  MEMB      16              0.0000000000
      1968        16  PMPE      H16X            8.8553756250       15.7875922273       -1.3556214719  MEMB      16              0.0000000000
      1969        16  PMPE      H16Y           10.5476753414       15.0783202270       -1.0816006619  MEMB      16              0.0000000000
      1970        16  PMPE      H16Z           10.1812748588       16.5418603158       -2.0842416171  MEMB      16              0.0000000000
      1971        17  PMPE      N              19.3940476373       -3.6319976440       17.8069635215  MEMB      17              0.0000000000
      1972        17  PMPE      HN1            20.0291630147       -2.8134924495       17.8979434800  MEMB      17              0.0000000000
      1973        17  PMPE      HN2            19.9745149795       -4.4803896339       17.9647251893  MEMB      17              0.0000000000
      1974        17  PMPE      HN3            18.9283534945       -3.6018086854       16.8775457050  MEMB      17              0.0000000000
      1975        17  PMPE      C12            18.3776317776       -3.4190326238       18.9267540151  MEMB      17              0.0000000000
      1976        17  PMPE      H12A           17.9527191292       -2.4046157187       18.7695014708  MEMB      17              0.0000000000
      1977        17  PMPE      H12B           18.9101250243       -3.4034321718       19.9017045622  MEMB      17              0.0000000000
      1978        17  PMPE      C11            17.1813465030       -4.4518059896       18.9057519538  MEMB      17              0.0000000000
      1979        17  PMPE      H11A           16.7354411416       -4.4743132278       17.8884108283  MEMB      17              0.0000000000
      1980        17  PMPE      H11B           16.4664877732       -4.1263184790       19.6914719495  MEMB      17              0.0000000000
      1981        17  PMPE      P              16.8066501386       -7.0734090547       19.3603205541  MEMB      17              0.0000000000
      1982        17  PMPE      O13            15.3807450614       -6.6257314633       19.4781170218  MEMB      17              0.0000000000
      1983        17  PMPE      O14            17.3464243164       -8.0083630060       20.3586875515  MEMB      17              0.0000000000
      1984        17  PMPE      O11            16.9927443835       -7.7229889715       17.9352142937  MEMB      17              0.0000000000
      1985        17  PMPE      O12            17.6992733845       -5.7632290867       19.2281910877  MEMB      17              0.0000000000
      1986        17  PMPE      C1             18.1399324429       -7.7440602375       17.1431191068  MEMB      17              0.0000000000
      1987        17  PMPE      HA             18.3883635980       -8.8146643382       16.9806067466  MEMB      17              0.0000000000
      1988        17  PMPE      HB             19.0041162776       -7.4113800491       17.7569849929  MEMB      17              0.0000000000
      1989        17  PMPE      C2             17.9734723670       -6.9531539993       15.7960955461  MEMB      17              0.0000000000
      1990        17  PMPE      HS             17.5834482988       -5.9557607354       16.0917455969  MEMB      17              0.0000000000
      1991        17  PMPE      O21            17.1333775659       -7.6739158839       14.8943569411  MEMB      17              0.0000000000
      1992        17  PMPE      C21            15.7900630055       -7.3185634750       15.0010093188  MEMB      17              0.0000000000
      1993        17  PMPE      O22            15.2177680286       -6.7297804288       15.8639858453  MEMB      17              0.0000000000
      1994        17  PMPE      C22            15.0778954722       -7.8080189042       13.7746902424  MEMB      17              0.0000000000
      1995        17  PMPE      H2R            14.1893242189       -8.4195270322       14.0408105569  MEMB      17              0.0000000000
      1996        17  PMPE      H2S            15.7067930924       -8.5618104514       13.2544908448  MEMB      17              0.0000000000
      1997        17  PMPE      C3             19.3274333459       -6.7564176058       14.9695879172  MEMB      17              0.0000000000
      1998        17  PMPE      HX             19.8018926075       -7.7598730049       14.9217724943  MEMB      17              0.0000000000
      1999        17  PMPE      HY             19.8937853219       -6.0929213943       15.6575846952  MEMB      17              0.0000000000
      2000        17  PMPE      O31            19.1403574051       -6.2481297114       13.6729680536  MEMB      17              0.0000000000
      2001        17  PMPE      C31            19.0614714637       -4.9326218508       13.4794917515  MEMB      17              0.0000000000
      2002        17  PMPE      O32            19.3586172618       -4.0781686279       14.3328282409  MEMB      17              0.0000000000
      2003        17  PMPE      C32            18.4639638764       -4.6405704818       12.1201929289  MEMB      17              0.0000000000
      2004        17  PMPE      H2X            17.5032603746       -4.0972006983       12.2471532662  MEMB      17              0.0000000000
      2005        17  PMPE      H2Y            18.2747867899       -5.6029912544       11.5983889909  MEMB      17              0.0000000000
      2006        17  PMPE      C23            14.8040314897       -6.6296983390       12.8726027346  MEMB      17              0.0000000000
      2007        17  PMPE      H3R            15.7218462332       -6.0085170801       12.7946866487  MEMB      17              0.0000000000
      2008        17  PMPE      H3S            14.0186994098       -6.0046700372       13.3489574656  MEMB      17              0.0000000000
      2009        17  PMPE      C24            14.2511115052       -7.1297373714       11.5180662577  MEMB      17              0.0000000000
      2010        17  PMPE      H4R            13.7761382767       -6.2789143175       10.9843792187  MEMB      17              0.0000000000
      2011        17  PMPE      H4S            13.5462405481       -7.9044586079       11.8885861717  MEMB      17              0.0000000000
      2012        17  PMPE      C25            15.3102285568       -7.7752808868       10.6366204233  MEMB      17              0.0000000000
      2013        17  PMPE      H5R            15.9031252402       -8.5115769728       11.2202835079  MEMB      17              0.0000000000
      2014        17  PMPE      H5S            16.0145792962       -6.9815166174       10.3077601166  MEMB      17              0.0000000000
      2015        17  PMPE      C26            14.5604277845       -8.4209414273        9.4752699257  MEMB      17              0.0000000000
      2016        17  PMPE      H6R            13.8375815606       -7.6687516958        9.0931385055  MEMB      17              0.0000000000
      2017        17  PMPE      H6S            13.9482164893       -9.2436276590        9.9027106498  MEMB      17              0.0000000000
      2018        17  PMPE      C27            15.5504604969       -8.8666689601        8.4789989545  MEMB      17              0.0000000000
      2019        17  PMPE      H7R            15.1322657196       -9.5802353079        7.7372053413  MEMB      17              0.0000000000
      2020        17  PMPE      H7S            16.2542022111       -9.5280370510        9.0282350687  MEMB      17              0.0000000000
      2021        17  PMPE      C28            16.4426229979       -7.7620408057        7.8966392277  MEMB      17              0.0000000000
      2022        17  PMPE      H8R            17.2302267578       -7.4410929628        8.6114774436  MEMB      17              0.0000000000
      2023        17  PMPE      H8S            15.8273176300       -6.8912598016        7.5844526462  MEMB      17              0.0000000000
      2024        17  PMPE      C29            16.9536781615       -8.3065577594        6.5747962528  MEMB      17              0.0000000000
      2025        17  PMPE      H9R            16.2290741796       -8.6233264607        5.7944582459  MEMB      17              0.0000000000
      2026        17  PMPE      C217           18.2914753934       -8.9951547708        6.8286765482  MEMB      17              0.0000000000
      2027        17  PMPE      H17R           18.3707640248       -9.9961126420        6.4228613644  MEMB      17              0.0000000000
      2028        17  PMPE      H17S           18.6733724560       -8.7940367950        7.8219514744  MEMB      17              0.0000000000
      2029        17  PMPE      C210           18.2286348117       -7.7613897748        5.9338368713  MEMB      17              0.0000000000
      2030        17  PMPE      H10R           18.2596689539       -7.9418728069        4.8380342065  MEMB      17              0.0000000000
      2031        17  PMPE      C211           19.0999925105       -6.5262867503        6.1948456329  MEMB      17              0.0000000000
      2032        17  PMPE      H11R           19.9518556994       -6.3421572239        5.5058281214  MEMB      17              0.0000000000
      2033        17  PMPE      H11S           19.5927757559       -6.6929194833        7.1765376140  MEMB      17              0.0000000000
      2034        17  PMPE      C212           18.2110734498       -5.2829848548        6.4187406159  MEMB      17              0.0000000000
      2035        17  PMPE      H12R           18.8720019012       -4.4264365190        6.6713658683  MEMB      17              0.0000000000
      2036        17  PMPE      H12S           17.5520625891       -5.5453687383        7.2738310114  MEMB      17              0.0000000000
      2037        17  PMPE      C213           17.2805633474       -4.8145582728        5.2553800321  MEMB      17              0.0000000000
      2038        17  PMPE      H13R           16.3583252412       -4.3557800872        5.6716973184  MEMB      17              0.0000000000
      2039        17  PMPE      H13S           16.9785554709       -5.6966268533        4.6511719516  MEMB      17              0.0000000000
      2040        17  PMPE      C214           18.1991679100       -3.9431117092        4.3737371869  MEMB      17              0.0000000000
      2041        17  PMPE      H14R           18.7256652484       -3.2309485253        5.0445167215  MEMB      17              0.0000000000
      2042        17  PMPE      H14S           17.5271186805       -3.2840886414        3.7835168513  MEMB      17              0.0000000000
      2043        17  PMPE      C215           19.1930216841       -4.7075412346        3.4924693972  MEMB      17              0.0000000000
      2044        17  PMPE      H15R           18.6405244713       -5.5342390327        2.9968501796  MEMB      17              0.0000000000
      2045        17  PMPE      H15S           19.9699917284       -4.9171030289        4.2584472533  MEMB      17              0.0000000000
      2046        17  PMPE      C216           19.8020754965       -3.7797867882        2.4539435843  MEMB      17              0.0000000000
      2047        17  PMPE      H16R           20.3658499042       -4.3601070832        1.6925566272  MEMB      17              0.0000000000
      2048        17  PMPE      H16S           19.1167247317       -3.2143127147        1.7869688445  MEMB      17              0.0000000000
      2049        17  PMPE      H16T           20.5126286572       -3.1454895576        3.0258714990  MEMB      17              0.0000000000
      2050        17  PMPE      C33            19.4123745167       -3.7781987855       11.3103855492  MEMB      17              0.0000000000
      2051        17  PMPE      H3X            20.3550628247       -4.3543894832       11.4272793667  MEMB      17              0.0000000000
      2052        17  PMPE      H3Y            19.5685232771       -2.7548289095       11.7136877932  MEMB      17              0.0000000000
      2053        17  PMPE      C34            19.0507481683       -3.7311012622        9.7870713526  MEMB      17              0.0000000000
      2054        17  PMPE      H4X            18.8102557301       -4.7766029549        9.4982615878  MEMB      17              0.0000000000
      2055        17  PMPE      H4Y            19.9075417175       -3.2789733723        9.2431900457  MEMB      17              0.0000000000
      2056        17  PMPE      C35            17.9133276829       -2.7928354441        9.4593923596  MEMB      17              0.0000000000
      2057        17  PMPE      H5X            18.0271171286       -2.4677002076        8.4031444141  MEMB      17              0.0000000000
      2058        17  PMPE      H5Y            18.0950295898       -1.8890352550       10.0794335918  MEMB      17              0.0000000000
      2059        17  PMPE      C36            16.5261289174       -3.3006398918        9.7492920550  MEMB      17              0.0000000000
      2060        17  PMPE      H6X            16.3689223125       -3.2902612192       10.8490649839  MEMB      17              0.0000000000
      2061        17  PMPE      H6Y            16.5278805741       -4.3403362813        9.3576935966  MEMB      17              0.0000000000
      2062        17  PMPE      C37            15.5318228971       -2.2776932560        9.1199235040  MEMB      17              0.0000000000
      2063        17  PMPE      H7X            15.6656402618       -2.1956829458        8.0200659563  MEMB      17              0.0000000000
      2064        17  PMPE      H7Y            15.7507547268       -1.2923031178        9.5840320279  MEMB      17              0.0000000000
      2065        17  PMPE      C38            14.0910603052       -2.6029486525        9.4859054805  MEMB      17              0.0000000000
      2066        17  PMPE      H8X            13.3905400150       -1.7637784020        9.2874472313  MEMB      17              0.0000000000
      2067        17  PMPE      H8Y            14.1339048651       -2.6985941550       10.5919518446  MEMB      17              0.0000000000
      2068        17  PMPE      C39            13.4263386252       -3.8164010317        8.9024280712  MEMB      17              0.0000000000
      2069        17  PMPE      H9X            12.4391946693       -3.8584267126        9.4104643556  MEMB      17              0.0000000000
      2070        17  PMPE      H9Y            14.0573372492       -4.6888114561        9.1764016383  MEMB      17              0.0000000000
      2071        17  PMPE      C310           13.0296732467       -3.8184303401        7.3973917951  MEMB      17              0.0000000000
      2072        17  PMPE      H10X           13.8742989549       -3.6547563317        6.6944410462  MEMB      17              0.0000000000
      2073        17  PMPE      H10Y           12.1776373457       -3.1128465154        7.2948884010  MEMB      17              0.0000000000
      2074        17  PMPE      C311           12.4068418080       -5.1848372219        7.0067773708  MEMB      17              0.0000000000
      2075        17  PMPE      H11X           11.5578354289       -5.4696659719        7.6643353314  MEMB      17              0.0000000000
      2076        17  PMPE      H11Y           13.2159809047       -5.9198424027        7.2052281428  MEMB      17              0.0000000000
      2077        17  PMPE      C312           11.8219545457       -5.0704415575        5.5965502714  MEMB      17              0.0000000000
      2078        17  PMPE      H12X           11.2185624021       -4.1698470508        5.3533041923  MEMB      17              0.0000000000
      2079        17  PMPE      H12Y           11.2928974622       -6.0442362393        5.5181699961  MEMB      17              0.0000000000
      2080        17  PMPE      C313           12.9268057278       -5.0887099421        4.4993686340  MEMB      17              0.0000000000
      2081        17  PMPE      H13X           13.4753946076       -4.1236450640        4.4544156880  MEMB      17              0.0000000000
      2082        17  PMPE      H13Y           12.5418098674       -5.1527631708        3.4591786253  MEMB      17              0.0000000000
      2083        17  PMPE      C314           13.9937928860       -6.1812586160        4.5121005328  MEMB      17              0.0000000000
      2084        17  PMPE      H14X           13.6021580099       -7.1528097283        4.8822777427  MEMB      17              0.0000000000
      2085        17  PMPE      H14Y           14.7619747862       -5.8414895802        5.2392691319  MEMB      17              0.0000000000
      2086        17  PMPE      C315           14.6536187917       -6.3812325021        3.0762335729  MEMB      17              0.0000000000
      2087        17  PMPE      H15X           15.3385062158       -5.5368921244        2.8474565875  MEMB      17              0.0000000000
      2088        17  PMPE      H15Y           13.7996446364       -6.3292957803        2.3674663677  MEMB      17              0.0000000000
      2089        17  PMPE      C316           15.2636333489       -7.7466054727        2.9671997991  MEMB      17              0.0000000000
      2090        17  PMPE      H16X           14.5946446219       -8.6327737561        3.0056837640  MEMB      17              0.0000000000
      2091        17  PMPE      H16Y           16.1008533095       -7.9031505505        3.6805572504  MEMB      17              0.0000000000
      2092        17  PMPE      H16Z           15.7557687587       -7.7713582390        1.9714538033  MEMB      17              0.0000000000
      2093        18  PMPE      N             -19.5479180825       -8.2606374935       19.8814836299  MEMB      18              0.0000000000
      2094        18  PMPE      HN1           -19.2450091313       -7.2826223755       20.0640557480  MEMB      18              0.0000000000
      2095        18  PMPE      HN2           -20.5794587669       -8.3757716658       19.8161556053  MEMB      18              0.0000000000
      2096        18  PMPE      HN3           -19.0080670739       -8.8693758638       20.5292478518  MEMB      18              0.0000000000
      2097        18  PMPE      C12           -19.0261039911       -8.3432661270       18.5008543151  MEMB      18              0.0000000000
      2098        18  PMPE      H12A          -19.7109469567       -7.7836985087       17.8283994870  MEMB      18              0.0000000000
      2099        18  PMPE      H12B          -19.0595021664       -9.3832157916       18.1113545062  MEMB      18              0.0000000000
      2100        18  PMPE      C11           -17.5836321557       -7.9651245533       18.5005016841  MEMB      18              0.0000000000
      2101        18  PMPE      H11A          -17.4141442689       -6.8672479384       18.5166817336  MEMB      18              0.0000000000
      2102        18  PMPE      H11B          -17.4407992980       -8.1688673002       17.4177234727  MEMB      18              0.0000000000
      2103        18  PMPE      P             -15.8197011867       -9.8214595055       19.0748850675  MEMB      18              0.0000000000
      2104        18  PMPE      O13           -16.4572829765      -10.7860911826       18.0898774519  MEMB      18              0.0000000000
      2105        18  PMPE      O14           -15.1232935242      -10.3327976749       20.2578857906  MEMB      18              0.0000000000
      2106        18  PMPE      O11           -14.8310115815       -8.9644132389       18.2404123805  MEMB      18              0.0000000000
      2107        18  PMPE      O12           -16.7511309049       -8.6168251038       19.4540996616  MEMB      18              0.0000000000
      2108        18  PMPE      C1            -14.2719133615       -7.7803163478       18.7117056935  MEMB      18              0.0000000000
      2109        18  PMPE      HA            -13.7595632758       -8.0454144833       19.6612010186  MEMB      18              0.0000000000
      2110        18  PMPE      HB            -15.1013072076       -7.0414843602       18.7352493833  MEMB      18              0.0000000000
      2111        18  PMPE      C2            -13.1433189176       -7.2938837969       17.7830543549  MEMB      18              0.0000000000
      2112        18  PMPE      HS            -12.6834594330       -6.3295879129       18.0879866225  MEMB      18              0.0000000000
      2113        18  PMPE      O21           -13.6519348446       -7.1231969889       16.4791307964  MEMB      18              0.0000000000
      2114        18  PMPE      C21           -14.6036086453       -6.2543768758       16.1509235139  MEMB      18              0.0000000000
      2115        18  PMPE      O22           -15.0925456504       -5.3922597076       16.8648667960  MEMB      18              0.0000000000
      2116        18  PMPE      C22           -15.0622515739       -6.5503128339       14.7130741308  MEMB      18              0.0000000000
      2117        18  PMPE      H2R           -15.0607710244       -7.6574638796       14.6206867710  MEMB      18              0.0000000000
      2118        18  PMPE      H2S           -14.3809959940       -6.0376490210       14.0007624851  MEMB      18              0.0000000000
      2119        18  PMPE      C3            -11.9316425581       -8.2203926892       17.7038286145  MEMB      18              0.0000000000
      2120        18  PMPE      HX            -11.5258210325       -8.3857221705       18.7247575393  MEMB      18              0.0000000000
      2121        18  PMPE      HY            -11.1233310711       -7.7233358171       17.1259978349  MEMB      18              0.0000000000
      2122        18  PMPE      O31           -12.3033270049       -9.5419350187       17.2791760541  MEMB      18              0.0000000000
      2123        18  PMPE      C31           -12.2804627606       -9.8672662815       15.9485062481  MEMB      18              0.0000000000
      2124        18  PMPE      O32           -11.7301307659       -9.1619360026       15.1347014403  MEMB      18              0.0000000000
      2125        18  PMPE      C32           -12.9276335533      -11.2328168084       15.7344300353  MEMB      18              0.0000000000
      2126        18  PMPE      H2X           -13.2187579618      -11.6590596000       16.7182412957  MEMB      18              0.0000000000
      2127        18  PMPE      H2Y           -12.2311237107      -11.8226178088       15.1009238547  MEMB      18              0.0000000000
      2128        18  PMPE      C23           -16.5263577502       -6.0275043555       14.5510006593  MEMB      18              0.0000000000
      2129        18  PMPE      H3R           -16.7102227334       -5.0649433344       15.0744424155  MEMB      18              0.0000000000
      2130        18  PMPE      H3S           -17.1427608961       -6.8032174254       15.0536313107  MEMB      18              0.0000000000
      2131        18  PMPE      C24           -16.8990757176       -5.6667296032       13.0699911644  MEMB      18              0.0000000000
      2132        18  PMPE      H4R           -16.8448323207       -6.5368273262       12.3812905352  MEMB      18              0.0000000000
      2133        18  PMPE      H4S           -16.0709158027       -5.0011243683       12.7452730127  MEMB      18              0.0000000000
      2134        18  PMPE      C25           -18.2470164111       -4.9202148850       12.7866921566  MEMB      18              0.0000000000
      2135        18  PMPE      H5R           -18.2477535186       -4.4701676151       11.7709274388  MEMB      18              0.0000000000
      2136        18  PMPE      H5S           -18.2539482872       -4.0811478642       13.5148675371  MEMB      18              0.0000000000
      2137        18  PMPE      C26           -19.4494890278       -5.7577356787       13.1348970062  MEMB      18              0.0000000000
      2138        18  PMPE      H6R           -20.3413107986       -5.1144762206       12.9761750930  MEMB      18              0.0000000000
      2139        18  PMPE      H6S           -19.3068739007       -5.9074934723       14.2264807540  MEMB      18              0.0000000000
      2140        18  PMPE      C27           -19.6872171429       -7.0143703364       12.2870950581  MEMB      18              0.0000000000
      2141        18  PMPE      H7R           -20.5806469025       -7.5964317254       12.5990386563  MEMB      18              0.0000000000
      2142        18  PMPE      H7S           -18.8207196091       -7.6946713408       12.4309479807  MEMB      18              0.0000000000
      2143        18  PMPE      C28           -19.7322288225       -6.7784739335       10.7441462822  MEMB      18              0.0000000000
      2144        18  PMPE      H8R           -18.6622637410       -6.7246937644       10.4498618725  MEMB      18              0.0000000000
      2145        18  PMPE      H8S           -20.2729490508       -5.8416888821       10.4904202563  MEMB      18              0.0000000000
      2146        18  PMPE      C29           -20.4233812962       -7.9713300051       10.0742626821  MEMB      18              0.0000000000
      2147        18  PMPE      H9R           -21.5131518802       -8.0296285126       10.2824043950  MEMB      18              0.0000000000
      2148        18  PMPE      C217          -19.6179326771       -9.2650039815       10.3445281953  MEMB      18              0.0000000000
      2149        18  PMPE      H17R          -20.1195484877      -10.2028662015       10.5486961753  MEMB      18              0.0000000000
      2150        18  PMPE      H17S          -18.5624725695       -9.1587722984       10.5627206094  MEMB      18              0.0000000000
      2151        18  PMPE      C210          -19.8749578637       -8.8111368242        8.9330410527  MEMB      18              0.0000000000
      2152        18  PMPE      H10R          -20.6169877902       -9.4041021267        8.3567561148  MEMB      18              0.0000000000
      2153        18  PMPE      C211          -18.6048903063       -8.3772500654        8.2014822982  MEMB      18              0.0000000000
      2154        18  PMPE      H11R          -18.1033003569       -9.2253640983        7.6882271352  MEMB      18              0.0000000000
      2155        18  PMPE      H11S          -17.9118287128       -8.1068648265        9.0266357221  MEMB      18              0.0000000000
      2156        18  PMPE      C212          -18.7372925169       -7.2382244304        7.2062929597  MEMB      18              0.0000000000
      2157        18  PMPE      H12R          -18.9421868345       -6.2641330800        7.6997356861  MEMB      18              0.0000000000
      2158        18  PMPE      H12S          -19.5982389104       -7.5420188279        6.5732045370  MEMB      18              0.0000000000
      2159        18  PMPE      C213          -17.3554946944       -6.9867520831        6.4518371947  MEMB      18              0.0000000000
      2160        18  PMPE      H13R          -17.0525781859       -7.9210129581        5.9324923101  MEMB      18              0.0000000000
      2161        18  PMPE      H13S          -16.4711641265       -6.7005821836        7.0604317461  MEMB      18              0.0000000000
      2162        18  PMPE      C214          -17.6255650462       -5.9913612146        5.3748739290  MEMB      18              0.0000000000
      2163        18  PMPE      H14R          -18.1480159828       -5.1202395940        5.8248885712  MEMB      18              0.0000000000
      2164        18  PMPE      H14S          -18.3375748210       -6.4604060347        4.6625815661  MEMB      18              0.0000000000
      2165        18  PMPE      C215          -16.3236992984       -5.4671883761        4.7747960823  MEMB      18              0.0000000000
      2166        18  PMPE      H15R          -15.6223354489       -6.3261379163        4.7068591246  MEMB      18              0.0000000000
      2167        18  PMPE      H15S          -15.8752627556       -4.7568829877        5.5019079094  MEMB      18              0.0000000000
      2168        18  PMPE      C216          -16.4014721768       -4.6756651508        3.4997801106  MEMB      18              0.0000000000
      2169        18  PMPE      H16R          -15.4508543445       -4.1980028983        3.1796460346  MEMB      18              0.0000000000
      2170        18  PMPE      H16S          -16.7596900046       -5.3411072440        2.6854176322  MEMB      18              0.0000000000
      2171        18  PMPE      H16T          -17.2681222151       -3.9821767648        3.5478636291  MEMB      18              0.0000000000
      2172        18  PMPE      C33           -14.2728862074      -10.9725690347       14.9807334398  MEMB      18              0.0000000000
      2173        18  PMPE      H3X           -14.6844952079      -10.0246787725       15.3886588075  MEMB      18              0.0000000000
      2174        18  PMPE      H3Y           -15.0253243994      -11.7019787655       15.3496768648  MEMB      18              0.0000000000
      2175        18  PMPE      C34           -14.0254210918      -10.7616164608       13.4567771266  MEMB      18              0.0000000000
      2176        18  PMPE      H4X           -13.5549125362      -11.7199388442       13.1492702733  MEMB      18              0.0000000000
      2177        18  PMPE      H4Y           -13.4106160919       -9.8927765779       13.1382595834  MEMB      18              0.0000000000
      2178        18  PMPE      C35           -15.2912841133      -10.6627309029       12.6701476557  MEMB      18              0.0000000000
      2179        18  PMPE      H5X           -15.8935182722       -9.7894945092       13.0004401704  MEMB      18              0.0000000000
      2180        18  PMPE      H5Y           -16.0187722641      -11.5005919485       12.7255650192  MEMB      18              0.0000000000
      2181        18  PMPE      C36           -15.1865884919      -10.6288309413       11.1076862710  MEMB      18              0.0000000000
      2182        18  PMPE      H6X           -16.1936366459      -10.9595076191       10.7747781408  MEMB      18              0.0000000000
      2183        18  PMPE      H6Y           -14.4122931724      -11.3604885681       10.7923057004  MEMB      18              0.0000000000
      2184        18  PMPE      C37           -14.8424758971       -9.2691104254       10.4717387220  MEMB      18              0.0000000000
      2185        18  PMPE      H7X           -14.0845839395       -8.6687313917       11.0189729499  MEMB      18              0.0000000000
      2186        18  PMPE      H7Y           -15.7837963532       -8.7151855609       10.2682593110  MEMB      18              0.0000000000
      2187        18  PMPE      C38           -14.2218047161       -9.4060509637        9.0602867761  MEMB      18              0.0000000000
      2188        18  PMPE      H8X           -13.2084977346       -9.8115111789        9.2679707190  MEMB      18              0.0000000000
      2189        18  PMPE      H8Y           -14.3171338196       -8.3489244511        8.7320845177  MEMB      18              0.0000000000
      2190        18  PMPE      C39           -15.0297091172      -10.3073806215        8.1633175747  MEMB      18              0.0000000000
      2191        18  PMPE      H9X           -16.1186588113      -10.1617812527        8.3285761375  MEMB      18              0.0000000000
      2192        18  PMPE      H9Y           -14.7596774436      -11.3357986917        8.4854358934  MEMB      18              0.0000000000
      2193        18  PMPE      C310          -14.5677870173      -10.2186231889        6.6815628127  MEMB      18              0.0000000000
      2194        18  PMPE      H10X          -13.4594977356      -10.1866757915        6.6108854155  MEMB      18              0.0000000000
      2195        18  PMPE      H10Y          -14.8087769569       -9.2017606898        6.3044222800  MEMB      18              0.0000000000
      2196        18  PMPE      C311          -14.9741334821      -11.4206536063        5.8919078602  MEMB      18              0.0000000000
      2197        18  PMPE      H11X          -14.5644981179      -12.3011209137        6.4316270806  MEMB      18              0.0000000000
      2198        18  PMPE      H11Y          -14.4152367305      -11.3054211985        4.9386617424  MEMB      18              0.0000000000
      2199        18  PMPE      C312          -16.5010460396      -11.4383786669        5.7263264202  MEMB      18              0.0000000000
      2200        18  PMPE      H12X          -16.8556377530      -11.4097383489        6.7788306412  MEMB      18              0.0000000000
      2201        18  PMPE      H12Y          -16.8048035370      -12.4400006269        5.3537602701  MEMB      18              0.0000000000
      2202        18  PMPE      C313          -17.1745265710      -10.3609479150        4.8893895247  MEMB      18              0.0000000000
      2203        18  PMPE      H13X          -16.6408900444       -9.3868555156        4.9157954220  MEMB      18              0.0000000000
      2204        18  PMPE      H13Y          -18.2191072205      -10.1876449760        5.2257496582  MEMB      18              0.0000000000
      2205        18  PMPE      C314          -17.1932728789      -10.7607648225        3.3844828990  MEMB      18              0.0000000000
      2206        18  PMPE      H14X          -16.9513477003      -11.8450683526        3.3755706758  MEMB      18              0.0000000000
      2207        18  PMPE      H14Y          -16.3304866094      -10.2483083729        2.9077132071  MEMB      18              0.0000000000
      2208        18  PMPE      C315          -18.4540238214      -10.5165112343        2.6421289439  MEMB      18              0.0000000000
      2209        18  PMPE      H15X          -19.2650957696      -11.0012896004        3.2264866298  MEMB      18              0.0000000000
      2210        18  PMPE      H15Y          -18.4906148705      -10.9617158530        1.6248899455  MEMB      18              0.0000000000
      2211        18  PMPE      C316          -18.7860171351       -9.0376802445        2.4585296561  MEMB      18              0.0000000000
      2212        18  PMPE      H16X          -19.0247226031       -8.4009609044        3.3371251008  MEMB      18              0.0000000000
      2213        18  PMPE      H16Y          -19.7400723590       -9.1127007092        1.8941971726  MEMB      18              0.0000000000
      2214        18  PMPE      H16Z          -18.0145301469       -8.5582530849        1.8187818274  MEMB      18              0.0000000000
      2215        19  PYPG      C13           -18.2686041169        4.5058753084       19.3967885341  MEMB      19              0.0000000000
      2216        19  PYPG      H13A          -17.5013757705        4.0622898308       20.0667986610  MEMB      19              0.0000000000
      2217        19  PYPG      H13B          -19.0474335135        4.9861795501       20.0269105185  MEMB      19              0.0000000000
      2218        19  PYPG      OC3           -19.0481117894        3.4509841287       18.9060090681  MEMB      19              0.0000000000
      2219        19  PYPG      HO3           -19.4169150754        3.0116643911       19.6758026899  MEMB      19              0.0000000000
      2220        19  PYPG      C12           -17.6769228111        5.3997109056       18.2604632940  MEMB      19              0.0000000000
      2221        19  PYPG      H12A          -18.5363874717        5.8183686592       17.6870304536  MEMB      19              0.0000000000
      2222        19  PYPG      OC2           -16.8955480457        4.6058261385       17.3664603060  MEMB      19              0.0000000000
      2223        19  PYPG      HO2           -16.4715310663        5.2769570168       16.7880920969  MEMB      19              0.0000000000
      2224        19  PYPG      C11           -16.8011744397        6.6438495355       18.7390210113  MEMB      19              0.0000000000
      2225        19  PYPG      H11A          -16.5977077708        7.2388381805       17.8231003379  MEMB      19              0.0000000000
      2226        19  PYPG      H11B          -15.8022777763        6.2967171633       19.0796464682  MEMB      19              0.0000000000
      2227        19  PYPG      P             -18.4291628693        8.5149831177       19.5292915406  MEMB      19              0.0000000000
      2228        19  PYPG      O13           -18.2603791387        9.7365141355       20.4154165824  MEMB      19              0.0000000000
      2229        19  PYPG      O14           -19.7392786982        7.8643701855       19.4591668170  MEMB      19              0.0000000000
      2230        19  PYPG      O11           -18.0291026383        8.9312060710       18.1112379304  MEMB      19              0.0000000000
      2231        19  PYPG      O12           -17.3389244528        7.4070205751       19.8161449188  MEMB      19              0.0000000000
      2232        19  PYPG      C1            -18.5862081105       10.0985590224       17.5003112777  MEMB      19              0.0000000000
      2233        19  PYPG      HA            -18.3676073660       10.9711967827       18.1522609279  MEMB      19              0.0000000000
      2234        19  PYPG      HB            -19.6741404239        9.8845378362       17.4301742004  MEMB      19              0.0000000000
      2235        19  PYPG      C2            -18.0372262747       10.4750135639       16.1676139129  MEMB      19              0.0000000000
      2236        19  PYPG      HS            -18.8332159257       10.9751557802       15.5755167562  MEMB      19              0.0000000000
      2237        19  PYPG      O21           -17.5618178634        9.2351533945       15.4507173359  MEMB      19              0.0000000000
      2238        19  PYPG      C21           -18.5090227139        8.4249499068       14.9061936734  MEMB      19              0.0000000000
      2239        19  PYPG      O22           -19.7181007831        8.5167639893       14.9271423323  MEMB      19              0.0000000000
      2240        19  PYPG      C22           -17.8287482608        7.5848269859       13.8263664495  MEMB      19              0.0000000000
      2241        19  PYPG      H2R           -16.7334352416        7.5816561834       14.0123783409  MEMB      19              0.0000000000
      2242        19  PYPG      H2S           -18.0476961218        8.2318684152       12.9501699333  MEMB      19              0.0000000000
      2243        19  PYPG      C3            -16.8560016553       11.3995711832       16.4465662779  MEMB      19              0.0000000000
      2244        19  PYPG      HX            -16.1659639871       11.0016312355       17.2210421204  MEMB      19              0.0000000000
      2245        19  PYPG      HY            -17.2407919155       12.3424516705       16.8906762418  MEMB      19              0.0000000000
      2246        19  PYPG      O31           -16.2587746303       11.7153839497       15.2136938024  MEMB      19              0.0000000000
      2247        19  PYPG      C31           -15.2581186086       11.0184282110       14.9358863679  MEMB      19              0.0000000000
      2248        19  PYPG      O32           -14.8107909938       10.0984763671       15.6529561446  MEMB      19              0.0000000000
      2249        19  PYPG      C32           -14.6923225402       11.4881662084       13.5563968609  MEMB      19              0.0000000000
      2250        19  PYPG      H2X           -15.1201008348       12.3751263686       13.0419762071  MEMB      19              0.0000000000
      2251        19  PYPG      H2Y           -13.5848283754       11.5643515980       13.6008212439  MEMB      19              0.0000000000
      2252        19  PYPG      C23           -18.4421031079        6.2050682449       13.6306958510  MEMB      19              0.0000000000
      2253        19  PYPG      H3R           -19.5506966814        6.2602730083       13.6785888892  MEMB      19              0.0000000000
      2254        19  PYPG      H3S           -18.0534109373        5.6897168742       14.5349369216  MEMB      19              0.0000000000
      2255        19  PYPG      C24           -18.0636034839        5.5003356322       12.3491394010  MEMB      19              0.0000000000
      2256        19  PYPG      H4R           -18.3333603154        6.2204911510       11.5473108950  MEMB      19              0.0000000000
      2257        19  PYPG      H4S           -18.7050665792        4.6021016839       12.2225616987  MEMB      19              0.0000000000
      2258        19  PYPG      C25           -16.6342486504        5.0345074181       12.2540973610  MEMB      19              0.0000000000
      2259        19  PYPG      H5R           -16.6513511941        4.3814794419       13.1527538923  MEMB      19              0.0000000000
      2260        19  PYPG      H5S           -15.9739014400        5.9271544617       12.2160991635  MEMB      19              0.0000000000
      2261        19  PYPG      C26           -16.2950752934        4.3249194924       10.9027989017  MEMB      19              0.0000000000
      2262        19  PYPG      H6R           -16.5599086300        4.9956169751       10.0576069169  MEMB      19              0.0000000000
      2263        19  PYPG      H6S           -17.0106704733        3.4867179081       10.7625759922  MEMB      19              0.0000000000
      2264        19  PYPG      C27           -14.7240968496        4.0458004532       10.9064758891  MEMB      19              0.0000000000
      2265        19  PYPG      H7R           -14.7216842531        3.1149668402       11.5129941464  MEMB      19              0.0000000000
      2266        19  PYPG      H7S           -14.2097118388        4.9396714608       11.3196630384  MEMB      19              0.0000000000
      2267        19  PYPG      C28           -14.1764643615        3.8314293433        9.4201136107  MEMB      19              0.0000000000
      2268        19  PYPG      H8R           -13.0991219346        3.5771964927        9.5150854464  MEMB      19              0.0000000000
      2269        19  PYPG      H8S           -14.1814400822        4.8854489551        9.0689161757  MEMB      19              0.0000000000
      2270        19  PYPG      C29           -14.9036119701        2.7992362565        8.5394020865  MEMB      19              0.0000000000
      2271        19  PYPG      H9R           -14.9609844083        1.8482159212        9.0891918728  MEMB      19              0.0000000000
      2272        19  PYPG      C210          -15.2056246044        2.9117287076        7.2764189426  MEMB      19              0.0000000000
      2273        19  PYPG      H10R          -15.6359005415        2.0069021648        6.8223798838  MEMB      19              0.0000000000
      2274        19  PYPG      C211          -14.9768287644        4.0340681590        6.3526112924  MEMB      19              0.0000000000
      2275        19  PYPG      H11R          -14.1336108073        4.7138269230        6.6000632258  MEMB      19              0.0000000000
      2276        19  PYPG      H11S          -15.8831622149        4.6723717430        6.4264312734  MEMB      19              0.0000000000
      2277        19  PYPG      C212          -14.8160715306        3.6878964055        4.8896405034  MEMB      19              0.0000000000
      2278        19  PYPG      H12R          -14.0517994850        2.8844300253        4.8214422097  MEMB      19              0.0000000000
      2279        19  PYPG      H12S          -14.5493686195        4.6096860513        4.3297343200  MEMB      19              0.0000000000
      2280        19  PYPG      C213          -16.1418937666        3.2447908901        4.1990053246  MEMB      19              0.0000000000
      2281        19  PYPG      H13R          -16.9213899383        4.0316663267        4.2858019011  MEMB      19              0.0000000000
      2282        19  PYPG      H13S          -16.5545088432        2.4033413370        4.7956888624  MEMB      19              0.0000000000
      2283        19  PYPG      C214          -15.9434828221        2.7027306464        2.7838765777  MEMB      19              0.0000000000
      2284        19  PYPG      H14R          -14.9492953226        2.2176525187        2.6808664815  MEMB      19              0.0000000000
      2285        19  PYPG      H14S          -16.7533403696        1.9954276967        2.5042796293  MEMB      19              0.0000000000
      2286        19  PYPG      C215          -16.1147798111        3.8146777826        1.7002505580  MEMB      19              0.0000000000
      2287        19  PYPG      H15R          -15.4307726081        4.6167603128        2.0511332610  MEMB      19              0.0000000000
      2288        19  PYPG      H15S          -17.1803888370        4.1211572476        1.6304733627  MEMB      19              0.0000000000
      2289        19  PYPG      C216          -15.4746479888        3.4391881718        0.2978505734  MEMB      19              0.0000000000
      2290        19  PYPG      H16R          -14.4075488480        3.4522066182        0.6068018807  MEMB      19              0.0000000000
      2291        19  PYPG      H16S          -15.7656918134        4.1655145343       -0.4908605746  MEMB      19              0.0000000000
      2292        19  PYPG      H16T          -15.7960834768        2.4097194441        0.0310272120  MEMB      19              0.0000000000
      2293        19  PYPG      C33           -15.0016449597       10.2699759514       12.6416690001  MEMB      19              0.0000000000
      2294        19  PYPG      H3X           -16.0671138025        9.9562992150       12.6151383251  MEMB      19              0.0000000000
      2295        19  PYPG      H3Y           -14.4388887031        9.4075116526       13.0585405348  MEMB      19              0.0000000000
      2296        19  PYPG      C34           -14.7490725865       10.4688918343       11.1630268107  MEMB      19              0.0000000000
      2297        19  PYPG      H4X           -13.7003733695       10.2273342446       10.8869820136  MEMB      19              0.0000000000
      2298        19  PYPG      H4Y           -14.8067947686       11.5722833336       11.0467661601  MEMB      19              0.0000000000
      2299        19  PYPG      C35           -15.8064475008        9.9693088403       10.1668498840  MEMB      19              0.0000000000
      2300        19  PYPG      H5X           -15.5381213307       10.3605717760        9.1622422896  MEMB      19              0.0000000000
      2301        19  PYPG      H5Y           -16.8366199257       10.1654562266       10.5337168834  MEMB      19              0.0000000000
      2302        19  PYPG      C36           -15.9003685537        8.3962048523       10.0788805014  MEMB      19              0.0000000000
      2303        19  PYPG      H6X           -15.9782367949        8.0683092065       11.1375316978  MEMB      19              0.0000000000
      2304        19  PYPG      H6Y           -14.9988083818        7.9096721603        9.6490002083  MEMB      19              0.0000000000
      2305        19  PYPG      C37           -17.1657702105        8.0240340144        9.2822636722  MEMB      19              0.0000000000
      2306        19  PYPG      H7X           -17.4679318329        6.9653055884        9.4309699663  MEMB      19              0.0000000000
      2307        19  PYPG      H7Y           -17.8893773551        8.7326141725        9.7390220656  MEMB      19              0.0000000000
      2308        19  PYPG      C38           -17.0274618450        8.3389146508        7.7623447657  MEMB      19              0.0000000000
      2309        19  PYPG      H8X           -17.1586147264        9.4393884342        7.6843881114  MEMB      19              0.0000000000
      2310        19  PYPG      H8Y           -17.9332663392        7.9110437793        7.2819644898  MEMB      19              0.0000000000
      2311        19  PYPG      C39           -15.7588761820        7.9459508239        7.0067135302  MEMB      19              0.0000000000
      2312        19  PYPG      H9X           -15.6061521870        6.8466417326        6.9565545022  MEMB      19              0.0000000000
      2313        19  PYPG      H9Y           -15.0678880732        8.4954640635        7.6811701642  MEMB      19              0.0000000000
      2314        19  PYPG      C310          -15.7193718401        8.5318436143        5.6240969790  MEMB      19              0.0000000000
      2315        19  PYPG      H10X          -15.7300962414        9.6394290497        5.7104718379  MEMB      19              0.0000000000
      2316        19  PYPG      H10Y          -16.5562173295        8.0793203377        5.0503088067  MEMB      19              0.0000000000
      2317        19  PYPG      C311          -14.3672913303        8.2630759580        4.9702893647  MEMB      19              0.0000000000
      2318        19  PYPG      H11X          -14.2892675062        7.1548728649        4.9812085553  MEMB      19              0.0000000000
      2319        19  PYPG      H11Y          -13.5903220639        8.5433073978        5.7133298554  MEMB      19              0.0000000000
      2320        19  PYPG      C312          -14.1397469682        8.8856080896        3.5994803674  MEMB      19              0.0000000000
      2321        19  PYPG      H12X          -14.1105938987        9.9869086017        3.7430355975  MEMB      19              0.0000000000
      2322        19  PYPG      H12Y          -13.1034837225        8.7226626069        3.2335163958  MEMB      19              0.0000000000
      2323        19  PYPG      C313          -15.1866307209        8.5115295404        2.4960566681  MEMB      19              0.0000000000
      2324        19  PYPG      H13X          -15.1068118777        7.4215228524        2.2964699665  MEMB      19              0.0000000000
      2325        19  PYPG      H13Y          -16.1553997576        8.7080153487        3.0032061360  MEMB      19              0.0000000000
      2326        19  PYPG      C314          -15.0058968449        9.3905810349        1.2335931454  MEMB      19              0.0000000000
      2327        19  PYPG      H14X          -13.9702960081        9.3133947937        0.8387588712  MEMB      19              0.0000000000
      2328        19  PYPG      H14Y          -15.6357491286        8.8904890161        0.4670979337  MEMB      19              0.0000000000
      2329        19  PYPG      C315          -15.3919529512       10.8831549568        1.5211037310  MEMB      19              0.0000000000
      2330        19  PYPG      H15X          -16.3189466646       10.8948106312        2.1333676851  MEMB      19              0.0000000000
      2331        19  PYPG      H15Y          -14.6140548658       11.2927676862        2.2003767620  MEMB      19              0.0000000000
      2332        19  PYPG      C316          -15.6473620498       11.8246647664        0.2735950926  MEMB      19              0.0000000000
      2333        19  PYPG      H16X          -14.6392696872       12.0621633720       -0.1284816768  MEMB      19              0.0000000000
      2334        19  PYPG      H16Y          -16.1386362516       12.7721060067        0.5823429819  MEMB      19              0.0000000000
      2335        19  PYPG      H16Z          -16.3997246439       11.3493112813       -0.3914700110  MEMB      19              0.0000000000
      2336        20  QMPE      N             -13.0506861667       13.9575946226       22.0698747021  MEMB      20              0.0000000000
      2337        20  QMPE      HN1           -13.9739766781       13.4798927983       22.0392865730  MEMB      20              0.0000000000
      2338        20  QMPE      HN2           -12.3242740239       13.5046235339       22.6604188648  MEMB      20              0.0000000000
      2339        20  QMPE      HN3           -13.2232514689       14.8813959315       22.5153097124  MEMB      20              0.0000000000
      2340        20  QMPE      C12           -12.6814400878       14.0335099933       20.5994560593  MEMB      20              0.0000000000
      2341        20  QMPE      H12A          -12.7939156032       13.0604591076       20.0752021719  MEMB      20              0.0000000000
      2342        20  QMPE      H12B          -11.6515915433       14.4318200449       20.4766468815  MEMB      20              0.0000000000
      2343        20  QMPE      C11           -13.6146294191       14.9856797413       19.8548868556  MEMB      20              0.0000000000
      2344        20  QMPE      H11A          -13.0253049585       15.3827828036       19.0008804576  MEMB      20              0.0000000000
      2345        20  QMPE      H11B          -13.8264900901       15.8397308729       20.5331440774  MEMB      20              0.0000000000
      2346        20  QMPE      P             -14.8729918268       13.9129257065       17.8342874431  MEMB      20              0.0000000000
      2347        20  QMPE      O13           -16.0223502214       12.9763869184       17.6688609412  MEMB      20              0.0000000000
      2348        20  QMPE      O14           -13.5665556533       13.5814790989       17.2907224817  MEMB      20              0.0000000000
      2349        20  QMPE      O11           -15.3891119349       15.2856586501       17.2716847323  MEMB      20              0.0000000000
      2350        20  QMPE      O12           -14.8078107014       14.3143036684       19.4102267968  MEMB      20              0.0000000000
      2351        20  QMPE      C1            -14.7008526283       16.0177678589       16.3386536902  MEMB      20              0.0000000000
      2352        20  QMPE      HA            -13.6395122331       15.7072455907       16.2316324341  MEMB      20              0.0000000000
      2353        20  QMPE      HB            -14.6195922626       17.0761802164       16.6664965282  MEMB      20              0.0000000000
      2354        20  QMPE      C2            -15.4987795096       16.1812458889       15.0496861846  MEMB      20              0.0000000000
      2355        20  QMPE      HS            -16.4678786040       16.6666093469       15.2937968756  MEMB      20              0.0000000000
      2356        20  QMPE      O21           -15.7152849132       14.7565833138       14.6150025349  MEMB      20              0.0000000000
      2357        20  QMPE      C21           -16.5371237381       14.5803271706       13.6028622428  MEMB      20              0.0000000000
      2358        20  QMPE      O22           -17.2054428197       15.3870058545       12.9557788349  MEMB      20              0.0000000000
      2359        20  QMPE      C22           -16.6066703482       13.1157339096       13.3536024070  MEMB      20              0.0000000000
      2360        20  QMPE      H2R           -16.9516042900       12.6110532593       14.2813085406  MEMB      20              0.0000000000
      2361        20  QMPE      H2S           -15.5742320092       12.8308740336       13.0582265793  MEMB      20              0.0000000000
      2362        20  QMPE      C3            -14.8706974162       17.0224790619       13.9620648174  MEMB      20              0.0000000000
      2363        20  QMPE      HX            -14.6329559390       18.0374845457       14.3462054162  MEMB      20              0.0000000000
      2364        20  QMPE      HY            -15.6254227281       17.2661413858       13.1840292504  MEMB      20              0.0000000000
      2365        20  QMPE      O31           -13.7232190601       16.4479043665       13.4260489284  MEMB      20              0.0000000000
      2366        20  QMPE      C31           -13.1011887590       17.1780684967       12.4253447132  MEMB      20              0.0000000000
      2367        20  QMPE      O32           -13.3489873004       18.3262052359       12.1310296250  MEMB      20              0.0000000000
      2368        20  QMPE      C32           -12.1903701478       16.2368203972       11.5458325381  MEMB      20              0.0000000000
      2369        20  QMPE      H2X           -11.7459925170       16.9248402424       10.7951811503  MEMB      20              0.0000000000
      2370        20  QMPE      H2Y           -11.5211968847       15.7330110472       12.2756985458  MEMB      20              0.0000000000
      2371        20  QMPE      C23           -17.5137286169       12.6788232948       12.2190346467  MEMB      20              0.0000000000
      2372        20  QMPE      H3R           -18.4357409767       13.2936463244       12.1402511443  MEMB      20              0.0000000000
      2373        20  QMPE      H3S           -17.8505880758       11.6586425495       12.5020153473  MEMB      20              0.0000000000
      2374        20  QMPE      C24           -16.7746070491       12.6145585332       10.8242505684  MEMB      20              0.0000000000
      2375        20  QMPE      H4R           -15.7684092507       12.1578436515       10.9395701938  MEMB      20              0.0000000000
      2376        20  QMPE      H4S           -16.7403318252       13.6765343497       10.4996681198  MEMB      20              0.0000000000
      2377        20  QMPE      C25           -17.5732325881       11.8298260344        9.7795527683  MEMB      20              0.0000000000
      2378        20  QMPE      H5R           -17.2287172595       10.7740809816        9.7474228501  MEMB      20              0.0000000000
      2379        20  QMPE      H5S           -17.0903545613       12.1612836645        8.8354727904  MEMB      20              0.0000000000
      2380        20  QMPE      C26           -19.1114393319       11.9492941286        9.7560260617  MEMB      20              0.0000000000
      2381        20  QMPE      H6R           -19.3601749166       13.0311903046        9.8002103356  MEMB      20              0.0000000000
      2382        20  QMPE      H6S           -19.4646013324       11.4581227377       10.6878781164  MEMB      20              0.0000000000
      2383        20  QMPE      C27           -19.7155627708       11.3654326306        8.4817306891  MEMB      20              0.0000000000
      2384        20  QMPE      H7R           -20.6740929556       10.8400566202        8.6805285380  MEMB      20              0.0000000000
      2385        20  QMPE      H7S           -18.9628862153       10.5851607385        8.2388831851  MEMB      20              0.0000000000
      2386        20  QMPE      C28           -20.0536498831       12.2641432965        7.2943068425  MEMB      20              0.0000000000
      2387        20  QMPE      H8R           -19.1476157267       12.8215659177        6.9738329183  MEMB      20              0.0000000000
      2388        20  QMPE      H8S           -20.7927802591       13.0205788837        7.6346192613  MEMB      20              0.0000000000
      2389        20  QMPE      C29           -20.4927139789       11.4431002311        6.0652220101  MEMB      20              0.0000000000
      2390        20  QMPE      H9R           -21.5896195856       11.2705697579        6.0284519270  MEMB      20              0.0000000000
      2391        20  QMPE      C217          -19.4837789512       10.4497064704        5.4032934444  MEMB      20              0.0000000000
      2392        20  QMPE      H17R          -18.5334888977       10.6382112154        5.8873422858  MEMB      20              0.0000000000
      2393        20  QMPE      H17S          -19.8037428846        9.6476175451        4.7497144364  MEMB      20              0.0000000000
      2394        20  QMPE      C210          -19.9180853125       11.7557826528        4.6858918704  MEMB      20              0.0000000000
      2395        20  QMPE      H10R          -20.6550929395       11.6849508955        3.8575668418  MEMB      20              0.0000000000
      2396        20  QMPE      C211          -18.8198346389       12.7605047227        4.4055241038  MEMB      20              0.0000000000
      2397        20  QMPE      H11R          -18.0713510575       12.7910103684        5.2259892034  MEMB      20              0.0000000000
      2398        20  QMPE      H11S          -18.3505099966       12.4524643649        3.4467920413  MEMB      20              0.0000000000
      2399        20  QMPE      C212          -19.3381782092       14.1928460208        4.4040098276  MEMB      20              0.0000000000
      2400        20  QMPE      H12R          -19.7123175084       14.5393691666        5.3910575064  MEMB      20              0.0000000000
      2401        20  QMPE      H12S          -20.1689136078       14.3935863487        3.6941494418  MEMB      20              0.0000000000
      2402        20  QMPE      C213          -18.2466320931       15.2098786156        3.9296092207  MEMB      20              0.0000000000
      2403        20  QMPE      H13R          -17.2663362546       15.0760924842        4.4350216384  MEMB      20              0.0000000000
      2404        20  QMPE      H13S          -18.6918405403       16.1990366838        4.1697687425  MEMB      20              0.0000000000
      2405        20  QMPE      C214          -17.9734042380       15.1861250915        2.4455285668  MEMB      20              0.0000000000
      2406        20  QMPE      H14R          -18.3018423702       14.1778832070        2.1140193165  MEMB      20              0.0000000000
      2407        20  QMPE      H14S          -16.8761034764       15.2647629893        2.2903891600  MEMB      20              0.0000000000
      2408        20  QMPE      C215          -18.6524731357       16.3042708039        1.7441220185  MEMB      20              0.0000000000
      2409        20  QMPE      H15R          -18.1984045090       17.2327396409        2.1516616476  MEMB      20              0.0000000000
      2410        20  QMPE      H15S          -19.7619780373       16.2485458994        1.7294861511  MEMB      20              0.0000000000
      2411        20  QMPE      C216          -18.2816012070       16.3696689981        0.1991225278  MEMB      20              0.0000000000
      2412        20  QMPE      H16R          -18.4777000769       17.3970688307       -0.1754636438  MEMB      20              0.0000000000
      2413        20  QMPE      H16S          -18.7740996150       15.6409918957       -0.4796965266  MEMB      20              0.0000000000
      2414        20  QMPE      H16T          -17.2048148422       16.1203796700        0.0863961922  MEMB      20              0.0000000000
      2415        20  QMPE      C33           -13.0463362113       15.1226310571       10.9677337850  MEMB      20              0.0000000000
      2416        20  QMPE      H3X           -13.6687165213       14.5991644247       11.7246661041  MEMB      20              0.0000000000
      2417        20  QMPE      H3Y           -12.4524420525       14.2571807369       10.6035820998  MEMB      20              0.0000000000
      2418        20  QMPE      C34           -14.0597027908       15.4138665893        9.7483377069  MEMB      20              0.0000000000
      2419        20  QMPE      H4X           -14.6650069215       16.3086588120       10.0077116052  MEMB      20              0.0000000000
      2420        20  QMPE      H4Y           -14.7811259668       14.5694888169        9.7184090240  MEMB      20              0.0000000000
      2421        20  QMPE      C35           -13.5048880423       15.6653823079        8.3392660363  MEMB      20              0.0000000000
      2422        20  QMPE      H5X           -12.4251990783       15.4039320258        8.3238817264  MEMB      20              0.0000000000
      2423        20  QMPE      H5Y           -13.5618538397       16.7682748867        8.2180059817  MEMB      20              0.0000000000
      2424        20  QMPE      C36           -14.3109323507       14.9552020557        7.2833470655  MEMB      20              0.0000000000
      2425        20  QMPE      H6X           -15.3517611628       15.3370830192        7.3552022956  MEMB      20              0.0000000000
      2426        20  QMPE      H6Y           -14.3303316456       13.8655181051        7.4990642292  MEMB      20              0.0000000000
      2427        20  QMPE      C37           -13.8749220493       15.2497673059        5.8721682484  MEMB      20              0.0000000000
      2428        20  QMPE      H7X           -14.3785351394       16.1493484123        5.4581049972  MEMB      20              0.0000000000
      2429        20  QMPE      H7Y           -12.7733189702       15.3436789695        5.7627484790  MEMB      20              0.0000000000
      2430        20  QMPE      C38           -14.1528571771       14.0804759606        4.9551945237  MEMB      20              0.0000000000
      2431        20  QMPE      H8X           -13.5230929738       13.2176015432        5.2604261355  MEMB      20              0.0000000000
      2432        20  QMPE      H8Y           -15.2229001441       13.8102024694        5.0827928755  MEMB      20              0.0000000000
      2433        20  QMPE      C39           -13.9879005332       14.5025042411        3.4773035602  MEMB      20              0.0000000000
      2434        20  QMPE      H9X           -13.0533084903       15.1018208578        3.4363341177  MEMB      20              0.0000000000
      2435        20  QMPE      H9Y           -14.8933716564       15.1187131563        3.2909455435  MEMB      20              0.0000000000
      2436        20  QMPE      C310          -14.0907901109       13.3773242946        2.5071360150  MEMB      20              0.0000000000
      2437        20  QMPE      H10X          -13.4708326056       12.5100216869        2.8198021042  MEMB      20              0.0000000000
      2438        20  QMPE      H10Y          -13.6208883544       13.7345007476        1.5658936702  MEMB      20              0.0000000000
      2439        20  QMPE      C311          -15.4637484920       12.7567762991        2.3037307572  MEMB      20              0.0000000000
      2440        20  QMPE      H11X          -16.0714714021       13.2337192987        1.5052834061  MEMB      20              0.0000000000
      2441        20  QMPE      H11Y          -16.0032703415       12.8453710892        3.2708854349  MEMB      20              0.0000000000
      2442        20  QMPE      C312          -15.4546047449       11.3061280923        1.9076030358  MEMB      20              0.0000000000
      2443        20  QMPE      H12X          -14.9101503790       10.6479893792        2.6180548907  MEMB      20              0.0000000000
      2444        20  QMPE      H12Y          -14.9373981292       11.2014395378        0.9299213635  MEMB      20              0.0000000000
      2445        20  QMPE      C313          -16.9196546522       10.7529249305        1.8189466224  MEMB      20              0.0000000000
      2446        20  QMPE      H13X          -17.3605204564       10.5634113247        2.8209649394  MEMB      20              0.0000000000
      2447        20  QMPE      H13Y          -17.4657719771       11.3786512743        1.0810149611  MEMB      20              0.0000000000
      2448        20  QMPE      C314          -16.9290039512        9.3413522639        1.1355629457  MEMB      20              0.0000000000
      2449        20  QMPE      H14X          -17.9513065819        8.9089142925        1.1826399754  MEMB      20              0.0000000000
      2450        20  QMPE      H14Y          -16.2524541875        8.6899036496        1.7290398729  MEMB      20              0.0000000000
      2451        20  QMPE      C315          -16.5401818001        9.3506381890       -0.3483050796  MEMB      20              0.0000000000
      2452        20  QMPE      H15X          -15.4577358268        9.5925339805       -0.4124732657  MEMB      20              0.0000000000
      2453        20  QMPE      H15Y          -16.5494429342        8.3160859445       -0.7531976836  MEMB      20              0.0000000000
      2454        20  QMPE      H15Z          -17.1714634071       10.0959549743       -0.8777471925  MEMB      20              0.0000000000
      2455        21  PMPE      N             -12.8490046630      -17.9237817230       21.5739956042  MEMB      21              0.0000000000
      2456        21  PMPE      HN1           -13.6247952075      -18.4165841136       22.0607139134  MEMB      21              0.0000000000
      2457        21  PMPE      HN2           -12.1592396658      -18.6069586089       21.2010431033  MEMB      21              0.0000000000
      2458        21  PMPE      HN3           -12.4690834936      -17.1763707388       22.1893301806  MEMB      21              0.0000000000
      2459        21  PMPE      C12           -13.4366341621      -17.2286082034       20.3658860379  MEMB      21              0.0000000000
      2460        21  PMPE      H12A          -13.5027607626      -16.1537630350       20.6391189689  MEMB      21              0.0000000000
      2461        21  PMPE      H12B          -14.4581061951      -17.6471808922       20.2405358500  MEMB      21              0.0000000000
      2462        21  PMPE      C11           -12.7124771569      -17.4964754985       19.0262064056  MEMB      21              0.0000000000
      2463        21  PMPE      H11A          -13.3107223682      -17.0628283110       18.1965233884  MEMB      21              0.0000000000
      2464        21  PMPE      H11B          -12.7124505021      -18.5781284880       18.7725380815  MEMB      21              0.0000000000
      2465        21  PMPE      P             -11.0668810901      -15.5074210702       18.2362817471  MEMB      21              0.0000000000
      2466        21  PMPE      O13            -9.6869857558      -15.5374614285       17.6211156640  MEMB      21              0.0000000000
      2467        21  PMPE      O14           -11.3377586766      -14.3902608867       19.1423210059  MEMB      21              0.0000000000
      2468        21  PMPE      O11           -12.0615014621      -15.4399556657       17.0726232935  MEMB      21              0.0000000000
      2469        21  PMPE      O12           -11.3735738343      -16.9386339204       18.9615702440  MEMB      21              0.0000000000
      2470        21  PMPE      C1            -12.0107829228      -16.1995584561       15.8275001376  MEMB      21              0.0000000000
      2471        21  PMPE      HA            -13.0221315283      -16.2975539469       15.3781763136  MEMB      21              0.0000000000
      2472        21  PMPE      HB            -11.5836215518      -17.1751464330       16.1438580548  MEMB      21              0.0000000000
      2473        21  PMPE      C2            -11.0814615409      -15.4260574976       14.8583800207  MEMB      21              0.0000000000
      2474        21  PMPE      HS            -10.1821702394      -15.1441255502       15.4466914852  MEMB      21              0.0000000000
      2475        21  PMPE      O21           -11.8283862135      -14.3216460333       14.2789559159  MEMB      21              0.0000000000
      2476        21  PMPE      C21           -11.1316252945      -13.2965771347       13.7348757827  MEMB      21              0.0000000000
      2477        21  PMPE      O22            -9.9576258534      -13.2032193657       13.7237517656  MEMB      21              0.0000000000
      2478        21  PMPE      C22           -12.1205958961      -12.1670621162       13.2443382425  MEMB      21              0.0000000000
      2479        21  PMPE      H2R           -12.1964551241      -11.4521700141       14.0913894456  MEMB      21              0.0000000000
      2480        21  PMPE      H2S           -13.0858325298      -12.7106352339       13.1596780946  MEMB      21              0.0000000000
      2481        21  PMPE      C3            -10.5930424675      -16.3434216240       13.7289530710  MEMB      21              0.0000000000
      2482        21  PMPE      HX            -10.0686137304      -17.1981551504       14.2072062447  MEMB      21              0.0000000000
      2483        21  PMPE      HY             -9.7924950620      -15.8755837035       13.1169296773  MEMB      21              0.0000000000
      2484        21  PMPE      O31           -11.6410565818      -16.9286776948       12.9765261041  MEMB      21              0.0000000000
      2485        21  PMPE      C31           -11.3586281981      -17.5868810118       11.8502965505  MEMB      21              0.0000000000
      2486        21  PMPE      O32           -10.2358483994      -17.6765026317       11.3462787716  MEMB      21              0.0000000000
      2487        21  PMPE      C32           -12.7182198320      -18.1686883720       11.3861931367  MEMB      21              0.0000000000
      2488        21  PMPE      H2X           -13.5460679460      -17.4806645884       11.6611693667  MEMB      21              0.0000000000
      2489        21  PMPE      H2Y           -12.7673102418      -19.1237025789       11.9517540747  MEMB      21              0.0000000000
      2490        21  PMPE      C23           -11.6726050874      -11.5104102979       11.8779832124  MEMB      21              0.0000000000
      2491        21  PMPE      H3R           -10.5653918271      -11.4195766690       11.8901928327  MEMB      21              0.0000000000
      2492        21  PMPE      H3S           -12.2286950608      -10.5504210498       11.8187726852  MEMB      21              0.0000000000
      2493        21  PMPE      C24           -12.1291797132      -12.3105539734       10.6341215796  MEMB      21              0.0000000000
      2494        21  PMPE      H4R           -11.9346733924      -11.6944367935        9.7303030002  MEMB      21              0.0000000000
      2495        21  PMPE      H4S           -13.2222741309      -12.4940466910       10.7102519752  MEMB      21              0.0000000000
      2496        21  PMPE      C25           -11.4451650360      -13.6847193090       10.4272506115  MEMB      21              0.0000000000
      2497        21  PMPE      H5R           -11.8888932898      -14.3166252198       11.2260749799  MEMB      21              0.0000000000
      2498        21  PMPE      H5S           -10.3626022476      -13.6147812547       10.6670154171  MEMB      21              0.0000000000
      2499        21  PMPE      C26           -11.6912809811      -14.1549825497        8.9355387402  MEMB      21              0.0000000000
      2500        21  PMPE      H6R           -11.4481773649      -13.2610798508        8.3222196932  MEMB      21              0.0000000000
      2501        21  PMPE      H6S           -12.7593003315      -14.4309242311        8.8032065107  MEMB      21              0.0000000000
      2502        21  PMPE      C27           -10.8094529138      -15.3005991631        8.3594271614  MEMB      21              0.0000000000
      2503        21  PMPE      H7R           -11.1353895353      -15.4959270549        7.3154288921  MEMB      21              0.0000000000
      2504        21  PMPE      H7S           -11.1265074370      -16.1582818104        8.9904405452  MEMB      21              0.0000000000
      2505        21  PMPE      C28            -9.3005397452      -15.1715161932        8.6172153647  MEMB      21              0.0000000000
      2506        21  PMPE      H8R            -9.1493685460      -15.0688710513        9.7130853241  MEMB      21              0.0000000000
      2507        21  PMPE      H8S            -8.9713805410      -14.2308456435        8.1261810833  MEMB      21              0.0000000000
      2508        21  PMPE      C29            -8.5584692923      -16.3214952558        8.1155328893  MEMB      21              0.0000000000
      2509        21  PMPE      H9R            -8.6474454094      -17.2926853718        8.6476923590  MEMB      21              0.0000000000
      2510        21  PMPE      C217           -7.2295803684      -16.1743347546        7.4346740584  MEMB      21              0.0000000000
      2511        21  PMPE      H17R           -6.5402495826      -16.9411789148        7.7658270261  MEMB      21              0.0000000000
      2512        21  PMPE      H17S           -6.9431859123      -15.1619707221        7.1777965842  MEMB      21              0.0000000000
      2513        21  PMPE      C210           -8.4447505945      -16.5670459045        6.6479218776  MEMB      21              0.0000000000
      2514        21  PMPE      H10R           -8.3924281509      -17.6102344904        6.2693186170  MEMB      21              0.0000000000
      2515        21  PMPE      C211           -8.7546627562      -15.5837770282        5.5280376186  MEMB      21              0.0000000000
      2516        21  PMPE      H11R           -7.9374922263      -14.8752659059        5.2739400592  MEMB      21              0.0000000000
      2517        21  PMPE      H11S           -9.6598962137      -15.0134348447        5.8273421081  MEMB      21              0.0000000000
      2518        21  PMPE      C212           -9.0347607116      -16.3913897975        4.2390862031  MEMB      21              0.0000000000
      2519        21  PMPE      H12R           -9.6943297693      -17.2268458405        4.5573668834  MEMB      21              0.0000000000
      2520        21  PMPE      H12S           -8.0523277540      -16.7779318009        3.8930636228  MEMB      21              0.0000000000
      2521        21  PMPE      C213           -9.6957055383      -15.7209990476        3.0985904850  MEMB      21              0.0000000000
      2522        21  PMPE      H13R           -9.3436232157      -14.6710016333        3.0099099491  MEMB      21              0.0000000000
      2523        21  PMPE      H13S          -10.7837132126      -15.6591635910        3.3147776339  MEMB      21              0.0000000000
      2524        21  PMPE      C214           -9.5152842507      -16.5032606902        1.7974064549  MEMB      21              0.0000000000
      2525        21  PMPE      H14R           -9.5561570910      -17.5780491094        2.0757588688  MEMB      21              0.0000000000
      2526        21  PMPE      H14S           -8.4578131075      -16.2291736088        1.5950407328  MEMB      21              0.0000000000
      2527        21  PMPE      C215          -10.3130277830      -15.9878929702        0.5831832741  MEMB      21              0.0000000000
      2528        21  PMPE      H15R           -9.9232846086      -16.4954854737       -0.3249874134  MEMB      21              0.0000000000
      2529        21  PMPE      H15S          -10.0567492375      -14.9177375061        0.4301803409  MEMB      21              0.0000000000
      2530        21  PMPE      C216          -11.8582176627      -16.1327725912        0.6962003310  MEMB      21              0.0000000000
      2531        21  PMPE      H16R          -12.3374524704      -15.6862138465       -0.2011503460  MEMB      21              0.0000000000
      2532        21  PMPE      H16S          -12.1810847965      -17.1948953813        0.6517845099  MEMB      21              0.0000000000
      2533        21  PMPE      H16T          -12.3505118672      -15.7137370025        1.5997365108  MEMB      21              0.0000000000
      2534        21  PMPE      C33           -12.7344891265      -18.4363101053        9.8367801281  MEMB      21              0.0000000000
      2535        21  PMPE      H3X           -11.7957530347      -18.9834602578        9.6049988791  MEMB      21              0.0000000000
      2536        21  PMPE      H3Y           -12.8137619928      -17.4555514788        9.3208835321  MEMB      21              0.0000000000
      2537        21  PMPE      C34           -13.8216570365      -19.3255258758        9.2823353011  MEMB      21              0.0000000000
      2538        21  PMPE      H4X           -14.8805063109      -19.0426816520        9.4644294238  MEMB      21              0.0000000000
      2539        21  PMPE      H4Y           -13.6884931937      -20.2840960732        9.8279832658  MEMB      21              0.0000000000
      2540        21  PMPE      C35           -13.7272673546      -19.5970066672        7.8306683829  MEMB      21              0.0000000000
      2541        21  PMPE      H5X           -14.3096515335      -20.5358865954        7.7138183470  MEMB      21              0.0000000000
      2542        21  PMPE      H5Y           -12.6718218605      -19.8858372064        7.6384902906  MEMB      21              0.0000000000
      2543        21  PMPE      C36           -14.2527058800      -18.4338533340        6.9051725028  MEMB      21              0.0000000000
      2544        21  PMPE      H6X           -13.7653116362      -17.5320134712        7.3334864689  MEMB      21              0.0000000000
      2545        21  PMPE      H6Y           -15.3371230370      -18.2038691276        6.9791176085  MEMB      21              0.0000000000
      2546        21  PMPE      C37           -13.7667530414      -18.5404122066        5.4565017261  MEMB      21              0.0000000000
      2547        21  PMPE      H7X           -13.6758709764      -19.5829986965        5.0835746044  MEMB      21              0.0000000000
      2548        21  PMPE      H7Y           -12.7305161399      -18.1504738040        5.3644053347  MEMB      21              0.0000000000
      2549        21  PMPE      C38           -14.4450319659      -17.5989438406        4.3661777544  MEMB      21              0.0000000000
      2550        21  PMPE      H8X           -15.4140856456      -18.0905297050        4.1346624851  MEMB      21              0.0000000000
      2551        21  PMPE      H8Y           -13.7088532631      -17.5365758003        3.5364359105  MEMB      21              0.0000000000
      2552        21  PMPE      C39           -14.6918290646      -16.1610546670        4.9122829020  MEMB      21              0.0000000000
      2553        21  PMPE      H9X           -13.8106447385      -15.7708940272        5.4651026385  MEMB      21              0.0000000000
      2554        21  PMPE      H9Y           -15.6223137430      -16.0715211119        5.5127021219  MEMB      21              0.0000000000
      2555        21  PMPE      C310          -14.8594649483      -15.2093361127        3.6709542054  MEMB      21              0.0000000000
      2556        21  PMPE      H10X          -15.7855793740      -15.2914295282        3.0627655984  MEMB      21              0.0000000000
      2557        21  PMPE      H10Y          -14.0638014547      -15.5982243551        3.0001292221  MEMB      21              0.0000000000
      2558        21  PMPE      C311          -14.7039393062      -13.7484456733        3.9759363192  MEMB      21              0.0000000000
      2559        21  PMPE      H11X          -13.7984648615      -13.6517889377        4.6124062431  MEMB      21              0.0000000000
      2560        21  PMPE      H11Y          -15.5903095622      -13.3048697250        4.4778416690  MEMB      21              0.0000000000
      2561        21  PMPE      C312          -14.3620545909      -12.9148640053        2.7231120326  MEMB      21              0.0000000000
      2562        21  PMPE      H12X          -15.2410541530      -12.9623774127        2.0453038779  MEMB      21              0.0000000000
      2563        21  PMPE      H12Y          -13.4342866837      -13.2817201128        2.2342497945  MEMB      21              0.0000000000
      2564        21  PMPE      C313          -14.1480717578      -11.3776369202        2.8542773538  MEMB      21              0.0000000000
      2565        21  PMPE      H13X          -13.3047761527      -11.1046222349        3.5240811256  MEMB      21              0.0000000000
      2566        21  PMPE      H13Y          -15.0937316877      -10.9018991113        3.1915030551  MEMB      21              0.0000000000
      2567        21  PMPE      C314          -13.6756288337      -10.7583920231        1.5211583933  MEMB      21              0.0000000000
      2568        21  PMPE      H14X          -13.4590975615       -9.6791817593        1.6719554682  MEMB      21              0.0000000000
      2569        21  PMPE      H14Y          -14.6496358323      -10.8256149318        0.9909586621  MEMB      21              0.0000000000
      2570        21  PMPE      C315          -12.5425190237      -11.3948101368        0.6828709015  MEMB      21              0.0000000000
      2571        21  PMPE      H15X          -12.5866249558      -10.8911694230       -0.3064311788  MEMB      21              0.0000000000
      2572        21  PMPE      H15Y          -12.8112200777      -12.4607746580        0.5221209610  MEMB      21              0.0000000000
      2573        21  PMPE      C316          -11.1347626871      -11.2161406665        1.2163316593  MEMB      21              0.0000000000
      2574        21  PMPE      H16X          -10.8849274758      -10.1917614735        1.5664030710  MEMB      21              0.0000000000
      2575        21  PMPE      H16Y          -10.4289217063      -11.5186061710        0.4134460527  MEMB      21              0.0000000000
      2576        21  PMPE      H16Z          -10.9896692036      -11.8790094701        2.0960330318  MEMB      21              0.0000000000
      2577        22  PMPE      N              18.4030644443        3.2808022059       17.6406541621  MEMB      22              0.0000000000
      2578        22  PMPE      HN1            19.2806523604        3.8364672160       17.6923821658  MEMB      22              0.0000000000
      2579        22  PMPE      HN2            17.9913683507        3.4456492847       16.6999459841  MEMB      22              0.0000000000
      2580        22  PMPE      HN3            17.7251648533        3.5607966930       18.3779840243  MEMB      22              0.0000000000
      2581        22  PMPE      C12            18.5459936983        1.8426776181       17.8187807439  MEMB      22              0.0000000000
      2582        22  PMPE      H12A           19.3066859574        1.4885032083       17.0906126547  MEMB      22              0.0000000000
      2583        22  PMPE      H12B           17.5787502311        1.3112318058       17.6910061676  MEMB      22              0.0000000000
      2584        22  PMPE      C11            19.0664542539        1.6768676745       19.2943547651  MEMB      22              0.0000000000
      2585        22  PMPE      H11A           19.1157254751        0.5850582432       19.4939684610  MEMB      22              0.0000000000
      2586        22  PMPE      H11B           18.2528357204        2.1292872340       19.9007065357  MEMB      22              0.0000000000
      2587        22  PMPE      P              21.6698466046        1.7130838321       19.5090928771  MEMB      22              0.0000000000
      2588        22  PMPE      O13            21.9223781720        0.8210475898       20.6980130868  MEMB      22              0.0000000000
      2589        22  PMPE      O14            22.7275934163        2.6838802099       19.1871446644  MEMB      22              0.0000000000
      2590        22  PMPE      O11            21.5996828734        0.7561708589       18.2084824202  MEMB      22              0.0000000000
      2591        22  PMPE      O12            20.2007849391        2.4408396117       19.6434772787  MEMB      22              0.0000000000
      2592        22  PMPE      C1             22.8807727691        0.3867688952       17.6813831670  MEMB      22              0.0000000000
      2593        22  PMPE      HA             22.6691736176       -0.6274514989       17.2802548431  MEMB      22              0.0000000000
      2594        22  PMPE      HB             23.7038264680        0.2721245478       18.4187843892  MEMB      22              0.0000000000
      2595        22  PMPE      C2             23.3901471990        1.2946373279       16.5286622299  MEMB      22              0.0000000000
      2596        22  PMPE      HS             23.6698283282        2.2172902779       17.0807591471  MEMB      22              0.0000000000
      2597        22  PMPE      O21            22.3783937379        1.5111179370       15.5146748957  MEMB      22              0.0000000000
      2598        22  PMPE      C21            21.5951596461        2.6104995170       15.5976659663  MEMB      22              0.0000000000
      2599        22  PMPE      O22            21.7859540620        3.5141458531       16.3590942749  MEMB      22              0.0000000000
      2600        22  PMPE      C22            20.4978440332        2.5117575914       14.5319746800  MEMB      22              0.0000000000
      2601        22  PMPE      H2R            19.7062986485        3.2605198613       14.7490738523  MEMB      22              0.0000000000
      2602        22  PMPE      H2S            20.0922175805        1.4881308957       14.3837298429  MEMB      22              0.0000000000
      2603        22  PMPE      C3             24.6223177222        0.6684534400       15.8488647173  MEMB      22              0.0000000000
      2604        22  PMPE      HX             25.2059867766        0.0217595406       16.5383853472  MEMB      22              0.0000000000
      2605        22  PMPE      HY             25.3329757140        1.4184854816       15.4405294383  MEMB      22              0.0000000000
      2606        22  PMPE      O31            24.2701676423       -0.3066804264       14.8530056950  MEMB      22              0.0000000000
      2607        22  PMPE      C31            24.1655990330        0.1322818617       13.5569318338  MEMB      22              0.0000000000
      2608        22  PMPE      O32            24.3903555215        1.2628284497       13.1806408331  MEMB      22              0.0000000000
      2609        22  PMPE      C32            23.6956662393       -0.9786390986       12.5842931543  MEMB      22              0.0000000000
      2610        22  PMPE      H2X            22.6080755563       -1.2037322938       12.6125863837  MEMB      22              0.0000000000
      2611        22  PMPE      H2Y            24.2675142543       -1.8908157422       12.8586012796  MEMB      22              0.0000000000
      2612        22  PMPE      C23            21.1237356583        3.0166885921       13.1921809569  MEMB      22              0.0000000000
      2613        22  PMPE      H3R            21.9941377881        2.3754930907       12.9360769266  MEMB      22              0.0000000000
      2614        22  PMPE      H3S            21.5241622882        4.0125380749       13.4789970635  MEMB      22              0.0000000000
      2615        22  PMPE      C24            20.1148839732        3.0319379447       12.0623537299  MEMB      22              0.0000000000
      2616        22  PMPE      H4R            20.3686525002        3.7353180488       11.2406609488  MEMB      22              0.0000000000
      2617        22  PMPE      H4S            19.1161539408        3.4399399973       12.3276718099  MEMB      22              0.0000000000
      2618        22  PMPE      C25            19.8311794503        1.6388660546       11.4931350684  MEMB      22              0.0000000000
      2619        22  PMPE      H5R            19.6642956132        1.0860990884       12.4423025034  MEMB      22              0.0000000000
      2620        22  PMPE      H5S            20.6926550586        1.2738993306       10.8939857989  MEMB      22              0.0000000000
      2621        22  PMPE      C26            18.5783458167        1.4438396453       10.5820975536  MEMB      22              0.0000000000
      2622        22  PMPE      H6R            17.7315527771        1.8991124456       11.1388644709  MEMB      22              0.0000000000
      2623        22  PMPE      H6S            18.2817824492        0.3742904594       10.5327481009  MEMB      22              0.0000000000
      2624        22  PMPE      C27            18.7090430836        2.1221298799        9.1701860465  MEMB      22              0.0000000000
      2625        22  PMPE      H7R            18.8621093337        3.1922920265        9.4263985793  MEMB      22              0.0000000000
      2626        22  PMPE      H7S            17.6855577448        2.0430263137        8.7452840513  MEMB      22              0.0000000000
      2627        22  PMPE      C28            19.8814314671        1.5440368526        8.4248399321  MEMB      22              0.0000000000
      2628        22  PMPE      H8R            20.8529529017        1.8019330406        8.8980806985  MEMB      22              0.0000000000
      2629        22  PMPE      H8S            20.0130348116        2.0296105188        7.4342751149  MEMB      22              0.0000000000
      2630        22  PMPE      C29            19.7595632425        0.0199657807        8.2409067953  MEMB      22              0.0000000000
      2631        22  PMPE      H9R            19.5755622784       -0.6359861701        9.1185125461  MEMB      22              0.0000000000
      2632        22  PMPE      C217           20.7080626944       -0.5596106160        7.1824314591  MEMB      22              0.0000000000
      2633        22  PMPE      H17R           21.1266568449       -1.5054807277        7.5033644760  MEMB      22              0.0000000000
      2634        22  PMPE      H17S           21.2711799700        0.2310478225        6.7021746115  MEMB      22              0.0000000000
      2635        22  PMPE      C210           19.1682959398       -0.6117160975        6.9903026403  MEMB      22              0.0000000000
      2636        22  PMPE      H10R           18.6975010507       -1.5781151160        7.2709198315  MEMB      22              0.0000000000
      2637        22  PMPE      C211           18.4516295497        0.3865756570        5.9785385923  MEMB      22              0.0000000000
      2638        22  PMPE      H11R           19.0431689254        1.1460264767        5.4238886149  MEMB      22              0.0000000000
      2639        22  PMPE      H11S           17.6392716910        0.9602825848        6.4737720803  MEMB      22              0.0000000000
      2640        22  PMPE      C212           17.6310055219       -0.3993509669        4.9413164223  MEMB      22              0.0000000000
      2641        22  PMPE      H12R           17.1272115819       -1.2451994312        5.4561492035  MEMB      22              0.0000000000
      2642        22  PMPE      H12S           18.3515431741       -0.8944620990        4.2557426878  MEMB      22              0.0000000000
      2643        22  PMPE      C213           16.5101635807        0.2844240348        4.0925970502  MEMB      22              0.0000000000
      2644        22  PMPE      H13R           15.8158404406        0.9293413815        4.6725254812  MEMB      22              0.0000000000
      2645        22  PMPE      H13S           15.8523482270       -0.5483676053        3.7638744214  MEMB      22              0.0000000000
      2646        22  PMPE      C214           16.9260632169        0.9188344745        2.8010510329  MEMB      22              0.0000000000
      2647        22  PMPE      H14R           16.0140555351        1.2164952967        2.2407283075  MEMB      22              0.0000000000
      2648        22  PMPE      H14S           17.5616614040        0.2422740140        2.1906396562  MEMB      22              0.0000000000
      2649        22  PMPE      C215           17.8154861257        2.1668250265        2.9309415665  MEMB      22              0.0000000000
      2650        22  PMPE      H15R           18.2358548035        2.5653258370        1.9828863200  MEMB      22              0.0000000000
      2651        22  PMPE      H15S           18.6887923998        1.8543271066        3.5424994858  MEMB      22              0.0000000000
      2652        22  PMPE      C216           17.0802181664        3.3647677873        3.5818770272  MEMB      22              0.0000000000
      2653        22  PMPE      H16R           16.2655611986        3.7925789175        2.9592755357  MEMB      22              0.0000000000
      2654        22  PMPE      H16S           16.5901737207        3.1447450090        4.5543823753  MEMB      22              0.0000000000
      2655        22  PMPE      H16T           17.8224061824        4.1502843188        3.8396387745  MEMB      22              0.0000000000
      2656        22  PMPE      C33            24.2266061338       -0.5287387722       11.1606760297  MEMB      22              0.0000000000
      2657        22  PMPE      H3X            25.3179167683       -0.3205024614       11.1609730410  MEMB      22              0.0000000000
      2658        22  PMPE      H3Y            23.6968109206        0.4178266072       10.9205681862  MEMB      22              0.0000000000
      2659        22  PMPE      C34            23.8842260058       -1.4603690549        9.9375997239  MEMB      22              0.0000000000
      2660        22  PMPE      H4X            22.8887994169       -1.9507596986        9.9920411407  MEMB      22              0.0000000000
      2661        22  PMPE      H4Y            24.6540119476       -2.2556895153       10.0335998871  MEMB      22              0.0000000000
      2662        22  PMPE      C35            23.9256292690       -0.8742842228        8.5350667552  MEMB      22              0.0000000000
      2663        22  PMPE      H5X            24.8565885404       -0.3060837429        8.3234446126  MEMB      22              0.0000000000
      2664        22  PMPE      H5Y            22.9872598612       -0.3023835379        8.3716231238  MEMB      22              0.0000000000
      2665        22  PMPE      C36            23.9153636995       -2.0197740275        7.4728680655  MEMB      22              0.0000000000
      2666        22  PMPE      H6X            22.8886319824       -2.4429109050        7.4397280420  MEMB      22              0.0000000000
      2667        22  PMPE      H6Y            24.5449853272       -2.8734661804        7.8031831678  MEMB      22              0.0000000000
      2668        22  PMPE      C37            24.3428301109       -1.6493489600        6.0466414889  MEMB      22              0.0000000000
      2669        22  PMPE      H7X            24.2030065946       -2.5792594541        5.4550024098  MEMB      22              0.0000000000
      2670        22  PMPE      H7Y            25.3653123014       -1.2160990489        6.0127907046  MEMB      22              0.0000000000
      2671        22  PMPE      C38            23.4564185635       -0.6527533467        5.3251646710  MEMB      22              0.0000000000
      2672        22  PMPE      H8X            23.1957624761        0.1793720265        6.0136025713  MEMB      22              0.0000000000
      2673        22  PMPE      H8Y            22.5133680923       -1.0928588866        4.9362126330  MEMB      22              0.0000000000
      2674        22  PMPE      C39            24.1311635827       -0.0382353146        4.1158264401  MEMB      22              0.0000000000
      2675        22  PMPE      H9X            24.0791974300       -0.7173121545        3.2380589274  MEMB      22              0.0000000000
      2676        22  PMPE      H9Y            25.1292614344        0.3393765688        4.4249065204  MEMB      22              0.0000000000
      2677        22  PMPE      C310           23.3288143307        1.2059844836        3.6504275217  MEMB      22              0.0000000000
      2678        22  PMPE      H10X           23.9758856490        1.7445860023        2.9254946362  MEMB      22              0.0000000000
      2679        22  PMPE      H10Y           23.1925556758        1.9957747537        4.4198338294  MEMB      22              0.0000000000
      2680        22  PMPE      C311           22.0044559952        1.0300487228        2.9367902372  MEMB      22              0.0000000000
      2681        22  PMPE      H11X           21.7522601705        2.0921432442        2.7302138085  MEMB      22              0.0000000000
      2682        22  PMPE      H11Y           21.2631345845        0.7728617510        3.7233129049  MEMB      22              0.0000000000
      2683        22  PMPE      C312           21.9770281310        0.1436349953        1.6875633767  MEMB      22              0.0000000000
      2684        22  PMPE      H12X           22.2029373420       -0.8896614240        2.0275405211  MEMB      22              0.0000000000
      2685        22  PMPE      H12Y           22.7990963000        0.3162544309        0.9604262349  MEMB      22              0.0000000000
      2686        22  PMPE      C313           20.5015649063        0.1583784260        1.1571457619  MEMB      22              0.0000000000
      2687        22  PMPE      H13X           20.2219300869        1.2334183492        1.1775092756  MEMB      22              0.0000000000
      2688        22  PMPE      H13Y           19.9062621480       -0.4991948694        1.8261248814  MEMB      22              0.0000000000
      2689        22  PMPE      C314           20.4289335196       -0.4213696347       -0.3118771351  MEMB      22              0.0000000000
      2690        22  PMPE      H14X           19.3543761420       -0.3986355969       -0.5931773900  MEMB      22              0.0000000000
      2691        22  PMPE      H14Y           20.6781158189       -1.5034132735       -0.3494381074  MEMB      22              0.0000000000
      2692        22  PMPE      C315           21.2986281291        0.3619873622       -1.2794189689  MEMB      22              0.0000000000
      2693        22  PMPE      H15X           22.3225120382       -0.0430474758       -1.1313330807  MEMB      22              0.0000000000
      2694        22  PMPE      H15Y           21.3070424502        1.4554417292       -1.0829321851  MEMB      22              0.0000000000
      2695        22  PMPE      C316           20.9467092977        0.2415280018       -2.7468661537  MEMB      22              0.0000000000
      2696        22  PMPE      H16X           19.9005699177        0.5516727899       -2.9559659969  MEMB      22              0.0000000000
      2697        22  PMPE      H16Y           21.1268047074       -0.8208719129       -3.0174075563  MEMB      22              0.0000000000
      2698        22  PMPE      H16Z           21.5476819526        0.8743764433       -3.4343649592  MEMB      22              0.0000000000
      2699        23  PYPG      C13           -22.7673642195       -0.1168857692       20.0102676523  MEMB      23              0.0000000000
      2700        23  PYPG      H13A          -22.0846927507        0.6724198564       19.6291151251  MEMB      23              0.0000000000
      2701        23  PYPG      H13B          -23.7767763523        0.3267294303       19.8738362748  MEMB      23              0.0000000000
      2702        23  PYPG      OC3           -22.5348382179       -0.0978069413       21.3709236184  MEMB      23              0.0000000000
      2703        23  PYPG      HO3           -21.8610852528        0.5726313189       21.5057175770  MEMB      23              0.0000000000
      2704        23  PYPG      C12           -22.4515684942       -1.4958901514       19.4652240514  MEMB      23              0.0000000000
      2705        23  PYPG      H12A          -22.6417595396       -1.4694658897       18.3670855517  MEMB      23              0.0000000000
      2706        23  PYPG      OC2           -23.3283622664       -2.4652232676       20.0411293224  MEMB      23              0.0000000000
      2707        23  PYPG      HO2           -22.9514569046       -3.3169533466       19.7293360241  MEMB      23              0.0000000000
      2708        23  PYPG      C11           -21.0045502064       -1.9937767516       19.6363181447  MEMB      23              0.0000000000
      2709        23  PYPG      H11A          -20.9519950507       -3.0983963649       19.5296669956  MEMB      23              0.0000000000
      2710        23  PYPG      H11B          -20.8947667797       -1.8803881691       20.7360506644  MEMB      23              0.0000000000
      2711        23  PYPG      P             -19.0584105990       -1.9400276680       17.9051614779  MEMB      23              0.0000000000
      2712        23  PYPG      O13           -19.7215523797       -3.0202303632       17.1226292533  MEMB      23              0.0000000000
      2713        23  PYPG      O14           -17.8847817169       -2.3403118247       18.7224447812  MEMB      23              0.0000000000
      2714        23  PYPG      O11           -18.4959908377       -0.9068584235       16.8244819331  MEMB      23              0.0000000000
      2715        23  PYPG      O12           -20.1125990684       -1.1863075397       18.9014197626  MEMB      23              0.0000000000
      2716        23  PYPG      C1            -19.3626992171        0.1089923479       16.3577908065  MEMB      23              0.0000000000
      2717        23  PYPG      HA            -18.7247302323        0.9743991169       16.0778126395  MEMB      23              0.0000000000
      2718        23  PYPG      HB            -20.0135412185        0.5713216880       17.1304337443  MEMB      23              0.0000000000
      2719        23  PYPG      C2            -20.2518843068       -0.3688554107       15.1915941650  MEMB      23              0.0000000000
      2720        23  PYPG      HS            -21.0606999772       -0.9672910524       15.6627765014  MEMB      23              0.0000000000
      2721        23  PYPG      O21           -19.3685196064       -1.0432162388       14.3189149101  MEMB      23              0.0000000000
      2722        23  PYPG      C21           -19.9026076123       -2.0064138932       13.5018580947  MEMB      23              0.0000000000
      2723        23  PYPG      O22           -21.1003373000       -2.2677626565       13.4324711151  MEMB      23              0.0000000000
      2724        23  PYPG      C22           -18.8147582871       -2.9288308682       12.8654606922  MEMB      23              0.0000000000
      2725        23  PYPG      H2R           -19.2003133715       -3.3917525360       11.9319879479  MEMB      23              0.0000000000
      2726        23  PYPG      H2S           -18.6021057756       -3.6808505529       13.6551232965  MEMB      23              0.0000000000
      2727        23  PYPG      C3            -20.8621409189        0.9365843549       14.5042108457  MEMB      23              0.0000000000
      2728        23  PYPG      HX            -21.5028670698        1.3963765930       15.2867594245  MEMB      23              0.0000000000
      2729        23  PYPG      HY            -21.4057542760        0.5908494571       13.5990737855  MEMB      23              0.0000000000
      2730        23  PYPG      O31           -19.8767175562        1.8747453402       14.1442395793  MEMB      23              0.0000000000
      2731        23  PYPG      C31           -20.3043793272        2.9927673491       13.5962748142  MEMB      23              0.0000000000
      2732        23  PYPG      O32           -21.4861275032        3.2504781911       13.5161929404  MEMB      23              0.0000000000
      2733        23  PYPG      C32           -19.1555792798        3.9019376599       13.3124623183  MEMB      23              0.0000000000
      2734        23  PYPG      H2X           -19.3776660550        4.9043469366       13.7369312480  MEMB      23              0.0000000000
      2735        23  PYPG      H2Y           -18.1987877699        3.6340923605       13.8095841431  MEMB      23              0.0000000000
      2736        23  PYPG      C23           -17.5201891139       -2.2705896332       12.5248869383  MEMB      23              0.0000000000
      2737        23  PYPG      H3R           -16.8830510303       -2.9937870308       11.9722914903  MEMB      23              0.0000000000
      2738        23  PYPG      H3S           -16.8908622091       -2.1679206409       13.4346823660  MEMB      23              0.0000000000
      2739        23  PYPG      C24           -17.5776344634       -1.0297860476       11.5998314265  MEMB      23              0.0000000000
      2740        23  PYPG      H4R           -18.2164639891       -0.2395288142       12.0489546134  MEMB      23              0.0000000000
      2741        23  PYPG      H4S           -17.9973538983       -1.2392049867       10.5927069816  MEMB      23              0.0000000000
      2742        23  PYPG      C25           -16.2241686649       -0.2880148620       11.4552596192  MEMB      23              0.0000000000
      2743        23  PYPG      H5R           -15.7033460948       -0.2518548546       12.4359517305  MEMB      23              0.0000000000
      2744        23  PYPG      H5S           -16.4469677811        0.7532944861       11.1384688354  MEMB      23              0.0000000000
      2745        23  PYPG      C26           -15.3526546330       -0.9298787725       10.3834036846  MEMB      23              0.0000000000
      2746        23  PYPG      H6R           -15.2201692067       -1.9966224631       10.6641638237  MEMB      23              0.0000000000
      2747        23  PYPG      H6S           -14.3267418155       -0.5052981073       10.4228411245  MEMB      23              0.0000000000
      2748        23  PYPG      C27           -15.7820801386       -0.7440839952        8.9057214150  MEMB      23              0.0000000000
      2749        23  PYPG      H7R           -15.5357356085        0.3293099447        8.7592252395  MEMB      23              0.0000000000
      2750        23  PYPG      H7S           -16.8772027580       -0.8086829198        8.7300677107  MEMB      23              0.0000000000
      2751        23  PYPG      C28           -15.1269620803       -1.7872032593        7.9534248162  MEMB      23              0.0000000000
      2752        23  PYPG      H8R           -15.6604973905       -2.7615954748        7.9682898212  MEMB      23              0.0000000000
      2753        23  PYPG      H8S           -14.0728675198       -1.9248969355        8.2762967049  MEMB      23              0.0000000000
      2754        23  PYPG      C29           -14.9840634994       -1.1392261652        6.5550738777  MEMB      23              0.0000000000
      2755        23  PYPG      H9R           -14.2376635965       -0.3347079995        6.4799892780  MEMB      23              0.0000000000
      2756        23  PYPG      C210          -15.6155996711       -1.5895780709        5.4195207246  MEMB      23              0.0000000000
      2757        23  PYPG      H10R          -15.4796164480       -0.9436802475        4.5395643861  MEMB      23              0.0000000000
      2758        23  PYPG      C211          -16.5919329268       -2.7360933935        5.2404423128  MEMB      23              0.0000000000
      2759        23  PYPG      H11R          -17.6298265885       -2.3855646746        5.0554364922  MEMB      23              0.0000000000
      2760        23  PYPG      H11S          -16.5155991179       -3.2949511683        6.1976110561  MEMB      23              0.0000000000
      2761        23  PYPG      C212          -16.2225240237       -3.6491392992        4.0298742133  MEMB      23              0.0000000000
      2762        23  PYPG      H12R          -16.9247046653       -4.5100379779        4.0406945306  MEMB      23              0.0000000000
      2763        23  PYPG      H12S          -15.1904692054       -3.9665553723        4.2914672282  MEMB      23              0.0000000000
      2764        23  PYPG      C213          -16.2768412372       -3.1035913525        2.6017099873  MEMB      23              0.0000000000
      2765        23  PYPG      H13R          -15.8429310678       -3.9324579757        2.0025246127  MEMB      23              0.0000000000
      2766        23  PYPG      H13S          -15.7441601506       -2.1466914247        2.4148552151  MEMB      23              0.0000000000
      2767        23  PYPG      C214          -17.7500376712       -2.8960035449        2.2522837340  MEMB      23              0.0000000000
      2768        23  PYPG      H14R          -18.3903207204       -3.5064383656        2.9243919178  MEMB      23              0.0000000000
      2769        23  PYPG      H14S          -18.0872184734       -1.8386421314        2.3034432090  MEMB      23              0.0000000000
      2770        23  PYPG      C215          -18.1030366086       -3.2763818643        0.8280004229  MEMB      23              0.0000000000
      2771        23  PYPG      H15R          -19.2131002669       -3.2815261853        0.7826836033  MEMB      23              0.0000000000
      2772        23  PYPG      H15S          -17.9345909458       -4.3601543890        0.6508461593  MEMB      23              0.0000000000
      2773        23  PYPG      C216          -17.7104437387       -2.3615175835       -0.3000074533  MEMB      23              0.0000000000
      2774        23  PYPG      H16R          -17.9698074268       -2.7253814558       -1.3171878182  MEMB      23              0.0000000000
      2775        23  PYPG      H16S          -16.6170284608       -2.1718202473       -0.2472878944  MEMB      23              0.0000000000
      2776        23  PYPG      H16T          -18.2834489738       -1.4481308008       -0.0322198766  MEMB      23              0.0000000000
      2777        23  PYPG      C33           -19.0328559495        4.1463243847       11.7735131600  MEMB      23              0.0000000000
      2778        23  PYPG      H3X           -18.1649520283        4.8347584401       11.6891166453  MEMB      23              0.0000000000
      2779        23  PYPG      H3Y           -19.8865238679        4.7755385109       11.4423601866  MEMB      23              0.0000000000
      2780        23  PYPG      C34           -19.0474286923        2.9044867831       10.8813902312  MEMB      23              0.0000000000
      2781        23  PYPG      H4X           -18.7582693589        2.0401919056       11.5167656171  MEMB      23              0.0000000000
      2782        23  PYPG      H4Y           -18.1938869606        2.9977980196       10.1763508647  MEMB      23              0.0000000000
      2783        23  PYPG      C35           -20.5068478552        2.6089696197       10.2517876620  MEMB      23              0.0000000000
      2784        23  PYPG      H5X           -20.9982912749        3.5729482373        9.9996964784  MEMB      23              0.0000000000
      2785        23  PYPG      H5Y           -21.1713903836        2.0500827757       10.9448597140  MEMB      23              0.0000000000
      2786        23  PYPG      C36           -20.4212231843        1.7043911515        9.0694027333  MEMB      23              0.0000000000
      2787        23  PYPG      H6X           -21.4344793038        1.5610672685        8.6368624459  MEMB      23              0.0000000000
      2788        23  PYPG      H6Y           -20.0320606534        0.7021771523        9.3494758469  MEMB      23              0.0000000000
      2789        23  PYPG      C37           -19.5287143556        2.2988376125        7.9646219940  MEMB      23              0.0000000000
      2790        23  PYPG      H7X           -19.6956389182        3.3892659513        7.8326262148  MEMB      23              0.0000000000
      2791        23  PYPG      H7Y           -18.4473087104        2.1972329072        8.1982014669  MEMB      23              0.0000000000
      2792        23  PYPG      C38           -19.7530287055        1.6035552424        6.5988678128  MEMB      23              0.0000000000
      2793        23  PYPG      H8X           -20.8376820583        1.6751549622        6.3692564255  MEMB      23              0.0000000000
      2794        23  PYPG      H8Y           -19.4987213265        0.5255630518        6.6859418498  MEMB      23              0.0000000000
      2795        23  PYPG      C39           -18.9313978836        2.3063521017        5.5161131063  MEMB      23              0.0000000000
      2796        23  PYPG      H9X           -17.8459544178        2.2993097243        5.7529330845  MEMB      23              0.0000000000
      2797        23  PYPG      H9Y           -19.2097142337        3.3723315336        5.6594621313  MEMB      23              0.0000000000
      2798        23  PYPG      C310          -19.3019551511        2.0573896724        4.0525876212  MEMB      23              0.0000000000
      2799        23  PYPG      H10X          -20.2856664584        2.5155514694        3.8144256358  MEMB      23              0.0000000000
      2800        23  PYPG      H10Y          -19.5308882804        0.9712632682        4.0052581962  MEMB      23              0.0000000000
      2801        23  PYPG      C311          -18.1794963433        2.3640041312        3.0699192029  MEMB      23              0.0000000000
      2802        23  PYPG      H11X          -17.6052728283        1.4278008322        2.9022544373  MEMB      23              0.0000000000
      2803        23  PYPG      H11Y          -17.4515698657        3.1600011434        3.3360632928  MEMB      23              0.0000000000
      2804        23  PYPG      C312          -18.7827856122        2.9677075709        1.7450713803  MEMB      23              0.0000000000
      2805        23  PYPG      H12X          -19.6024084471        2.3104195079        1.3838074780  MEMB      23              0.0000000000
      2806        23  PYPG      H12Y          -19.2765718531        3.9260306791        2.0136110770  MEMB      23              0.0000000000
      2807        23  PYPG      C313          -17.7741017758        3.1475612148        0.6333303298  MEMB      23              0.0000000000
      2808        23  PYPG      H13X          -17.2587618237        4.1271692890        0.7287955595  MEMB      23              0.0000000000
      2809        23  PYPG      H13Y          -17.0106859093        2.3425358673        0.5745822758  MEMB      23              0.0000000000
      2810        23  PYPG      C314          -18.4381607715        3.1520427352       -0.7807882825  MEMB      23              0.0000000000
      2811        23  PYPG      H14X          -19.4589886958        3.5309276322       -0.5601593960  MEMB      23              0.0000000000
      2812        23  PYPG      H14Y          -17.9787072285        3.8730172050       -1.4903072698  MEMB      23              0.0000000000
      2813        23  PYPG      C315          -18.5700215304        1.8066175923       -1.4773242236  MEMB      23              0.0000000000
      2814        23  PYPG      H15X          -18.8380228551        1.0754812043       -0.6849009512  MEMB      23              0.0000000000
      2815        23  PYPG      H15Y          -19.2936950989        1.9463406261       -2.3086463629  MEMB      23              0.0000000000
      2816        23  PYPG      C316          -17.3770410902        1.2341634773       -2.1789130716  MEMB      23              0.0000000000
      2817        23  PYPG      H16X          -17.7408845653        0.3487288531       -2.7427792111  MEMB      23              0.0000000000
      2818        23  PYPG      H16Y          -16.4663334932        0.9747471316       -1.5978487947  MEMB      23              0.0000000000
      2819        23  PYPG      H16Z          -16.9878730185        1.9543179309       -2.9300768227  MEMB      23              0.0000000000
      2820        24  PVCL2     C3             14.3519511516      -16.4595853555       21.4079473344  MEMB      24              0.0000000000
      2821        24  PVCL2     HG31           14.2152026211      -16.7056468732       20.3332033794  MEMB      24              0.0000000000
      2822        24  PVCL2     HG32           13.8126703888      -17.1934201161       22.0443305081  MEMB      24              0.0000000000
      2823        24  PVCL2     P3             12.3750100737      -14.9228492847       21.8936966100  MEMB      24              0.0000000000
      2824        24  PVCL2     OP33           12.2123879569      -13.4867525672       22.2176241850  MEMB      24              0.0000000000
      2825        24  PVCL2     OP34           11.8407163926      -15.8003107505       22.9320145916  MEMB      24              0.0000000000
      2826        24  PVCL2     OP31           13.9006495262      -15.1941304327       21.7562215197  MEMB      24              0.0000000000
      2827        24  PVCL2     OP32           11.8076483408      -15.2552540695       20.4173237189  MEMB      24              0.0000000000
      2828        24  PVCL2     C31            12.0019365890      -14.2405149546       19.4229844828  MEMB      24              0.0000000000
      2829        24  PVCL2     H31J           11.4278245158      -13.3133635125       19.6353678964  MEMB      24              0.0000000000
      2830        24  PVCL2     H31K           13.0874541583      -14.0771292750       19.2518768817  MEMB      24              0.0000000000
      2831        24  PVCL2     C2             15.7828658358      -16.4940496829       21.7156274577  MEMB      24              0.0000000000
      2832        24  PVCL2     HG22           15.8461232220      -15.9179527656       22.6634839711  MEMB      24              0.0000000000
      2833        24  PVCL2     OG12           16.1864091029      -17.8896277448       21.8555206639  MEMB      24              0.0000000000
      2834        24  PVCL2     HO12           16.9647306227      -18.0378057603       22.3976082844  MEMB      24              0.0000000000
      2835        24  PVCL2     C1             16.6428245534      -15.7649077954       20.6776197135  MEMB      24              0.0000000000
      2836        24  PVCL2     HG11           17.7212912522      -15.9139819132       20.8989960132  MEMB      24              0.0000000000
      2837        24  PVCL2     HG12           16.3570914493      -14.6964475341       20.7828352451  MEMB      24              0.0000000000
      2838        24  PVCL2     P1             16.5477701083      -15.2751930687       18.0887645199  MEMB      24              0.0000000000
      2839        24  PVCL2     OP13           15.5401806585      -14.2057773674       18.1885549091  MEMB      24              0.0000000000
      2840        24  PVCL2     OP14           17.9412016558      -14.9166952255       17.9799545279  MEMB      24              0.0000000000
      2841        24  PVCL2     OP11           16.3381794871      -16.2253170803       19.3378681358  MEMB      24              0.0000000000
      2842        24  PVCL2     OP12           16.1138763322      -16.1954147923       16.8369031836  MEMB      24              0.0000000000
      2843        24  PVCL2     C11            15.1442641080      -17.2442163429       17.0227428146  MEMB      24              0.0000000000
      2844        24  PVCL2     H11J           14.2675522833      -16.8913359769       17.6068427270  MEMB      24              0.0000000000
      2845        24  PVCL2     H11K           15.6280721190      -18.0397491702       17.6288603510  MEMB      24              0.0000000000
      2846        24  PVCL2     C12            14.7319613424      -17.9139196973       15.6559554468  MEMB      24              0.0000000000
      2847        24  PVCL2     H12J           14.0803194407      -18.7631569991       15.9534115356  MEMB      24              0.0000000000
      2848        24  PVCL2     O12            15.7944472926      -18.3903313798       14.8100647404  MEMB      24              0.0000000000
      2849        24  PVCL2     CA1            16.2433203763      -19.5468539360       15.2925167655  MEMB      24              0.0000000000
      2850        24  PVCL2     OA1            15.8033266468      -20.1698899413       16.2674379361  MEMB      24              0.0000000000
      2851        24  PVCL2     CA2            17.5646511487      -19.9768884358       14.5292266364  MEMB      24              0.0000000000
      2852        24  PVCL2     H2A            18.3352144649      -20.2551994040       15.2796240571  MEMB      24              0.0000000000
      2853        24  PVCL2     H2B            17.9394226726      -19.0132938205       14.1225908636  MEMB      24              0.0000000000
      2854        24  PVCL2     C13            14.0029323545      -16.8892620728       14.6496504978  MEMB      24              0.0000000000
      2855        24  PVCL2     H13J           14.6404465147      -15.9821268215       14.5789239012  MEMB      24              0.0000000000
      2856        24  PVCL2     H13K           13.0678160404      -16.4506459581       15.0589111601  MEMB      24              0.0000000000
      2857        24  PVCL2     O13            13.9355212763      -17.4774329794       13.3332127894  MEMB      24              0.0000000000
      2858        24  PVCL2     CB1            13.0834030840      -18.4470358854       13.0712468367  MEMB      24              0.0000000000
      2859        24  PVCL2     OB1            12.2162495817      -18.8919565003       13.7660586407  MEMB      24              0.0000000000
      2860        24  PVCL2     CB2            13.3609454811      -18.8824495311       11.5960329129  MEMB      24              0.0000000000
      2861        24  PVCL2     H2D            14.4634341544      -18.8102198630       11.4793173179  MEMB      24              0.0000000000
      2862        24  PVCL2     H2E            12.9833008903      -18.0649514801       10.9453392518  MEMB      24              0.0000000000
      2863        24  PVCL2     C32            11.3355275032      -14.5907417801       18.0409601998  MEMB      24              0.0000000000
      2864        24  PVCL2     H32J           10.2319166769      -14.5061325256       18.1369060199  MEMB      24              0.0000000000
      2865        24  PVCL2     O32            11.6708720476      -15.8889606138       17.5907229637  MEMB      24              0.0000000000
      2866        24  PVCL2     CC1            10.9236157740      -16.9293878885       18.0522832968  MEMB      24              0.0000000000
      2867        24  PVCL2     OC1            10.1536398803      -16.8295801872       18.9624356483  MEMB      24              0.0000000000
      2868        24  PVCL2     CC2            11.1464558246      -18.2489132405       17.2131346664  MEMB      24              0.0000000000
      2869        24  PVCL2     H2R            12.2367526109      -18.4477951301       17.1355464856  MEMB      24              0.0000000000
      2870        24  PVCL2     H2S            10.6555601023      -18.1492553060       16.2214640510  MEMB      24              0.0000000000
      2871        24  PVCL2     C33            11.5900005303      -13.5852529065       16.8431531823  MEMB      24              0.0000000000
      2872        24  PVCL2     H33J           11.0670671430      -13.9016102818       15.9153710393  MEMB      24              0.0000000000
      2873        24  PVCL2     H33K           11.2109196144      -12.6051136180       17.2036329066  MEMB      24              0.0000000000
      2874        24  PVCL2     O33            12.9510748494      -13.5597234454       16.6099810814  MEMB      24              0.0000000000
      2875        24  PVCL2     CD1            13.3846629449      -12.6488471424       15.6749243144  MEMB      24              0.0000000000
      2876        24  PVCL2     OD1            12.7332077524      -11.8511022287       15.0645478984  MEMB      24              0.0000000000
      2877        24  PVCL2     CD2            14.9153193258      -12.8766369161       15.4320958977  MEMB      24              0.0000000000
      2878        24  PVCL2     H2X            15.0482166943      -13.9694494526       15.5818290479  MEMB      24              0.0000000000
      2879        24  PVCL2     H2Y            15.4230409160      -12.2516443843       16.1975527773  MEMB      24              0.0000000000
      2880        24  PVCL2     CA3            17.2888243976      -20.9617785405       13.3285249350  MEMB      24              0.0000000000
      2881        24  PVCL2     H3A            18.1919492165      -20.9798360215       12.6817170839  MEMB      24              0.0000000000
      2882        24  PVCL2     H3B            16.5006131522      -20.4582717969       12.7289208490  MEMB      24              0.0000000000
      2883        24  PVCL2     CA4            16.8140202597      -22.3456560229       13.7562825335  MEMB      24              0.0000000000
      2884        24  PVCL2     H4A            15.8368100885      -22.3262189309       14.2844903881  MEMB      24              0.0000000000
      2885        24  PVCL2     H4B            17.5873463264      -22.7289351525       14.4558428213  MEMB      24              0.0000000000
      2886        24  PVCL2     CA5            16.4457396018      -23.2758985785       12.5353617790  MEMB      24              0.0000000000
      2887        24  PVCL2     H5A            15.7445513364      -22.7893430801       11.8240814008  MEMB      24              0.0000000000
      2888        24  PVCL2     H5B            15.8099351269      -24.0257833434       13.0528042585  MEMB      24              0.0000000000
      2889        24  PVCL2     CA6            17.6646184673      -23.9502039456       11.9360333560  MEMB      24              0.0000000000
      2890        24  PVCL2     H6A            18.3889987301      -24.3153158534       12.6951691224  MEMB      24              0.0000000000
      2891        24  PVCL2     H6B            18.1997591463      -23.1764762752       11.3450246903  MEMB      24              0.0000000000
      2892        24  PVCL2     CA7            17.2824857467      -25.1236538678       10.9924470326  MEMB      24              0.0000000000
      2893        24  PVCL2     H7A            16.7648249885      -25.8958364238       11.6007910619  MEMB      24              0.0000000000
      2894        24  PVCL2     H7B            18.2352876144      -25.5858326874       10.6564705627  MEMB      24              0.0000000000
      2895        24  PVCL2     CA8            16.4973350840      -24.7805284552        9.7177036233  MEMB      24              0.0000000000
      2896        24  PVCL2     H8A            17.1419279115      -24.3115323204        8.9438405887  MEMB      24              0.0000000000
      2897        24  PVCL2     H8B            15.8390997853      -23.9262844629        9.9847509644  MEMB      24              0.0000000000
      2898        24  PVCL2     CA9            15.7095486419      -25.9728738049        9.0338275422  MEMB      24              0.0000000000
      2899        24  PVCL2     H9A            14.8937436673      -26.2842774684        9.7207125088  MEMB      24              0.0000000000
      2900        24  PVCL2     H9B            16.3271843482      -26.8874515650        8.9057844040  MEMB      24              0.0000000000
      2901        24  PVCL2     CA10           15.0342231714      -25.5665325465        7.6345694490  MEMB      24              0.0000000000
      2902        24  PVCL2     H10A           14.9328331304      -26.4656314626        6.9898499590  MEMB      24              0.0000000000
      2903        24  PVCL2     H10B           15.7276994082      -24.9368163456        7.0371839999  MEMB      24              0.0000000000
      2904        24  PVCL2     CA11           13.6843323120      -24.8437335065        7.8354900685  MEMB      24              0.0000000000
      2905        24  PVCL2     H11A           13.4099901166      -24.7433171614        8.8959859395  MEMB      24              0.0000000000
      2906        24  PVCL2     CA12           12.8271006266      -24.4536471746        6.8187114485  MEMB      24              0.0000000000
      2907        24  PVCL2     H12A           11.9399661079      -23.8891715435        7.1417575016  MEMB      24              0.0000000000
      2908        24  PVCL2     CA13           12.8894633355      -24.5483252816        5.3603621754  MEMB      24              0.0000000000
      2909        24  PVCL2     H13A           12.2061257031      -25.3323853781        4.9696959821  MEMB      24              0.0000000000
      2910        24  PVCL2     H13B           13.8955998346      -24.8936778224        5.0398280797  MEMB      24              0.0000000000
      2911        24  PVCL2     CA14           12.4156427423      -23.2195058020        4.7188496455  MEMB      24              0.0000000000
      2912        24  PVCL2     H14A           11.4626542245      -22.8789796246        5.1772989523  MEMB      24              0.0000000000
      2913        24  PVCL2     H14B           12.2066899215      -23.3871161822        3.6406251871  MEMB      24              0.0000000000
      2914        24  PVCL2     CA15           13.4229299088      -22.1069226865        4.8329555797  MEMB      24              0.0000000000
      2915        24  PVCL2     H15A           13.8863311352      -22.1353563058        5.8422979497  MEMB      24              0.0000000000
      2916        24  PVCL2     H15B           12.9382068774      -21.1396151703        4.5806053314  MEMB      24              0.0000000000
      2917        24  PVCL2     CA16           14.5999395880      -22.1722704291        3.8293853735  MEMB      24              0.0000000000
      2918        24  PVCL2     H16A           15.1554514801      -23.1312324069        3.9076095932  MEMB      24              0.0000000000
      2919        24  PVCL2     H16B           15.3727904965      -21.4823328785        4.2306444478  MEMB      24              0.0000000000
      2920        24  PVCL2     CA17           14.3271185474      -21.8530338301        2.3568637738  MEMB      24              0.0000000000
      2921        24  PVCL2     H17A           13.9596115118      -20.8098713027        2.2516420505  MEMB      24              0.0000000000
      2922        24  PVCL2     H17B           13.5848252882      -22.5689741405        1.9436433054  MEMB      24              0.0000000000
      2923        24  PVCL2     CA18           15.5751827272      -22.1166751864        1.4711423895  MEMB      24              0.0000000000
      2924        24  PVCL2     H18A           16.4880368277      -21.5733090778        1.7963674830  MEMB      24              0.0000000000
      2925        24  PVCL2     H18B           15.2956362222      -21.7829301122        0.4489937791  MEMB      24              0.0000000000
      2926        24  PVCL2     H18C           15.8827021137      -23.1841882854        1.4581491307  MEMB      24              0.0000000000
      2927        24  PVCL2     CB3            12.7720608551      -20.2820745636       11.3716559106  MEMB      24              0.0000000000
      2928        24  PVCL2     H3D            11.6918723002      -20.2302322098       11.6262649996  MEMB      24              0.0000000000
      2929        24  PVCL2     H3E            13.3118043823      -21.0739440415       11.9337414966  MEMB      24              0.0000000000
      2930        24  PVCL2     CB4            12.6673117803      -20.6359579141        9.8794857198  MEMB      24              0.0000000000
      2931        24  PVCL2     H4D            12.4987907736      -19.7119226274        9.2861221156  MEMB      24              0.0000000000
      2932        24  PVCL2     H4E            11.7538861421      -21.2341739034        9.6742732709  MEMB      24              0.0000000000
      2933        24  PVCL2     CB5            13.9320849830      -21.3559880476        9.3615150967  MEMB      24              0.0000000000
      2934        24  PVCL2     H5D            13.7625415567      -21.8077339774        8.3607649943  MEMB      24              0.0000000000
      2935        24  PVCL2     H5E            14.1441169003      -22.2561433615        9.9772129241  MEMB      24              0.0000000000
      2936        24  PVCL2     CB6            15.2210394014      -20.5493821369        9.3216363807  MEMB      24              0.0000000000
      2937        24  PVCL2     H6D            15.6444389668      -20.6490466114       10.3439473610  MEMB      24              0.0000000000
      2938        24  PVCL2     H6E            14.9419612680      -19.5222347263        9.0031952837  MEMB      24              0.0000000000
      2939        24  PVCL2     CB7            16.1762932499      -21.1510195450        8.2511116587  MEMB      24              0.0000000000
      2940        24  PVCL2     H7D            15.8562866690      -20.9486480102        7.2066199850  MEMB      24              0.0000000000
      2941        24  PVCL2     H7E            16.2562245001      -22.2293711752        8.5062390633  MEMB      24              0.0000000000
      2942        24  PVCL2     CB8            17.6065685331      -20.6284566067        8.3535642010  MEMB      24              0.0000000000
      2943        24  PVCL2     H8D            17.9842492524      -20.4714338919        9.3865315434  MEMB      24              0.0000000000
      2944        24  PVCL2     H8E            17.6309775449      -19.6295640869        7.8678288915  MEMB      24              0.0000000000
      2945        24  PVCL2     CB9            18.7506790071      -21.5902916338        7.8086735241  MEMB      24              0.0000000000
      2946        24  PVCL2     H9D            18.6695729030      -22.5910279468        8.2843512646  MEMB      24              0.0000000000
      2947        24  PVCL2     H9E            19.6207367507      -21.1401654935        8.3327991119  MEMB      24              0.0000000000
      2948        24  PVCL2     CB10           18.8281478883      -21.5771496415        6.2765359559  MEMB      24              0.0000000000
      2949        24  PVCL2     H10D           17.9176961127      -22.0864315198        5.8943975204  MEMB      24              0.0000000000
      2950        24  PVCL2     H10E           19.6905743555      -22.1954947614        5.9476125528  MEMB      24              0.0000000000
      2951        24  PVCL2     CB11           18.9042633316      -20.2560838256        5.5049458636  MEMB      24              0.0000000000
      2952        24  PVCL2     H11D           19.9341533557      -19.9558807175        5.7939537651  MEMB      24              0.0000000000
      2953        24  PVCL2     H11E           18.1580267846      -19.5577020792        5.9405086975  MEMB      24              0.0000000000
      2954        24  PVCL2     CB12           18.6892466976      -20.3595905667        3.9340612089  MEMB      24              0.0000000000
      2955        24  PVCL2     H12D           17.6473081244      -20.1527765493        3.6086201634  MEMB      24              0.0000000000
      2956        24  PVCL2     H12E           18.9852054988      -21.3386242593        3.5002157817  MEMB      24              0.0000000000
      2957        24  PVCL2     CB13           19.5595468246      -19.3036796134        3.1011642684  MEMB      24              0.0000000000
      2958        24  PVCL2     H13D           20.6361845206      -19.3568392464        3.3701367986  MEMB      24              0.0000000000
      2959        24  PVCL2     H13E           19.2643633861      -18.2441435467        3.2579143719  MEMB      24              0.0000000000
      2960        24  PVCL2     CB14           19.6163439658      -19.4213280977        1.5728029470  MEMB      24              0.0000000000
      2961        24  PVCL2     H14D           20.3112578386      -18.6165287952        1.2507574626  MEMB      24              0.0000000000
      2962        24  PVCL2     H14E           18.5693612374      -19.2262459796        1.2564320421  MEMB      24              0.0000000000
      2963        24  PVCL2     CB15           19.9849976929      -20.7524350002        0.8397003671  MEMB      24              0.0000000000
      2964        24  PVCL2     H15D           19.8451969759      -20.6255020494       -0.2551359465  MEMB      24              0.0000000000
      2965        24  PVCL2     H15E           19.3937736857      -21.6022002336        1.2430293155  MEMB      24              0.0000000000
      2966        24  PVCL2     CB16           21.4286851881      -21.1935775537        0.9304101117  MEMB      24              0.0000000000
      2967        24  PVCL2     H16D           21.6767968519      -22.1535037742        0.4291079056  MEMB      24              0.0000000000
      2968        24  PVCL2     H16E           21.6736019433      -21.2041305885        2.0140263845  MEMB      24              0.0000000000
      2969        24  PVCL2     H16F           22.0693018986      -20.3752088808        0.5377215934  MEMB      24              0.0000000000
      2970        24  PVCL2     CC3            10.4386670866      -19.4989622215       17.8928017193  MEMB      24              0.0000000000
      2971        24  PVCL2     H3R            10.6128002793      -19.5337766157       18.9895181436  MEMB      24              0.0000000000
      2972        24  PVCL2     H3S            10.8897123106      -20.4033277566       17.4312804192  MEMB      24              0.0000000000
      2973        24  PVCL2     CC4             8.8847856302      -19.6901668344       17.7529538960  MEMB      24              0.0000000000
      2974        24  PVCL2     H4R             8.5232769955      -19.0240373619       18.5652988346  MEMB      24              0.0000000000
      2975        24  PVCL2     H4S             8.5741680761      -20.7505041837       17.8692396372  MEMB      24              0.0000000000
      2976        24  PVCL2     CC5             8.1576405546      -19.2739687323       16.4257813955  MEMB      24              0.0000000000
      2977        24  PVCL2     H5R             7.2701532627      -19.9079776328       16.2143106579  MEMB      24              0.0000000000
      2978        24  PVCL2     H5S             8.9698830431      -19.4463929367       15.6876401199  MEMB      24              0.0000000000
      2979        24  PVCL2     CC6             7.5603639377      -17.8408984211       16.3043692011  MEMB      24              0.0000000000
      2980        24  PVCL2     H6R             8.2547321428      -17.0243983540       16.5967752472  MEMB      24              0.0000000000
      2981        24  PVCL2     H6S             6.7627681128      -17.8314736277       17.0777216215  MEMB      24              0.0000000000
      2982        24  PVCL2     CC7             7.1242425309      -17.5919354378       14.8704317846  MEMB      24              0.0000000000
      2983        24  PVCL2     H7R             6.7871662361      -16.5399509223       14.9888762839  MEMB      24              0.0000000000
      2984        24  PVCL2     H7S             6.2391594286      -18.2234145215       14.6419960822  MEMB      24              0.0000000000
      2985        24  PVCL2     CC8             8.2716554449      -17.7556140153       13.8221664361  MEMB      24              0.0000000000
      2986        24  PVCL2     H8R             8.7276145310      -18.7668120098       13.7597100767  MEMB      24              0.0000000000
      2987        24  PVCL2     H8S             9.1150958843      -17.0681941120       14.0466288248  MEMB      24              0.0000000000
      2988        24  PVCL2     CC9             7.7591886846      -17.4044971424       12.3130184840  MEMB      24              0.0000000000
      2989        24  PVCL2     H9R             7.3442719749      -16.3808057655       12.4322709745  MEMB      24              0.0000000000
      2990        24  PVCL2     H9S             6.9493180155      -18.0718602525       11.9482474285  MEMB      24              0.0000000000
      2991        24  PVCL2     CC10            8.8385706166      -17.2360187889       11.2485961538  MEMB      24              0.0000000000
      2992        24  PVCL2     H10R            9.7547569973      -16.6996996093       11.5761414916  MEMB      24              0.0000000000
      2993        24  PVCL2     H10S            8.4320259947      -16.6599789117       10.3899815059  MEMB      24              0.0000000000
      2994        24  PVCL2     CC11            9.1764640059      -18.5855655051       10.7386751262  MEMB      24              0.0000000000
      2995        24  PVCL2     H11R            9.5477674002      -19.2268192963       11.5516489896  MEMB      24              0.0000000000
      2996        24  PVCL2     CC12            9.0029432447      -19.1689645051        9.5768413148  MEMB      24              0.0000000000
      2997        24  PVCL2     H12R            9.5518728560      -20.1030059493        9.3864646646  MEMB      24              0.0000000000
      2998        24  PVCL2     CC13            8.2495295234      -18.6190643021        8.3852328800  MEMB      24              0.0000000000
      2999        24  PVCL2     H13R            7.7777960071      -17.6365333702        8.6006888402  MEMB      24              0.0000000000
      3000        24  PVCL2     H13S            7.4812439826      -19.3593719867        8.0753902584  MEMB      24              0.0000000000
      3001        24  PVCL2     CC14            9.2617092718      -18.3615666892        7.2008113109  MEMB      24              0.0000000000
      3002        24  PVCL2     H14R            9.5952472567      -19.3791270130        6.9047628936  MEMB      24              0.0000000000
      3003        24  PVCL2     H14S           10.1842464260      -17.8034436518        7.4686647586  MEMB      24              0.0000000000
      3004        24  PVCL2     CC15            8.6741935950      -17.7864728522        5.9053916725  MEMB      24              0.0000000000
      3005        24  PVCL2     H15R            8.2342435930      -16.7799524670        6.0717699942  MEMB      24              0.0000000000
      3006        24  PVCL2     H15S            7.8240583499      -18.3574981198        5.4746698993  MEMB      24              0.0000000000
      3007        24  PVCL2     CC16            9.6061128386      -17.6700046326        4.7469614271  MEMB      24              0.0000000000
      3008        24  PVCL2     H16R           10.4494556328      -17.1306480443        5.2288212981  MEMB      24              0.0000000000
      3009        24  PVCL2     H16S            9.2552819219      -17.0002761911        3.9328965850  MEMB      24              0.0000000000
      3010        24  PVCL2     CC17           10.0097684828      -18.9569678081        3.9732393246  MEMB      24              0.0000000000
      3011        24  PVCL2     H17R            9.0409245112      -19.3598419749        3.6080641092  MEMB      24              0.0000000000
      3012        24  PVCL2     H17S           10.5481214615      -19.7038197088        4.5950998424  MEMB      24              0.0000000000
      3013        24  PVCL2     CC18           10.9515980616      -18.6675649235        2.7942789234  MEMB      24              0.0000000000
      3014        24  PVCL2     H18R           11.8383658347      -18.0444671108        3.0386389522  MEMB      24              0.0000000000
      3015        24  PVCL2     H18S           10.4983479339      -18.2476523432        1.8709373007  MEMB      24              0.0000000000
      3016        24  PVCL2     H18T           11.4606602156      -19.6159699240        2.5191322288  MEMB      24              0.0000000000
      3017        24  PVCL2     CD3            15.4045725601      -12.4254597397       14.0369171890  MEMB      24              0.0000000000
      3018        24  PVCL2     H3X            15.2785318011      -11.3219175725       14.0118301909  MEMB      24              0.0000000000
      3019        24  PVCL2     H3Y            14.7617528866      -12.9058408394       13.2685827118  MEMB      24              0.0000000000
      3020        24  PVCL2     CD4            16.9775863637      -12.5829058000       13.8180832737  MEMB      24              0.0000000000
      3021        24  PVCL2     H4X            17.5535173148      -12.1622360001       14.6699406641  MEMB      24              0.0000000000
      3022        24  PVCL2     H4Y            17.2367094447      -12.1588520284       12.8244259569  MEMB      24              0.0000000000
      3023        24  PVCL2     CD5            17.4619772742      -14.0759155900       13.7388583840  MEMB      24              0.0000000000
      3024        24  PVCL2     H5X            17.2825521996      -14.5926038466       14.7058954674  MEMB      24              0.0000000000
      3025        24  PVCL2     H5Y            18.5468142564      -14.1705389196       13.5186402101  MEMB      24              0.0000000000
      3026        24  PVCL2     CD6            16.8620101433      -14.8634062599       12.5597942820  MEMB      24              0.0000000000
      3027        24  PVCL2     H6X            15.7536988822      -14.7946117439       12.5246602328  MEMB      24              0.0000000000
      3028        24  PVCL2     H6Y            17.1393768748      -15.9257646251       12.7294509575  MEMB      24              0.0000000000
      3029        24  PVCL2     CD7            17.5549528038      -14.3336563128       11.2805606830  MEMB      24              0.0000000000
      3030        24  PVCL2     H7X            18.5176662208      -14.8881540936       11.2745544974  MEMB      24              0.0000000000
      3031        24  PVCL2     H7Y            17.8582994999      -13.2648998202       11.2883975154  MEMB      24              0.0000000000
      3032        24  PVCL2     CD8            17.0402551411      -14.6886218141        9.7727104900  MEMB      24              0.0000000000
      3033        24  PVCL2     H8X            17.8787692913      -14.5731988833        9.0530629457  MEMB      24              0.0000000000
      3034        24  PVCL2     H8Y            16.2153272443      -14.0328324940        9.4209214912  MEMB      24              0.0000000000
      3035        24  PVCL2     CD9            16.7287774286      -16.1646828753        9.6161948267  MEMB      24              0.0000000000
      3036        24  PVCL2     H9X            15.8709561084      -16.3285895246       10.3029248077  MEMB      24              0.0000000000
      3037        24  PVCL2     H9Y            17.6192053519      -16.7560075304        9.9191701819  MEMB      24              0.0000000000
      3038        24  PVCL2     CD10           16.2360013862      -16.7235491025        8.2684364912  MEMB      24              0.0000000000
      3039        24  PVCL2     H10X           15.9484084319      -17.7952308044        8.3242046489  MEMB      24              0.0000000000
      3040        24  PVCL2     H10Y           17.0872038868      -16.6220113869        7.5617080436  MEMB      24              0.0000000000
      3041        24  PVCL2     CD11           15.0309154336      -16.0436521289        7.7097040888  MEMB      24              0.0000000000
      3042        24  PVCL2     H11X           15.2505328539      -14.9657806230        7.5538756616  MEMB      24              0.0000000000
      3043        24  PVCL2     H11Y           14.2030971537      -15.9502170818        8.4447602362  MEMB      24              0.0000000000
      3044        24  PVCL2     CD12           14.5164997153      -16.7211718321        6.4081990769  MEMB      24              0.0000000000
      3045        24  PVCL2     H12X           13.7273159044      -16.0554778578        5.9978801455  MEMB      24              0.0000000000
      3046        24  PVCL2     H12Y           14.2540530665      -17.7269121780        6.8005368846  MEMB      24              0.0000000000
      3047        24  PVCL2     CD13           15.4629014125      -16.9160845592        5.1302576310  MEMB      24              0.0000000000
      3048        24  PVCL2     H13X           16.1577717356      -17.7509057580        5.3638176175  MEMB      24              0.0000000000
      3049        24  PVCL2     H13Y           15.9802177291      -15.9364645212        5.0462969587  MEMB      24              0.0000000000
      3050        24  PVCL2     CD14           14.8019258755      -17.3369995683        3.8076589673  MEMB      24              0.0000000000
      3051        24  PVCL2     H14X           14.2019080003      -16.4488999767        3.5151205727  MEMB      24              0.0000000000
      3052        24  PVCL2     H14Y           14.1181579251      -18.2036661624        3.9328448932  MEMB      24              0.0000000000
      3053        24  PVCL2     CD15           15.7397496426      -17.5880486652        2.5738040640  MEMB      24              0.0000000000
      3054        24  PVCL2     H15X           15.3675971412      -18.2129276190        1.7339542571  MEMB      24              0.0000000000
      3055        24  PVCL2     H15Y           16.5485718691      -18.3035422959        2.8349482117  MEMB      24              0.0000000000
      3056        24  PVCL2     CD16           16.5162361702      -16.3926903632        2.0006149284  MEMB      24              0.0000000000
      3057        24  PVCL2     H16X           15.7938393361      -15.6666271907        1.5701549818  MEMB      24              0.0000000000
      3058        24  PVCL2     H16Y           17.0836056272      -16.7019616975        1.0968654042  MEMB      24              0.0000000000
      3059        24  PVCL2     H16Z           17.0896553668      -15.9753152798        2.8557819297  MEMB      24              0.0000000000
      3060        25  POPE      N              -3.0729979650       23.6301770853       21.6834724219  MEMB      25              0.0000000000
      3061        25  POPE      HN1            -3.6023945016       24.1270791031       20.9388735094  MEMB      25              0.0000000000
      3062        25  POPE      HN2            -3.6659293746       22.9859623652       22.2447385570  MEMB      25              0.0000000000
      3063        25  POPE      HN3            -2.7387670479       24.3959536401       22.3027267404  MEMB      25              0.0000000000
      3064        25  POPE      C12            -1.9529429829       22.7353021454       21.2466726543  MEMB      25              0.0000000000
      3065        25  POPE      H12A           -2.2899460305       21.7356979369       21.5953003568  MEMB      25              0.0000000000
      3066        25  POPE      H12B           -0.9992839567       23.1071102368       21.6786611232  MEMB      25              0.0000000000
      3067        25  POPE      C11            -1.8560511931       22.7032965670       19.7030579759  MEMB      25              0.0000000000
      3068        25  POPE      H11A           -0.9400279408       22.1129284411       19.4869841813  MEMB      25              0.0000000000
      3069        25  POPE      H11B           -1.7370536212       23.6813086912       19.1895865795  MEMB      25              0.0000000000
      3070        25  POPE      P              -3.0425328758       21.4483921527       17.8252225798  MEMB      25              0.0000000000
      3071        25  POPE      O13            -4.4901233316       21.3317645430       17.5135355090  MEMB      25              0.0000000000
      3072        25  POPE      O14            -2.2907974829       20.2275265968       17.9144253552  MEMB      25              0.0000000000
      3073        25  POPE      O11            -2.3266055090       22.5181255253       16.8523907218  MEMB      25              0.0000000000
      3074        25  POPE      O12            -3.0362087388       22.0713953868       19.2612227791  MEMB      25              0.0000000000
      3075        25  POPE      C1             -2.9089125356       23.7908871320       16.6459905226  MEMB      25              0.0000000000
      3076        25  POPE      HA             -2.2293774804       24.5653978846       17.0615458002  MEMB      25              0.0000000000
      3077        25  POPE      HB             -3.8130948559       23.9289362681       17.2766391902  MEMB      25              0.0000000000
      3078        25  POPE      C2             -3.3300070153       24.0173168292       15.1784157553  MEMB      25              0.0000000000
      3079        25  POPE      HS             -3.5029595670       25.0909162575       14.9508360483  MEMB      25              0.0000000000
      3080        25  POPE      O21            -4.4858957274       23.2466485811       14.8405277019  MEMB      25              0.0000000000
      3081        25  POPE      C21            -5.6391236931       23.6526815518       15.4083228352  MEMB      25              0.0000000000
      3082        25  POPE      O22            -5.7952154047       24.6568214240       16.0993267426  MEMB      25              0.0000000000
      3083        25  POPE      C22            -6.6566918159       22.6969071390       14.9842835299  MEMB      25              0.0000000000
      3084        25  POPE      H2R            -7.2101215298       22.3752808498       15.8923544785  MEMB      25              0.0000000000
      3085        25  POPE      H2S            -6.1875971617       21.7763405028       14.5758369976  MEMB      25              0.0000000000
      3086        25  POPE      C3             -2.1959587899       23.6165979921       14.1554655293  MEMB      25              0.0000000000
      3087        25  POPE      HX             -1.4166439096       24.3959817548       14.2952876351  MEMB      25              0.0000000000
      3088        25  POPE      HY             -2.6862545442       23.8313369142       13.1819062817  MEMB      25              0.0000000000
      3089        25  POPE      O31            -1.6646008798       22.2750676224       14.2988688784  MEMB      25              0.0000000000
      3090        25  POPE      C31            -2.0350830786       21.4740296146       13.3197299664  MEMB      25              0.0000000000
      3091        25  POPE      O32            -2.8030144474       21.7576368171       12.4342193455  MEMB      25              0.0000000000
      3092        25  POPE      C32            -1.4887134415       20.0650340529       13.5171726651  MEMB      25              0.0000000000
      3093        25  POPE      H2X            -1.7072617953       19.3326062136       12.7108808381  MEMB      25              0.0000000000
      3094        25  POPE      H2Y            -1.9412626846       19.7393107990       14.4781227757  MEMB      25              0.0000000000
      3095        25  POPE      C23            -7.5453187660       23.2415441325       13.8085144139  MEMB      25              0.0000000000
      3096        25  POPE      H3R            -7.8891544850       24.1844465519       14.2849939376  MEMB      25              0.0000000000
      3097        25  POPE      H3S            -8.3168243599       22.4489660343       13.7040144613  MEMB      25              0.0000000000
      3098        25  POPE      C24            -6.7721869693       23.4794566016       12.5070644385  MEMB      25              0.0000000000
      3099        25  POPE      H4R            -5.9004050223       24.1565495657       12.6330110842  MEMB      25              0.0000000000
      3100        25  POPE      H4S            -7.3957864318       24.1297685474       11.8570348276  MEMB      25              0.0000000000
      3101        25  POPE      C25            -6.4599366765       22.2023980039       11.7846104917  MEMB      25              0.0000000000
      3102        25  POPE      H5R            -7.3796175890       21.8699367281       11.2573748857  MEMB      25              0.0000000000
      3103        25  POPE      H5S            -6.0729845140       21.4336220038       12.4871576373  MEMB      25              0.0000000000
      3104        25  POPE      C26            -5.3600964402       22.4339849998       10.6553794839  MEMB      25              0.0000000000
      3105        25  POPE      H6R            -4.5355562073       22.9626245688       11.1797787073  MEMB      25              0.0000000000
      3106        25  POPE      H6S            -5.7824973963       23.0839618223        9.8594968835  MEMB      25              0.0000000000
      3107        25  POPE      C27            -4.9339997964       21.1622693325        9.9303740798  MEMB      25              0.0000000000
      3108        25  POPE      H7R            -5.8199051781       20.6209420724        9.5348273697  MEMB      25              0.0000000000
      3109        25  POPE      H7S            -4.5477981787       20.4130404518       10.6541317627  MEMB      25              0.0000000000
      3110        25  POPE      C28            -3.9211886379       21.3745659741        8.7217925553  MEMB      25              0.0000000000
      3111        25  POPE      H8R            -4.2893178144       22.2531559229        8.1500575846  MEMB      25              0.0000000000
      3112        25  POPE      H8S            -4.0525061423       20.4745164270        8.0838375673  MEMB      25              0.0000000000
      3113        25  POPE      C29            -2.4978280231       21.7393525197        9.0445229107  MEMB      25              0.0000000000
      3114        25  POPE      H91            -2.3556332284       22.7689268724        9.4047418384  MEMB      25              0.0000000000
      3115        25  POPE      C210           -1.4227556578       20.9318418559        8.9642071983  MEMB      25              0.0000000000
      3116        25  POPE      H101           -0.4228326089       21.2926236737        9.2470320668  MEMB      25              0.0000000000
      3117        25  POPE      C211           -1.4692088918       19.4792146125        8.5226402582  MEMB      25              0.0000000000
      3118        25  POPE      H11R           -2.4982431355       19.1463955370        8.2683949436  MEMB      25              0.0000000000
      3119        25  POPE      H11S           -1.2508731027       18.8318429977        9.3987457860  MEMB      25              0.0000000000
      3120        25  POPE      C212           -0.4357625549       19.2159017677        7.3972886409  MEMB      25              0.0000000000
      3121        25  POPE      H12R            0.5869480390       19.3840439397        7.7974295503  MEMB      25              0.0000000000
      3122        25  POPE      H12S           -0.7049549371       19.9937905476        6.6511354670  MEMB      25              0.0000000000
      3123        25  POPE      C213           -0.5979693999       17.8664283319        6.7381032319  MEMB      25              0.0000000000
      3124        25  POPE      H13R           -0.6586041770       16.9533652259        7.3681511385  MEMB      25              0.0000000000
      3125        25  POPE      H13S            0.3349549550       17.7075872353        6.1560882692  MEMB      25              0.0000000000
      3126        25  POPE      C214           -1.8868791237       17.8907210979        5.8036610451  MEMB      25              0.0000000000
      3127        25  POPE      H14R           -2.7133290916       18.1026707292        6.5152643594  MEMB      25              0.0000000000
      3128        25  POPE      H14S           -1.9126043946       16.8438381320        5.4325878277  MEMB      25              0.0000000000
      3129        25  POPE      C215           -2.0146410636       18.7073333164        4.4598792505  MEMB      25              0.0000000000
      3130        25  POPE      H15R           -1.0605086524       18.4985841054        3.9303737475  MEMB      25              0.0000000000
      3131        25  POPE      H15S           -2.1718669326       19.7782302889        4.7104400622  MEMB      25              0.0000000000
      3132        25  POPE      C216           -3.3738243363       18.3092741343        3.6768048270  MEMB      25              0.0000000000
      3133        25  POPE      H16R           -4.2889124098       18.6489871364        4.2073991196  MEMB      25              0.0000000000
      3134        25  POPE      H16S           -3.3857642774       17.2004423915        3.6084643452  MEMB      25              0.0000000000
      3135        25  POPE      C217           -3.4620917096       19.0669487201        2.3268246110  MEMB      25              0.0000000000
      3136        25  POPE      H17R           -2.4629434048       19.3647416033        1.9429704906  MEMB      25              0.0000000000
      3137        25  POPE      H17S           -3.9158186830       20.0485873530        2.5814575445  MEMB      25              0.0000000000
      3138        25  POPE      C218           -4.2740576351       18.3679646707        1.2326652294  MEMB      25              0.0000000000
      3139        25  POPE      H18R           -4.6086841693       19.0784482942        0.4468156226  MEMB      25              0.0000000000
      3140        25  POPE      H18S           -5.2080674258       17.9141687162        1.6276548427  MEMB      25              0.0000000000
      3141        25  POPE      H18T           -3.6850820150       17.6309647139        0.6459283455  MEMB      25              0.0000000000
      3142        25  POPE      C33             0.0749880602       20.0774338533       13.6959912155  MEMB      25              0.0000000000
      3143        25  POPE      H3X             0.4118609097       19.0726272869       14.0294592998  MEMB      25              0.0000000000
      3144        25  POPE      H3Y             0.3283709295       20.7524178764       14.5412809251  MEMB      25              0.0000000000
      3145        25  POPE      C34             0.8400631886       20.5815859118       12.4537363656  MEMB      25              0.0000000000
      3146        25  POPE      H4X             0.4811235082       20.1820066568       11.4812036018  MEMB      25              0.0000000000
      3147        25  POPE      H4Y             1.8055289766       20.0954524717       12.7103902563  MEMB      25              0.0000000000
      3148        25  POPE      C35             1.2607721920       22.1310760960       12.5099823074  MEMB      25              0.0000000000
      3149        25  POPE      H5X             1.6066493813       22.3229212925       13.5481945830  MEMB      25              0.0000000000
      3150        25  POPE      H5Y             0.4494101993       22.8843660935       12.4174245171  MEMB      25              0.0000000000
      3151        25  POPE      C36             2.5063747300       22.4131725600       11.6535491209  MEMB      25              0.0000000000
      3152        25  POPE      H6X             3.1511811904       21.5445299212       11.9065429192  MEMB      25              0.0000000000
      3153        25  POPE      H6Y             2.9636833104       23.3023113955       12.1379271639  MEMB      25              0.0000000000
      3154        25  POPE      C37             2.2761547519       22.6144045147       10.2029924068  MEMB      25              0.0000000000
      3155        25  POPE      H7X             1.4750081076       21.9309649911        9.8488805490  MEMB      25              0.0000000000
      3156        25  POPE      H7Y             3.1629631958       22.3730456462        9.5787823245  MEMB      25              0.0000000000
      3157        25  POPE      C38             1.7384718698       24.1036328677        9.9207428960  MEMB      25              0.0000000000
      3158        25  POPE      H8X             2.5568995573       24.8451156554       10.0419904072  MEMB      25              0.0000000000
      3159        25  POPE      H8Y             0.9458900549       24.2449474218       10.6863572223  MEMB      25              0.0000000000
      3160        25  POPE      C39             0.9453457232       24.1676921300        8.6605369726  MEMB      25              0.0000000000
      3161        25  POPE      H9X             0.3316686514       23.2418679061        8.6844341116  MEMB      25              0.0000000000
      3162        25  POPE      H9Y             1.5909887120       23.9672839586        7.7788895393  MEMB      25              0.0000000000
      3163        25  POPE      C310           -0.0107589663       25.3243374511        8.4016370029  MEMB      25              0.0000000000
      3164        25  POPE      H10X            0.5965296888       26.1000757566        7.8880699898  MEMB      25              0.0000000000
      3165        25  POPE      H10Y           -0.5337583678       25.7686691367        9.2753425879  MEMB      25              0.0000000000
      3166        25  POPE      C311           -1.0955579577       24.9533175320        7.3245984425  MEMB      25              0.0000000000
      3167        25  POPE      H11X           -1.7942608704       25.8087255438        7.2045476370  MEMB      25              0.0000000000
      3168        25  POPE      H11Y           -1.6585589771       24.1376107850        7.8265679347  MEMB      25              0.0000000000
      3169        25  POPE      C312           -0.7117314610       24.3745969778        5.9761842774  MEMB      25              0.0000000000
      3170        25  POPE      H12X            0.1950975652       23.7368677384        6.0488713608  MEMB      25              0.0000000000
      3171        25  POPE      H12Y           -0.5625068342       25.2250315556        5.2770321672  MEMB      25              0.0000000000
      3172        25  POPE      C313           -1.7796074331       23.4986006736        5.2048831729  MEMB      25              0.0000000000
      3173        25  POPE      H13X           -2.6356725483       24.2012579326        5.1168701691  MEMB      25              0.0000000000
      3174        25  POPE      H13Y           -2.0311005497       22.7966160987        6.0284674968  MEMB      25              0.0000000000
      3175        25  POPE      C314           -1.3621838127       22.8436519446        3.9280296345  MEMB      25              0.0000000000
      3176        25  POPE      H14X           -2.2236244635       22.2950543722        3.4906723488  MEMB      25              0.0000000000
      3177        25  POPE      H14Y           -0.4927934571       22.2506885666        4.2842262769  MEMB      25              0.0000000000
      3178        25  POPE      C315           -0.8638787961       23.7869818988        2.8195910788  MEMB      25              0.0000000000
      3179        25  POPE      H15X           -0.1083175332       24.4777902682        3.2511368278  MEMB      25              0.0000000000
      3180        25  POPE      H15Y           -1.7670464231       24.3823716866        2.5663710033  MEMB      25              0.0000000000
      3181        25  POPE      C316           -0.2719483816       23.2038817187        1.5184212748  MEMB      25              0.0000000000
      3182        25  POPE      H16X           -1.0694932429       22.6040934592        1.0300588116  MEMB      25              0.0000000000
      3183        25  POPE      H16Y            0.5981280771       22.5937585995        1.8425154891  MEMB      25              0.0000000000
      3184        25  POPE      H16Z           -0.0219018684       23.9605189214        0.7442765722  MEMB      25              0.0000000000
      3185        26  OYPE      N               2.3388423476       22.8421520797       18.5825556542  MEMB      26              0.0000000000
      3186        26  OYPE      HN1             1.4254758182       23.1528971324       18.1942270219  MEMB      26              0.0000000000
      3187        26  OYPE      HN2             2.5313494027       21.8458885815       18.3545200358  MEMB      26              0.0000000000
      3188        26  OYPE      HN3             2.2291892906       22.9871620267       19.6065421678  MEMB      26              0.0000000000
      3189        26  OYPE      C12             3.4215229746       23.5938594090       17.8954327943  MEMB      26              0.0000000000
      3190        26  OYPE      H12A            3.5086486686       24.6144421532       18.3257127802  MEMB      26              0.0000000000
      3191        26  OYPE      H12B            3.0451214054       23.6247485874       16.8505936026  MEMB      26              0.0000000000
      3192        26  OYPE      C11             4.7937999344       22.7445289105       17.9920308424  MEMB      26              0.0000000000
      3193        26  OYPE      H11A            5.4965179117       23.4980370562       17.5764181070  MEMB      26              0.0000000000
      3194        26  OYPE      H11B            4.7545410556       21.8618281791       17.3185182515  MEMB      26              0.0000000000
      3195        26  OYPE      P               6.7241793818       22.1026252634       19.5533223232  MEMB      26              0.0000000000
      3196        26  OYPE      O13             7.0538158612       20.8379673819       18.8230586100  MEMB      26              0.0000000000
      3197        26  OYPE      O14             7.1196580915       22.0557810984       20.9897225521  MEMB      26              0.0000000000
      3198        26  OYPE      O11             7.3412893895       23.2779475670       18.8101290011  MEMB      26              0.0000000000
      3199        26  OYPE      O12             5.1299145062       22.4569094813       19.3537482108  MEMB      26              0.0000000000
      3200        26  OYPE      C1              7.8941760101       24.3876346645       19.4939072356  MEMB      26              0.0000000000
      3201        26  OYPE      HA              8.2500326386       24.0572584753       20.4931763575  MEMB      26              0.0000000000
      3202        26  OYPE      HB              7.0919976033       25.1402632826       19.6500510969  MEMB      26              0.0000000000
      3203        26  OYPE      C2              9.0849963678       24.9656933079       18.6920783231  MEMB      26              0.0000000000
      3204        26  OYPE      HS              9.0974543964       26.0277776210       19.0178739384  MEMB      26              0.0000000000
      3205        26  OYPE      O21             8.9252083513       24.8670750720       17.2544000641  MEMB      26              0.0000000000
      3206        26  OYPE      C21             7.8067821661       25.4412748918       16.7764352575  MEMB      26              0.0000000000
      3207        26  OYPE      O22             7.1308783146       26.2981588950       17.3346762426  MEMB      26              0.0000000000
      3208        26  OYPE      C22             7.3589298863       24.8909112123       15.4540002619  MEMB      26              0.0000000000
      3209        26  OYPE      H2R             7.1225470365       23.8062134886       15.4973029682  MEMB      26              0.0000000000
      3210        26  OYPE      H2S             8.2360467814       24.9768121935       14.7775331066  MEMB      26              0.0000000000
      3211        26  OYPE      C3             10.3397356388       24.1905028583       18.9865674242  MEMB      26              0.0000000000
      3212        26  OYPE      HX             10.6673433713       24.5338442558       19.9911123938  MEMB      26              0.0000000000
      3213        26  OYPE      HY             11.2105289606       24.6177229075       18.4447904207  MEMB      26              0.0000000000
      3214        26  OYPE      O31            10.1271217443       22.8126229475       18.8769375624  MEMB      26              0.0000000000
      3215        26  OYPE      C31            10.4586709887       22.2362336178       17.7276144763  MEMB      26              0.0000000000
      3216        26  OYPE      O32            10.8810618176       22.8852797994       16.7459452891  MEMB      26              0.0000000000
      3217        26  OYPE      C32            10.3154948193       20.7062409730       17.8308211300  MEMB      26              0.0000000000
      3218        26  OYPE      H2X            11.1710364172       20.2874530849       18.4026482559  MEMB      26              0.0000000000
      3219        26  OYPE      H2Y             9.3351564640       20.4956444932       18.3092625821  MEMB      26              0.0000000000
      3220        26  OYPE      C23             6.1831154903       25.7311556947       14.7978511300  MEMB      26              0.0000000000
      3221        26  OYPE      H3R             6.5310078792       26.7713608088       14.6210315881  MEMB      26              0.0000000000
      3222        26  OYPE      H3S             5.3039716825       25.6930870966       15.4760680583  MEMB      26              0.0000000000
      3223        26  OYPE      C24             5.8778390477       25.1322475553       13.4225260976  MEMB      26              0.0000000000
      3224        26  OYPE      H4R             5.2766412235       24.2621041622       13.7627207986  MEMB      26              0.0000000000
      3225        26  OYPE      H4S             6.7490606969       24.7250763827       12.8661936575  MEMB      26              0.0000000000
      3226        26  OYPE      C25             5.1880976712       26.1509506757       12.5164581417  MEMB      26              0.0000000000
      3227        26  OYPE      H5R             4.3084798819       26.5477102496       13.0670717057  MEMB      26              0.0000000000
      3228        26  OYPE      H5S             4.7605995988       25.5647965551       11.6750372064  MEMB      26              0.0000000000
      3229        26  OYPE      C26             5.9218730233       27.3603953611       11.8710385637  MEMB      26              0.0000000000
      3230        26  OYPE      H6R             6.9269328269       27.4877320516       12.3270660400  MEMB      26              0.0000000000
      3231        26  OYPE      H6S             5.3282677415       28.2758057317       12.0807466913  MEMB      26              0.0000000000
      3232        26  OYPE      C27             6.1135657186       27.2614273435       10.2866563328  MEMB      26              0.0000000000
      3233        26  OYPE      H7R             5.1497423682       26.9583093890        9.8246124331  MEMB      26              0.0000000000
      3234        26  OYPE      H7S             6.7865924844       26.4196064969       10.0170383078  MEMB      26              0.0000000000
      3235        26  OYPE      C28             6.3181316269       28.6434235608        9.5846788102  MEMB      26              0.0000000000
      3236        26  OYPE      H8R             7.3262039216       28.8770585346        9.9890617852  MEMB      26              0.0000000000
      3237        26  OYPE      H8S             5.5869300348       29.3809746751        9.9792463407  MEMB      26              0.0000000000
      3238        26  OYPE      C29             6.4200819823       28.5603539115        8.1038603322  MEMB      26              0.0000000000
      3239        26  OYPE      H9R             7.4331264194       28.3965016578        7.7077623852  MEMB      26              0.0000000000
      3240        26  OYPE      C210            5.4724727641       28.7875771724        7.1824159381  MEMB      26              0.0000000000
      3241        26  OYPE      H10R            5.7019945607       28.6435635087        6.1163109821  MEMB      26              0.0000000000
      3242        26  OYPE      C211            4.0519350814       29.1752101558        7.4755251251  MEMB      26              0.0000000000
      3243        26  OYPE      H11R            3.6754124382       29.9226233140        6.7448242579  MEMB      26              0.0000000000
      3244        26  OYPE      H11S            3.9918168486       29.6950851434        8.4555440177  MEMB      26              0.0000000000
      3245        26  OYPE      C212            3.0179699519       28.0719754236        7.6217353059  MEMB      26              0.0000000000
      3246        26  OYPE      H12R            2.0535665261       28.5956185883        7.7950689496  MEMB      26              0.0000000000
      3247        26  OYPE      H12S            3.1549030753       27.6113837923        8.6234465408  MEMB      26              0.0000000000
      3248        26  OYPE      C213            3.2005197882       26.9928373284        6.4942904528  MEMB      26              0.0000000000
      3249        26  OYPE      H13R            2.6957040113       26.0660817435        6.8415742884  MEMB      26              0.0000000000
      3250        26  OYPE      H13S            4.2307190464       26.5771674953        6.5094361154  MEMB      26              0.0000000000
      3251        26  OYPE      C214            2.8235840683       27.3204708165        5.0469685072  MEMB      26              0.0000000000
      3252        26  OYPE      H14R            3.6364026666       27.8816528242        4.5383217375  MEMB      26              0.0000000000
      3253        26  OYPE      H14S            1.9385917841       27.9905074426        5.0004894635  MEMB      26              0.0000000000
      3254        26  OYPE      C215            2.6028368266       26.0273271583        4.1399513742  MEMB      26              0.0000000000
      3255        26  OYPE      H15R            1.5013861738       25.9019831761        4.0663560226  MEMB      26              0.0000000000
      3256        26  OYPE      H15S            3.0644474742       25.1429418313        4.6289292094  MEMB      26              0.0000000000
      3257        26  OYPE      C216            3.2537338237       26.1464333032        2.7723099057  MEMB      26              0.0000000000
      3258        26  OYPE      H16R            4.2573505635       26.6086594945        2.8881591037  MEMB      26              0.0000000000
      3259        26  OYPE      H16S            2.7233056152       26.8834500348        2.1321741594  MEMB      26              0.0000000000
      3260        26  OYPE      H16T            3.2333022750       25.1996886077        2.1912950406  MEMB      26              0.0000000000
      3261        26  OYPE      C33            10.3821540326       19.9826841295       16.4177527251  MEMB      26              0.0000000000
      3262        26  OYPE      H3X            11.0008760416       19.0701399736       16.5547470760  MEMB      26              0.0000000000
      3263        26  OYPE      H3Y            10.8749355194       20.5828084243       15.6231847431  MEMB      26              0.0000000000
      3264        26  OYPE      C34             9.0268797595       19.6708426755       15.8378620331  MEMB      26              0.0000000000
      3265        26  OYPE      H4X             9.1862779853       19.1103364850       14.8919520126  MEMB      26              0.0000000000
      3266        26  OYPE      H4Y             8.5211656009       19.0090894732       16.5731557462  MEMB      26              0.0000000000
      3267        26  OYPE      C35             8.2482814764       20.9608863829       15.6211818671  MEMB      26              0.0000000000
      3268        26  OYPE      H5X             8.7325121106       21.4638215946       14.7569492318  MEMB      26              0.0000000000
      3269        26  OYPE      H5Y             8.2703501195       21.4820699987       16.6021006922  MEMB      26              0.0000000000
      3270        26  OYPE      C36             6.7631146967       20.5803045061       15.1270734326  MEMB      26              0.0000000000
      3271        26  OYPE      H6X             6.1929962069       20.0455462215       15.9165793192  MEMB      26              0.0000000000
      3272        26  OYPE      H6Y             6.2594443856       21.5638613244       15.0119514235  MEMB      26              0.0000000000
      3273        26  OYPE      C37             6.8222692184       19.9212739322       13.7235916964  MEMB      26              0.0000000000
      3274        26  OYPE      H7X             7.5235097936       20.5515562887       13.1359465835  MEMB      26              0.0000000000
      3275        26  OYPE      H7Y             7.3593504847       18.9620726700       13.8842086944  MEMB      26              0.0000000000
      3276        26  OYPE      C38             5.5487398237       19.8385249985       12.8918114733  MEMB      26              0.0000000000
      3277        26  OYPE      H8X             4.7260142656       19.3639356004       13.4681867078  MEMB      26              0.0000000000
      3278        26  OYPE      H8Y             5.2649872038       20.8925399886       12.6847895994  MEMB      26              0.0000000000
      3279        26  OYPE      C39             5.7612421251       19.1867251621       11.4761149660  MEMB      26              0.0000000000
      3280        26  OYPE      H9X             5.3986092258       18.1638231439       11.2967584433  MEMB      26              0.0000000000
      3281        26  OYPE      C310            6.3061613641       19.8467066912       10.4137860524  MEMB      26              0.0000000000
      3282        26  OYPE      H10X            6.4711771308       19.3321882551        9.4556412553  MEMB      26              0.0000000000
      3283        26  OYPE      C311            6.7872204932       21.3164942995       10.3813789499  MEMB      26              0.0000000000
      3284        26  OYPE      H11X            6.9437959652       21.7953250768       11.3715945204  MEMB      26              0.0000000000
      3285        26  OYPE      H11Y            7.7736486797       21.3808077578        9.8742855704  MEMB      26              0.0000000000
      3286        26  OYPE      C312            5.8960712407       22.2796519436        9.6522356301  MEMB      26              0.0000000000
      3287        26  OYPE      H12X            6.3987977485       23.2701105126        9.6281715947  MEMB      26              0.0000000000
      3288        26  OYPE      H12Y            4.9540871997       22.4244909835       10.2232071679  MEMB      26              0.0000000000
      3289        26  OYPE      C313            5.6648245127       21.9543259221        8.2532456147  MEMB      26              0.0000000000
      3290        26  OYPE      H13X            6.3628074264       21.1233399251        8.0153316811  MEMB      26              0.0000000000
      3291        26  OYPE      H13Y            4.6382729819       21.5710480266        8.0699128938  MEMB      26              0.0000000000
      3292        26  OYPE      C314            6.0892567715       23.0984464786        7.3153950684  MEMB      26              0.0000000000
      3293        26  OYPE      H14X            7.0830190218       23.5119006355        7.5907377069  MEMB      26              0.0000000000
      3294        26  OYPE      H14Y            5.4211361166       23.9816827780        7.4038782960  MEMB      26              0.0000000000
      3295        26  OYPE      C315            6.0013770192       22.7045821932        5.8171327940  MEMB      26              0.0000000000
      3296        26  OYPE      H15X            4.9822194553       22.6319157037        5.3808324412  MEMB      26              0.0000000000
      3297        26  OYPE      H15Y            6.5816547067       21.7694859385        5.6648378710  MEMB      26              0.0000000000
      3298        26  OYPE      C316            6.7673747457       23.8070878259        4.9424290090  MEMB      26              0.0000000000
      3299        26  OYPE      H16X            7.8107031548       23.7206841090        5.3143447481  MEMB      26              0.0000000000
      3300        26  OYPE      H16Y            6.4692923418       24.8637092654        5.1127787313  MEMB      26              0.0000000000
      3301        26  OYPE      C317            6.7630993575       23.5101864777        3.3902575091  MEMB      26              0.0000000000
      3302        26  OYPE      H17X            5.7154380874       23.4042405580        3.0359946944  MEMB      26              0.0000000000
      3303        26  OYPE      H17Y            7.3434324475       22.5768855356        3.2275185779  MEMB      26              0.0000000000
      3304        26  OYPE      C318            7.2962985772       24.6115775656        2.4756237443  MEMB      26              0.0000000000
      3305        26  OYPE      H18X            8.2374558668       25.1023562890        2.8037701518  MEMB      26              0.0000000000
      3306        26  OYPE      H18Y            7.4493042803       24.2226776991        1.4462218942  MEMB      26              0.0000000000
      3307        26  OYPE      H18Z            6.5387049301       25.4208490586        2.5494664139  MEMB      26              0.0000000000
      3308        27  PMPE      N              -0.2694611976      -25.0582436509       21.5298864769  MEMB      27              0.0000000000
      3309        27  PMPE      HN1            -0.9088490145      -25.8541554057       21.7281478211  MEMB      27              0.0000000000
      3310        27  PMPE      HN2            -0.0252634153      -24.5899316175       22.4257944020  MEMB      27              0.0000000000
      3311        27  PMPE      HN3            -0.8540419476      -24.4236371870       20.9492489494  MEMB      27              0.0000000000
      3312        27  PMPE      C12             1.0407189095      -25.3109239103       20.7991917103  MEMB      27              0.0000000000
      3313        27  PMPE      H12A            0.7718327641      -26.1282383527       20.0963274362  MEMB      27              0.0000000000
      3314        27  PMPE      H12B            1.7797427122      -25.7617680545       21.4955425311  MEMB      27              0.0000000000
      3315        27  PMPE      C11             1.6552483708      -24.0887324533       20.0704555475  MEMB      27              0.0000000000
      3316        27  PMPE      H11A            2.4034416794      -24.5478941658       19.3895014502  MEMB      27              0.0000000000
      3317        27  PMPE      H11B            2.0484112631      -23.3782969149       20.8287597446  MEMB      27              0.0000000000
      3318        27  PMPE      P               0.9452827431      -22.7010706978       17.8799003174  MEMB      27              0.0000000000
      3319        27  PMPE      O13             1.9399556476      -21.6358341188       18.2364377099  MEMB      27              0.0000000000
      3320        27  PMPE      O14            -0.3547798971      -22.2824524043       17.2781377026  MEMB      27              0.0000000000
      3321        27  PMPE      O11             1.5744383595      -23.7612621525       16.9521385216  MEMB      27              0.0000000000
      3322        27  PMPE      O12             0.6023993130      -23.4495158084       19.2538520171  MEMB      27              0.0000000000
      3323        27  PMPE      C1              0.8057317231      -24.9985330172       16.8284830997  MEMB      27              0.0000000000
      3324        27  PMPE      HA             -0.2914994742      -24.8318022744       16.8795285713  MEMB      27              0.0000000000
      3325        27  PMPE      HB              1.2209554069      -25.7832285372       17.4964374023  MEMB      27              0.0000000000
      3326        27  PMPE      C2              1.0626286366      -25.6239754364       15.4328505124  MEMB      27              0.0000000000
      3327        27  PMPE      HS              1.5177815598      -26.6349094688       15.5047464417  MEMB      27              0.0000000000
      3328        27  PMPE      O21             1.9386895635      -24.7336323978       14.6652291018  MEMB      27              0.0000000000
      3329        27  PMPE      C21             2.8483384185      -25.2645520863       13.8053820423  MEMB      27              0.0000000000
      3330        27  PMPE      O22             2.9628578379      -26.4673703462       13.6688408954  MEMB      27              0.0000000000
      3331        27  PMPE      C22             3.8948458127      -24.3688808993       13.2541004049  MEMB      27              0.0000000000
      3332        27  PMPE      H2R             4.1947034460      -24.6354954992       12.2180873142  MEMB      27              0.0000000000
      3333        27  PMPE      H2S             4.8309508296      -24.4290063300       13.8494265966  MEMB      27              0.0000000000
      3334        27  PMPE      C3             -0.2610327314      -25.7557790281       14.6478009132  MEMB      27              0.0000000000
      3335        27  PMPE      HX             -0.6461925460      -24.7143778428       14.6096359715  MEMB      27              0.0000000000
      3336        27  PMPE      HY             -0.9898558111      -26.3139831401       15.2735377873  MEMB      27              0.0000000000
      3337        27  PMPE      O31             0.0113679566      -26.2779285139       13.3006255950  MEMB      27              0.0000000000
      3338        27  PMPE      C31            -0.9740843065      -26.8991655712       12.5890457968  MEMB      27              0.0000000000
      3339        27  PMPE      O32            -1.8958911495      -27.5170879764       13.1070585632  MEMB      27              0.0000000000
      3340        27  PMPE      C32            -0.7324362413      -26.6409731351       11.0941422563  MEMB      27              0.0000000000
      3341        27  PMPE      H2X             0.2798656855      -26.1883314859       11.0257229950  MEMB      27              0.0000000000
      3342        27  PMPE      H2Y            -1.5942967042      -26.0206967464       10.7673779192  MEMB      27              0.0000000000
      3343        27  PMPE      C23             3.5017956985      -22.8474800391       13.1933252134  MEMB      27              0.0000000000
      3344        27  PMPE      H3R             4.3345194040      -22.3612051690       12.6415745017  MEMB      27              0.0000000000
      3345        27  PMPE      H3S             3.3327268569      -22.4258000843       14.2071902763  MEMB      27              0.0000000000
      3346        27  PMPE      C24             2.2025991571      -22.6803572488       12.3565579284  MEMB      27              0.0000000000
      3347        27  PMPE      H4R             1.9140864921      -21.6076099572       12.3393901289  MEMB      27              0.0000000000
      3348        27  PMPE      H4S             1.3277555164      -23.1556881542       12.8495385958  MEMB      27              0.0000000000
      3349        27  PMPE      C25             2.2328621868      -23.1775085831       10.9136196782  MEMB      27              0.0000000000
      3350        27  PMPE      H5R             2.2703872642      -24.2841905711       10.8232434343  MEMB      27              0.0000000000
      3351        27  PMPE      H5S             3.0989937833      -22.7227628902       10.3869857493  MEMB      27              0.0000000000
      3352        27  PMPE      C26             0.8760176322      -22.7812534241       10.2060999094  MEMB      27              0.0000000000
      3353        27  PMPE      H6R             0.9329610120      -21.7103464867        9.9158634842  MEMB      27              0.0000000000
      3354        27  PMPE      H6S             0.0012832510      -22.7467285200       10.8901819470  MEMB      27              0.0000000000
      3355        27  PMPE      C27             0.7060908535      -23.5928742040        8.9751095936  MEMB      27              0.0000000000
      3356        27  PMPE      H7R            -0.3810816718      -23.5112588243        8.7612978558  MEMB      27              0.0000000000
      3357        27  PMPE      H7S             0.8277620359      -24.6926396316        9.0752757086  MEMB      27              0.0000000000
      3358        27  PMPE      C28             1.4229917774      -23.2023716411        7.5941910034  MEMB      27              0.0000000000
      3359        27  PMPE      H8R             1.0262241872      -22.1767632258        7.4360016199  MEMB      27              0.0000000000
      3360        27  PMPE      H8S             0.9834625047      -23.6950437576        6.7006535450  MEMB      27              0.0000000000
      3361        27  PMPE      C29             2.9887726761      -23.3462006743        7.6097520529  MEMB      27              0.0000000000
      3362        27  PMPE      H9R             3.3642891859      -24.3368568690        7.9442791479  MEMB      27              0.0000000000
      3363        27  PMPE      C217            3.9240816621      -22.1303997936        7.7110783792  MEMB      27              0.0000000000
      3364        27  PMPE      H17R            4.8615682416      -22.3535501498        8.2052566067  MEMB      27              0.0000000000
      3365        27  PMPE      H17S            3.4145650873      -21.1822956433        7.8309956402  MEMB      27              0.0000000000
      3366        27  PMPE      C210            3.6921465423      -22.8594511596        6.3913634705  MEMB      27              0.0000000000
      3367        27  PMPE      H10R            4.4829700870      -23.5373059755        6.0047994801  MEMB      27              0.0000000000
      3368        27  PMPE      C211            2.8399633979      -22.3003857621        5.2575288830  MEMB      27              0.0000000000
      3369        27  PMPE      H11R            2.2614804038      -21.4355178756        5.6469932694  MEMB      27              0.0000000000
      3370        27  PMPE      H11S            2.1614485531      -23.0909893418        4.8716738341  MEMB      27              0.0000000000
      3371        27  PMPE      C212            3.8052852526      -21.8264032990        4.1236449619  MEMB      27              0.0000000000
      3372        27  PMPE      H12R            4.5187715697      -22.6129974096        3.7972588423  MEMB      27              0.0000000000
      3373        27  PMPE      H12S            4.3727994961      -20.9344411690        4.4651892035  MEMB      27              0.0000000000
      3374        27  PMPE      C213            2.9885640701      -21.3291285931        2.8016749880  MEMB      27              0.0000000000
      3375        27  PMPE      H13R            3.8796075235      -21.1862123503        2.1536480086  MEMB      27              0.0000000000
      3376        27  PMPE      H13S            2.5013877207      -20.3558350888        3.0245634066  MEMB      27              0.0000000000
      3377        27  PMPE      C214            2.0848058982      -22.4018975720        2.2257469033  MEMB      27              0.0000000000
      3378        27  PMPE      H14R            1.1403095756      -22.4414804288        2.8094249455  MEMB      27              0.0000000000
      3379        27  PMPE      H14S            2.5887093474      -23.3912957175        2.2643918954  MEMB      27              0.0000000000
      3380        27  PMPE      C215            1.5329671417      -22.1303475108        0.7873867261  MEMB      27              0.0000000000
      3381        27  PMPE      H15R            0.7242546721      -21.3699512881        0.8332416143  MEMB      27              0.0000000000
      3382        27  PMPE      H15S            1.0335082763      -23.0941073164        0.5506830071  MEMB      27              0.0000000000
      3383        27  PMPE      C216            2.5347900924      -21.8157623512       -0.3872679344  MEMB      27              0.0000000000
      3384        27  PMPE      H16R            3.1779953712      -20.9241814927       -0.2269842243  MEMB      27              0.0000000000
      3385        27  PMPE      H16S            3.1498973093      -22.6991583337       -0.6621795019  MEMB      27              0.0000000000
      3386        27  PMPE      H16T            1.8509145109      -21.6017063458       -1.2362761874  MEMB      27              0.0000000000
      3387        27  PMPE      C33            -0.5467984290      -27.9260184915       10.2407567587  MEMB      27              0.0000000000
      3388        27  PMPE      H3X            -1.5127350309      -28.4746679835       10.2572152530  MEMB      27              0.0000000000
      3389        27  PMPE      H3Y             0.1798644191      -28.5557736006       10.7972544162  MEMB      27              0.0000000000
      3390        27  PMPE      C34            -0.0743351782      -27.7398443103        8.8188402704  MEMB      27              0.0000000000
      3391        27  PMPE      H4X            -0.7164048150      -26.9430225897        8.3862406846  MEMB      27              0.0000000000
      3392        27  PMPE      H4Y            -0.4062294333      -28.6661795991        8.3030213275  MEMB      27              0.0000000000
      3393        27  PMPE      C35             1.4119839821      -27.4888368841        8.5682558611  MEMB      27              0.0000000000
      3394        27  PMPE      H5X             1.9326950552      -28.3006032423        9.1198141050  MEMB      27              0.0000000000
      3395        27  PMPE      H5Y             1.8056963354      -26.5122159839        8.9225476424  MEMB      27              0.0000000000
      3396        27  PMPE      C36             1.8307322933      -27.6254723530        7.0909114901  MEMB      27              0.0000000000
      3397        27  PMPE      H6X             1.8926379457      -28.7185322604        6.9019447537  MEMB      27              0.0000000000
      3398        27  PMPE      H6Y             2.8199502201      -27.1319387082        6.9804872693  MEMB      27              0.0000000000
      3399        27  PMPE      C37             0.9320765884      -26.8674168593        6.0554140187  MEMB      27              0.0000000000
      3400        27  PMPE      H7X             1.0434128972      -25.7850345806        6.2798546329  MEMB      27              0.0000000000
      3401        27  PMPE      H7Y            -0.1295167677      -27.1945448912        6.0735184996  MEMB      27              0.0000000000
      3402        27  PMPE      C38             1.5200789791      -26.9219551818        4.6482495461  MEMB      27              0.0000000000
      3403        27  PMPE      H8X             1.5341285387      -27.9869021289        4.3320025789  MEMB      27              0.0000000000
      3404        27  PMPE      H8Y             2.5892379537      -26.6273714526        4.7148868077  MEMB      27              0.0000000000
      3405        27  PMPE      C39             0.7688484183      -26.1244545044        3.5432754881  MEMB      27              0.0000000000
      3406        27  PMPE      H9X             1.4671683186      -26.0827380649        2.6801826625  MEMB      27              0.0000000000
      3407        27  PMPE      H9Y             0.6403611261      -25.0828664152        3.9078379220  MEMB      27              0.0000000000
      3408        27  PMPE      C310           -0.5851535849      -26.7320584568        3.1690488206  MEMB      27              0.0000000000
      3409        27  PMPE      H10X           -1.2233321341      -26.9184932259        4.0591564803  MEMB      27              0.0000000000
      3410        27  PMPE      H10Y           -0.2646033515      -27.6475430037        2.6273326240  MEMB      27              0.0000000000
      3411        27  PMPE      C311           -1.4066120532      -25.7378975989        2.2644756010  MEMB      27              0.0000000000
      3412        27  PMPE      H11X           -2.2374313367      -26.2891328586        1.7743730174  MEMB      27              0.0000000000
      3413        27  PMPE      H11Y           -0.7256928070      -25.3931567590        1.4571185132  MEMB      27              0.0000000000
      3414        27  PMPE      C312           -2.0121785066      -24.4001795863        2.9038252951  MEMB      27              0.0000000000
      3415        27  PMPE      H12X           -1.1976716231      -23.7492830953        3.2875361575  MEMB      27              0.0000000000
      3416        27  PMPE      H12Y           -2.6165766386      -24.6630223960        3.7982179907  MEMB      27              0.0000000000
      3417        27  PMPE      C313           -2.9127247387      -23.5446096364        1.9929814637  MEMB      27              0.0000000000
      3418        27  PMPE      H13X           -3.4074972801      -22.8933858849        2.7449316388  MEMB      27              0.0000000000
      3419        27  PMPE      H13Y           -3.5882267356      -24.3080522000        1.5511967301  MEMB      27              0.0000000000
      3420        27  PMPE      C314           -2.1815731102      -22.6935907152        0.9602846696  MEMB      27              0.0000000000
      3421        27  PMPE      H14X           -1.5611469014      -23.4188623404        0.3916257062  MEMB      27              0.0000000000
      3422        27  PMPE      H14Y           -1.6391021374      -21.8480644109        1.4347636991  MEMB      27              0.0000000000
      3423        27  PMPE      C315           -3.0725989964      -22.0877526933       -0.1530925099  MEMB      27              0.0000000000
      3424        27  PMPE      H15X           -3.8317660073      -21.4735058864        0.3767070575  MEMB      27              0.0000000000
      3425        27  PMPE      H15Y           -3.6144766539      -22.8254091973       -0.7828161666  MEMB      27              0.0000000000
      3426        27  PMPE      C316           -2.2102035690      -21.2150086917       -1.0603352375  MEMB      27              0.0000000000
      3427        27  PMPE      H16X           -1.7762137859      -20.3484969246       -0.5170762514  MEMB      27              0.0000000000
      3428        27  PMPE      H16Y           -2.9164241252      -20.6942185156       -1.7417690128  MEMB      27              0.0000000000
      3429        27  PMPE      H16Z           -1.4181814185      -21.8353718472       -1.5316874277  MEMB      27              0.0000000000
      3430        28  PMPE      N              21.1450136286       14.9451397709       18.3257725127  MEMB      28              0.0000000000
      3431        28  PMPE      HN1            22.1373947347       14.6484464154       18.2322160934  MEMB      28              0.0000000000
      3432        28  PMPE      HN2            20.8318325433       15.2523156404       17.3828194596  MEMB      28              0.0000000000
      3433        28  PMPE      HN3            21.1455632256       15.7970476807       18.9223063674  MEMB      28              0.0000000000
      3434        28  PMPE      C12            20.1209598920       13.9981551481       18.8651627386  MEMB      28              0.0000000000
      3435        28  PMPE      H12A           20.3040021174       13.7037635386       19.9206958228  MEMB      28              0.0000000000
      3436        28  PMPE      H12B           20.0917348220       13.1327717709       18.1690459430  MEMB      28              0.0000000000
      3437        28  PMPE      C11            18.7125022372       14.5267835769       18.7836750631  MEMB      28              0.0000000000
      3438        28  PMPE      H11A           18.0699083727       13.7533422177       19.2560971672  MEMB      28              0.0000000000
      3439        28  PMPE      H11B           18.4521799322       14.6453225761       17.7101286733  MEMB      28              0.0000000000
      3440        28  PMPE      P              17.5026472355       16.8875003078       19.3178056088  MEMB      28              0.0000000000
      3441        28  PMPE      O13            17.7813778012       18.1746159971       19.9805538843  MEMB      28              0.0000000000
      3442        28  PMPE      O14            16.2230467596       16.2644290388       19.5444346996  MEMB      28              0.0000000000
      3443        28  PMPE      O11            17.5411354404       17.0782033393       17.7239267904  MEMB      28              0.0000000000
      3444        28  PMPE      O12            18.6924594148       15.7844984197       19.4586687019  MEMB      28              0.0000000000
      3445        28  PMPE      C1             18.6194150232       17.7251661502       17.1047958383  MEMB      28              0.0000000000
      3446        28  PMPE      HA             19.2016982366       17.0293373223       16.4636331860  MEMB      28              0.0000000000
      3447        28  PMPE      HB             19.1362452290       18.2756211700       17.9197846807  MEMB      28              0.0000000000
      3448        28  PMPE      C2             18.1416288817       18.8053064576       16.1787408054  MEMB      28              0.0000000000
      3449        28  PMPE      HS             17.7064725275       19.6547036964       16.7474975313  MEMB      28              0.0000000000
      3450        28  PMPE      O21            17.0431603551       18.2613948374       15.4999299910  MEMB      28              0.0000000000
      3451        28  PMPE      C21            16.1244912600       19.1498434750       15.0147876087  MEMB      28              0.0000000000
      3452        28  PMPE      O22            16.2699881215       20.3850210401       15.0763117404  MEMB      28              0.0000000000
      3453        28  PMPE      C22            14.9239847194       18.4328974453       14.3130316580  MEMB      28              0.0000000000
      3454        28  PMPE      H2R            13.9288958324       18.8915822083       14.4966811933  MEMB      28              0.0000000000
      3455        28  PMPE      H2S            14.8093814803       17.4391081900       14.7963226838  MEMB      28              0.0000000000
      3456        28  PMPE      C3             19.2129553578       19.3971932324       15.2411292843  MEMB      28              0.0000000000
      3457        28  PMPE      HX             20.0513901686       19.9378833757       15.7300076649  MEMB      28              0.0000000000
      3458        28  PMPE      HY             18.7440378209       20.1586345897       14.5818536563  MEMB      28              0.0000000000
      3459        28  PMPE      O31            19.7445609321       18.2874628563       14.5017652925  MEMB      28              0.0000000000
      3460        28  PMPE      C31            20.5716445129       18.4875609195       13.5204940818  MEMB      28              0.0000000000
      3461        28  PMPE      O32            21.3073048877       19.3676265772       13.3520649885  MEMB      28              0.0000000000
      3462        28  PMPE      C32            20.4711219974       17.2558415550       12.5715699681  MEMB      28              0.0000000000
      3463        28  PMPE      H2X            20.1190920683       16.3135298670       13.0432101538  MEMB      28              0.0000000000
      3464        28  PMPE      H2Y            21.4902928897       17.1284479473       12.1480340661  MEMB      28              0.0000000000
      3465        28  PMPE      C23            15.1645136485       18.2983746537       12.8045370091  MEMB      28              0.0000000000
      3466        28  PMPE      H3R            16.0322597174       17.6259382394       12.6337526600  MEMB      28              0.0000000000
      3467        28  PMPE      H3S            15.4368004441       19.2269324049       12.2586783400  MEMB      28              0.0000000000
      3468        28  PMPE      C24            13.8000511378       17.6484643190       12.1881590769  MEMB      28              0.0000000000
      3469        28  PMPE      H4R            12.9040719125       18.2311852372       12.4914388522  MEMB      28              0.0000000000
      3470        28  PMPE      H4S            13.6621521158       16.6153992952       12.5729727506  MEMB      28              0.0000000000
      3471        28  PMPE      C25            13.7380548671       17.6361405973       10.6916061510  MEMB      28              0.0000000000
      3472        28  PMPE      H5R            12.8228672665       17.0836895486       10.3890337250  MEMB      28              0.0000000000
      3473        28  PMPE      H5S            14.6045137333       17.0452990838       10.3248961960  MEMB      28              0.0000000000
      3474        28  PMPE      C26            13.7143004955       19.0624854497       10.1442581932  MEMB      28              0.0000000000
      3475        28  PMPE      H6R            14.5725490904       19.6124375725       10.5861670074  MEMB      28              0.0000000000
      3476        28  PMPE      H6S            12.7895108395       19.6160552009       10.4137873016  MEMB      28              0.0000000000
      3477        28  PMPE      C27            13.7664143846       19.0179798863        8.5248884883  MEMB      28              0.0000000000
      3478        28  PMPE      H7R            13.4861358654       20.0201730106        8.1358200906  MEMB      28              0.0000000000
      3479        28  PMPE      H7S            13.1372896731       18.1413924210        8.2600910753  MEMB      28              0.0000000000
      3480        28  PMPE      C28            15.1940990588       18.7054502622        7.9023529848  MEMB      28              0.0000000000
      3481        28  PMPE      H8R            15.0423412474       18.4505353978        6.8316952065  MEMB      28              0.0000000000
      3482        28  PMPE      H8S            15.5708113861       17.8441947085        8.4945081603  MEMB      28              0.0000000000
      3483        28  PMPE      C29            16.2045064149       19.7848996187        8.1038019255  MEMB      28              0.0000000000
      3484        28  PMPE      H9R            16.2887822288       20.1847018078        9.1369409141  MEMB      28              0.0000000000
      3485        28  PMPE      C217           16.3260929420       20.8520384678        6.9717352868  MEMB      28              0.0000000000
      3486        28  PMPE      H17R           16.5290324787       21.8688918536        7.2843268866  MEMB      28              0.0000000000
      3487        28  PMPE      H17S           15.6868664485       20.6867044988        6.1132804488  MEMB      28              0.0000000000
      3488        28  PMPE      C210           17.4840762841       19.9130127715        7.2595267135  MEMB      28              0.0000000000
      3489        28  PMPE      H10R           18.3713889186       20.3300943803        7.7820589261  MEMB      28              0.0000000000
      3490        28  PMPE      C211           17.6488272445       18.6815979649        6.3593486361  MEMB      28              0.0000000000
      3491        28  PMPE      H11R           16.6987963121       18.5379885540        5.8015514202  MEMB      28              0.0000000000
      3492        28  PMPE      H11S           17.9904625130       17.7879568078        6.9241600217  MEMB      28              0.0000000000
      3493        28  PMPE      C212           18.8227743033       18.9080172437        5.4163922059  MEMB      28              0.0000000000
      3494        28  PMPE      H12R           19.7534271637       19.2097794183        5.9428378791  MEMB      28              0.0000000000
      3495        28  PMPE      H12S           18.5349407296       19.7702783047        4.7776599923  MEMB      28              0.0000000000
      3496        28  PMPE      C213           19.2529131910       17.7932606219        4.5292150534  MEMB      28              0.0000000000
      3497        28  PMPE      H13R           19.0755973335       16.8427295642        5.0763627266  MEMB      28              0.0000000000
      3498        28  PMPE      H13S           20.3584494716       17.8276281152        4.4246712354  MEMB      28              0.0000000000
      3499        28  PMPE      C214           18.5848483011       17.6816260501        3.1842929368  MEMB      28              0.0000000000
      3500        28  PMPE      H14R           18.9341138651       18.6684658857        2.8121624051  MEMB      28              0.0000000000
      3501        28  PMPE      H14S           17.4752738205       17.7251136072        3.1485974784  MEMB      28              0.0000000000
      3502        28  PMPE      C215           19.0045056861       16.5069261394        2.2674636001  MEMB      28              0.0000000000
      3503        28  PMPE      H15R           18.6072130076       16.7183174787        1.2516903242  MEMB      28              0.0000000000
      3504        28  PMPE      H15S           18.6317539914       15.4923945518        2.5245674538  MEMB      28              0.0000000000
      3505        28  PMPE      C216           20.5425082969       16.2834932355        2.1350196706  MEMB      28              0.0000000000
      3506        28  PMPE      H16R           21.0045523284       17.2313591824        1.7851817034  MEMB      28              0.0000000000
      3507        28  PMPE      H16S           20.9877928374       16.1177360775        3.1392930933  MEMB      28              0.0000000000
      3508        28  PMPE      H16T           20.7112122803       15.5068752455        1.3586655304  MEMB      28              0.0000000000
      3509        28  PMPE      C33            19.5025395543       17.4233014397       11.3864528043  MEMB      28              0.0000000000
      3510        28  PMPE      H3X            19.8491052926       18.1783508966       10.6488119682  MEMB      28              0.0000000000
      3511        28  PMPE      H3Y            18.5137752839       17.7480488708       11.7753040912  MEMB      28              0.0000000000
      3512        28  PMPE      C34            19.3124231847       16.1039248710       10.5322964003  MEMB      28              0.0000000000
      3513        28  PMPE      H4X            18.2691657708       16.0754659279       10.1513429379  MEMB      28              0.0000000000
      3514        28  PMPE      H4Y            19.5950078385       15.2840042662       11.2267004858  MEMB      28              0.0000000000
      3515        28  PMPE      C35            20.1940947516       16.0552932668        9.2763472574  MEMB      28              0.0000000000
      3516        28  PMPE      H5X            21.1815475086       16.4141663187        9.6375514129  MEMB      28              0.0000000000
      3517        28  PMPE      H5Y            19.8241055680       16.8962807266        8.6517123777  MEMB      28              0.0000000000
      3518        28  PMPE      C36            20.4638980559       14.7180127452        8.5775460053  MEMB      28              0.0000000000
      3519        28  PMPE      H6X            21.0419713004       14.0192574435        9.2193358372  MEMB      28              0.0000000000
      3520        28  PMPE      H6Y            21.0631081849       14.9351440641        7.6675341209  MEMB      28              0.0000000000
      3521        28  PMPE      C37            19.1846558101       13.8651438164        8.1552965809  MEMB      28              0.0000000000
      3522        28  PMPE      H7X            18.6789403163       13.5005620719        9.0748902091  MEMB      28              0.0000000000
      3523        28  PMPE      H7Y            19.5139502419       12.9477699795        7.6220876388  MEMB      28              0.0000000000
      3524        28  PMPE      C38            18.2673532286       14.6984512672        7.2181315268  MEMB      28              0.0000000000
      3525        28  PMPE      H8X            18.7638879471       14.9871582463        6.2671207854  MEMB      28              0.0000000000
      3526        28  PMPE      H8Y            17.9453861613       15.6184540019        7.7512856658  MEMB      28              0.0000000000
      3527        28  PMPE      C39            16.8913717553       13.9488113884        7.0626379844  MEMB      28              0.0000000000
      3528        28  PMPE      H9X            16.4374072172       13.5790701108        8.0068459294  MEMB      28              0.0000000000
      3529        28  PMPE      H9Y            16.9883478062       13.0334666415        6.4404966925  MEMB      28              0.0000000000
      3530        28  PMPE      C310           15.8178827776       14.7495232475        6.3571749111  MEMB      28              0.0000000000
      3531        28  PMPE      H10X           15.6020678536       15.7170349538        6.8588381055  MEMB      28              0.0000000000
      3532        28  PMPE      H10Y           14.8435163778       14.2168907073        6.3922980643  MEMB      28              0.0000000000
      3533        28  PMPE      C311           16.0422815108       14.9338619626        4.8375566502  MEMB      28              0.0000000000
      3534        28  PMPE      H11X           16.2405215526       13.9059034029        4.4656385940  MEMB      28              0.0000000000
      3535        28  PMPE      H11Y           17.0089863856       15.4618259799        4.6924473881  MEMB      28              0.0000000000
      3536        28  PMPE      C312           14.8376378673       15.5096279270        4.0955530364  MEMB      28              0.0000000000
      3537        28  PMPE      H12X           14.0020397457       14.7777923487        4.0728909465  MEMB      28              0.0000000000
      3538        28  PMPE      H12Y           15.1406464062       15.5185272371        3.0267088456  MEMB      28              0.0000000000
      3539        28  PMPE      C313           14.3352636652       16.8584811701        4.3588402793  MEMB      28              0.0000000000
      3540        28  PMPE      H13X           15.1104043012       17.5843827835        4.6852521683  MEMB      28              0.0000000000
      3541        28  PMPE      H13Y           13.5873939584       16.8251845908        5.1797560478  MEMB      28              0.0000000000
      3542        28  PMPE      C314           13.5336428624       17.4291258894        3.2062809330  MEMB      28              0.0000000000
      3543        28  PMPE      H14X           12.7753916078       16.6178608188        3.1712775003  MEMB      28              0.0000000000
      3544        28  PMPE      H14Y           14.1938274195       17.3297813148        2.3182437595  MEMB      28              0.0000000000
      3545        28  PMPE      C315           13.1004649068       18.9454471465        3.3397506730  MEMB      28              0.0000000000
      3546        28  PMPE      H15X           13.9931164080       19.5885107406        3.4945529911  MEMB      28              0.0000000000
      3547        28  PMPE      H15Y           12.3451078170       19.1219446229        4.1351159428  MEMB      28              0.0000000000
      3548        28  PMPE      C316           12.3713811508       19.4630621679        2.0885208865  MEMB      28              0.0000000000
      3549        28  PMPE      H16X           12.8681370153       19.0486956670        1.1852749703  MEMB      28              0.0000000000
      3550        28  PMPE      H16Y           12.2602399488       20.5682282947        2.0645154576  MEMB      28              0.0000000000
      3551        28  PMPE      H16Z           11.4056993588       18.9316248656        1.9494002497  MEMB      28              0.0000000000
      3552        29  PMPE      N             -12.3668611638       19.6715115652       19.5417362877  MEMB      29              0.0000000000
      3553        29  PMPE      HN1           -11.4488242070       19.2451842374       19.7805941147  MEMB      29              0.0000000000
      3554        29  PMPE      HN2           -13.0401125928       18.8843038072       19.6346696599  MEMB      29              0.0000000000
      3555        29  PMPE      HN3           -12.3185237341       20.0251184182       18.5648915188  MEMB      29              0.0000000000
      3556        29  PMPE      C12           -12.5005717326       20.8380165718       20.5991898891  MEMB      29              0.0000000000
      3557        29  PMPE      H12A          -12.2913861408       20.4351521399       21.6132226132  MEMB      29              0.0000000000
      3558        29  PMPE      H12B          -13.5518713799       21.1698101286       20.4613381722  MEMB      29              0.0000000000
      3559        29  PMPE      C11           -11.4323322292       21.9790879105       20.4726471639  MEMB      29              0.0000000000
      3560        29  PMPE      H11A          -10.4398525469       21.5349310625       20.7007475140  MEMB      29              0.0000000000
      3561        29  PMPE      H11B          -11.5394657386       22.7664562405       21.2491100457  MEMB      29              0.0000000000
      3562        29  PMPE      P             -10.1379422380       22.6632333701       18.2348071048  MEMB      29              0.0000000000
      3563        29  PMPE      O13            -9.0346489532       22.3450355743       19.1349058093  MEMB      29              0.0000000000
      3564        29  PMPE      O14           -10.0991030884       23.9658986654       17.5932999169  MEMB      29              0.0000000000
      3565        29  PMPE      O11           -10.4143857016       21.4539319328       17.2650651347  MEMB      29              0.0000000000
      3566        29  PMPE      O12           -11.4351772967       22.5615588131       19.1583486912  MEMB      29              0.0000000000
      3567        29  PMPE      C1             -9.3653945072       20.7749386336       16.5715200674  MEMB      29              0.0000000000
      3568        29  PMPE      HA             -9.7003687267       19.7173884091       16.5106852811  MEMB      29              0.0000000000
      3569        29  PMPE      HB             -8.4379211679       20.9862417053       17.1455104813  MEMB      29              0.0000000000
      3570        29  PMPE      C2             -9.1968726141       21.3757504276       15.1461352017  MEMB      29              0.0000000000
      3571        29  PMPE      HS             -8.4274521801       20.6831267820       14.7429161852  MEMB      29              0.0000000000
      3572        29  PMPE      O21            -8.7955687208       22.7670410658       15.1604047108  MEMB      29              0.0000000000
      3573        29  PMPE      C21            -7.5122996619       23.0616916008       14.9158746739  MEMB      29              0.0000000000
      3574        29  PMPE      O22            -6.6279018116       22.2854296351       14.6260090876  MEMB      29              0.0000000000
      3575        29  PMPE      C22            -7.5098495801       24.6119791454       14.9840116509  MEMB      29              0.0000000000
      3576        29  PMPE      H2R            -6.8972666389       24.7774433150       15.8959793586  MEMB      29              0.0000000000
      3577        29  PMPE      H2S            -8.5084418828       25.0878618700       15.0873068816  MEMB      29              0.0000000000
      3578        29  PMPE      C3            -10.5474672597       21.2985382071       14.3768152589  MEMB      29              0.0000000000
      3579        29  PMPE      HX            -11.2948622192       21.9662713513       14.8562465723  MEMB      29              0.0000000000
      3580        29  PMPE      HY            -10.9207228673       20.2549020879       14.4531365014  MEMB      29              0.0000000000
      3581        29  PMPE      O31           -10.2280753371       21.6539850088       13.0590834318  MEMB      29              0.0000000000
      3582        29  PMPE      C31           -11.1395113992       21.3258093948       12.1384459689  MEMB      29              0.0000000000
      3583        29  PMPE      O32           -12.3365595990       21.0702846620       12.3771209781  MEMB      29              0.0000000000
      3584        29  PMPE      C32           -10.4014655012       21.3897597388       10.8181412355  MEMB      29              0.0000000000
      3585        29  PMPE      H2X           -10.5452696337       20.5088756280       10.1565642105  MEMB      29              0.0000000000
      3586        29  PMPE      H2Y            -9.3378389956       21.2078258630       11.0825640824  MEMB      29              0.0000000000
      3587        29  PMPE      C23            -6.6926277320       25.2454590918       13.7978473411  MEMB      29              0.0000000000
      3588        29  PMPE      H3R            -5.6142989372       24.9803480355       13.8331234165  MEMB      29              0.0000000000
      3589        29  PMPE      H3S            -6.6292168914       26.3543305459       13.8243825599  MEMB      29              0.0000000000
      3590        29  PMPE      C24            -7.1348958702       24.7602583028       12.4010816383  MEMB      29              0.0000000000
      3591        29  PMPE      H4R            -8.2368155517       24.6875892350       12.2793721819  MEMB      29              0.0000000000
      3592        29  PMPE      H4S            -6.8454484284       23.6915076269       12.3099041769  MEMB      29              0.0000000000
      3593        29  PMPE      C25            -6.3944071698       25.4484984585       11.2327996288  MEMB      29              0.0000000000
      3594        29  PMPE      H5R            -5.3397206243       25.1425155598       11.4011201208  MEMB      29              0.0000000000
      3595        29  PMPE      H5S            -6.5050191309       26.5367529040       11.4271910643  MEMB      29              0.0000000000
      3596        29  PMPE      C26            -6.9378083463       25.1634900330        9.8400948594  MEMB      29              0.0000000000
      3597        29  PMPE      H6R            -7.0181237283       24.0641124480        9.7013872042  MEMB      29              0.0000000000
      3598        29  PMPE      H6S            -6.2841755266       25.5239431291        9.0171983380  MEMB      29              0.0000000000
      3599        29  PMPE      C27            -8.3222667717       25.9419331434        9.5528905180  MEMB      29              0.0000000000
      3600        29  PMPE      H7R            -8.2282064670       26.9149438910       10.0808329422  MEMB      29              0.0000000000
      3601        29  PMPE      H7S            -9.1494591902       25.4065615464       10.0661655288  MEMB      29              0.0000000000
      3602        29  PMPE      C28            -8.7539301481       26.1164584009        8.1306812892  MEMB      29              0.0000000000
      3603        29  PMPE      H8R            -8.1567787131       26.9479565516        7.6990068274  MEMB      29              0.0000000000
      3604        29  PMPE      H8S            -9.7677950666       26.5690292290        8.1704112074  MEMB      29              0.0000000000
      3605        29  PMPE      C29            -8.5925407493       24.7486001644        7.4195910455  MEMB      29              0.0000000000
      3606        29  PMPE      H9R            -8.9819159328       23.8367598108        7.9208455517  MEMB      29              0.0000000000
      3607        29  PMPE      C217           -7.4000292309       24.4692991923        6.5808883794  MEMB      29              0.0000000000
      3608        29  PMPE      H17R           -7.0916256310       23.4315381206        6.5521083865  MEMB      29              0.0000000000
      3609        29  PMPE      H17S           -6.7104268647       25.2769178557        6.3685452403  MEMB      29              0.0000000000
      3610        29  PMPE      C210           -8.8181221232       24.6106994254        5.9564045735  MEMB      29              0.0000000000
      3611        29  PMPE      H10R           -9.2087813026       23.6685611747        5.5158571774  MEMB      29              0.0000000000
      3612        29  PMPE      C211           -8.9097249332       25.8724938516        5.1121354816  MEMB      29              0.0000000000
      3613        29  PMPE      H11R           -8.5392081873       25.5907228966        4.1033520230  MEMB      29              0.0000000000
      3614        29  PMPE      H11S           -8.0607455613       26.5283468692        5.4009458641  MEMB      29              0.0000000000
      3615        29  PMPE      C212          -10.2934871509       26.5220682187        5.0332971026  MEMB      29              0.0000000000
      3616        29  PMPE      H12R          -10.1643469972       27.5293040457        4.5826087600  MEMB      29              0.0000000000
      3617        29  PMPE      H12S          -10.6034610320       26.5777786136        6.0987237105  MEMB      29              0.0000000000
      3618        29  PMPE      C213          -11.3936660306       25.8241583548        4.2004357633  MEMB      29              0.0000000000
      3619        29  PMPE      H13R          -12.4186011005       26.2264858848        4.3486308122  MEMB      29              0.0000000000
      3620        29  PMPE      H13S          -11.4466564006       24.7787808798        4.5728581946  MEMB      29              0.0000000000
      3621        29  PMPE      C214          -11.0237099667       25.5796000776        2.6852813568  MEMB      29              0.0000000000
      3622        29  PMPE      H14R          -11.9025505639       25.0383767275        2.2741394144  MEMB      29              0.0000000000
      3623        29  PMPE      H14S          -10.2434493407       24.7976584290        2.5666155674  MEMB      29              0.0000000000
      3624        29  PMPE      C215          -10.8032012367       26.8707377108        1.9083296643  MEMB      29              0.0000000000
      3625        29  PMPE      H15R           -9.8948344786       27.3870414231        2.2859840223  MEMB      29              0.0000000000
      3626        29  PMPE      H15S          -11.6659019007       27.5568246616        2.0474450086  MEMB      29              0.0000000000
      3627        29  PMPE      C216          -10.5068762948       26.5616127356        0.4522835446  MEMB      29              0.0000000000
      3628        29  PMPE      H16R          -11.4138840579       26.0263889186        0.0984561298  MEMB      29              0.0000000000
      3629        29  PMPE      H16S          -10.3457044676       27.5138115007       -0.0969543045  MEMB      29              0.0000000000
      3630        29  PMPE      H16T           -9.6012338975       25.9205292315        0.3962087941  MEMB      29              0.0000000000
      3631        29  PMPE      C33           -10.7397858885       22.7342099132       10.1062775948  MEMB      29              0.0000000000
      3632        29  PMPE      H3X            -9.9607334427       22.9563769517        9.3459879049  MEMB      29              0.0000000000
      3633        29  PMPE      H3Y           -10.6510751298       23.5856207092       10.8144803153  MEMB      29              0.0000000000
      3634        29  PMPE      C34           -12.1576014340       22.7334428552        9.4900248957  MEMB      29              0.0000000000
      3635        29  PMPE      H4X           -12.4138531732       23.7510433709        9.1251345260  MEMB      29              0.0000000000
      3636        29  PMPE      H4Y           -12.9232071609       22.4204117610       10.2317669540  MEMB      29              0.0000000000
      3637        29  PMPE      C35           -12.1947886505       21.7541856283        8.3107896950  MEMB      29              0.0000000000
      3638        29  PMPE      H5X           -12.2318827519       20.7390878452        8.7608144608  MEMB      29              0.0000000000
      3639        29  PMPE      H5Y           -11.2844031189       21.8420205271        7.6800724466  MEMB      29              0.0000000000
      3640        29  PMPE      C36           -13.5524855292       22.0090065172        7.6116444739  MEMB      29              0.0000000000
      3641        29  PMPE      H6X           -13.4332599896       22.9867253980        7.0976675671  MEMB      29              0.0000000000
      3642        29  PMPE      H6Y           -14.2773618121       22.1679286513        8.4384569871  MEMB      29              0.0000000000
      3643        29  PMPE      C37           -13.8245984292       20.7424842258        6.6920065184  MEMB      29              0.0000000000
      3644        29  PMPE      H7X           -14.8177413472       20.9978425186        6.2644785266  MEMB      29              0.0000000000
      3645        29  PMPE      H7Y           -13.9050218871       19.8375557537        7.3315035143  MEMB      29              0.0000000000
      3646        29  PMPE      C38           -12.8534211389       20.5996381982        5.4783536043  MEMB      29              0.0000000000
      3647        29  PMPE      H8X           -11.9395545309       20.1060616086        5.8727532243  MEMB      29              0.0000000000
      3648        29  PMPE      H8Y           -12.6873693097       21.6498278137        5.1560966720  MEMB      29              0.0000000000
      3649        29  PMPE      C39           -13.2776794412       19.7451450406        4.3064926707  MEMB      29              0.0000000000
      3650        29  PMPE      H9X           -13.9729758394       20.2034749427        3.5710895491  MEMB      29              0.0000000000
      3651        29  PMPE      H9Y           -13.8853215955       18.8784633599        4.6440640028  MEMB      29              0.0000000000
      3652        29  PMPE      C310          -12.0835701691       19.2418603536        3.6068831795  MEMB      29              0.0000000000
      3653        29  PMPE      H10X          -12.4269890078       18.4752988849        2.8797188672  MEMB      29              0.0000000000
      3654        29  PMPE      H10Y          -11.3642885511       18.8183314116        4.3400804405  MEMB      29              0.0000000000
      3655        29  PMPE      C311          -11.2631662039       20.2521734534        2.7275184332  MEMB      29              0.0000000000
      3656        29  PMPE      H11X          -10.4363240576       19.6383537137        2.3105313750  MEMB      29              0.0000000000
      3657        29  PMPE      H11Y          -10.8307500833       21.0188202431        3.4054486154  MEMB      29              0.0000000000
      3658        29  PMPE      C312          -11.9879083593       20.8887787590        1.5096770164  MEMB      29              0.0000000000
      3659        29  PMPE      H12X          -11.2549743034       21.6213823967        1.1091521601  MEMB      29              0.0000000000
      3660        29  PMPE      H12Y          -12.9235506210       21.4155398958        1.7950144638  MEMB      29              0.0000000000
      3661        29  PMPE      C313          -12.2501716298       19.8301344679        0.4088984174  MEMB      29              0.0000000000
      3662        29  PMPE      H13X          -13.1062560726       19.2491553194        0.8137474975  MEMB      29              0.0000000000
      3663        29  PMPE      H13Y          -11.4762866194       19.0377135624        0.3223421697  MEMB      29              0.0000000000
      3664        29  PMPE      C314          -12.7520382976       20.4386014127       -0.8994791761  MEMB      29              0.0000000000
      3665        29  PMPE      H14X          -13.7054906724       20.9225088230       -0.5976793517  MEMB      29              0.0000000000
      3666        29  PMPE      H14Y          -12.9548623700       19.7014452234       -1.7055719115  MEMB      29              0.0000000000
      3667        29  PMPE      C315          -11.6899703189       21.5032549615       -1.4703087069  MEMB      29              0.0000000000
      3668        29  PMPE      H15X          -10.7121268148       20.9761847622       -1.4887550968  MEMB      29              0.0000000000
      3669        29  PMPE      H15Y          -11.7460723887       22.3099998889       -0.7085103085  MEMB      29              0.0000000000
      3670        29  PMPE      C316          -11.9075885447       21.9830287968       -2.9330825887  MEMB      29              0.0000000000
      3671        29  PMPE      H16X          -12.9338714804       22.3947862290       -3.0404119224  MEMB      29              0.0000000000
      3672        29  PMPE      H16Y          -11.6578067197       21.1699084559       -3.6477621301  MEMB      29              0.0000000000
      3673        29  PMPE      H16Z          -11.1829702180       22.8096486231       -3.0941697648  MEMB      29              0.0000000000
      3674        30  POPE      N              -8.2300087464      -25.5136242158       20.0643596925  MEMB      30              0.0000000000
      3675        30  POPE      HN1            -8.8208181472      -26.3539351889       19.9018116302  MEMB      30              0.0000000000
      3676        30  POPE      HN2            -7.4972278370      -25.8149416301       20.7380362573  MEMB      30              0.0000000000
      3677        30  POPE      HN3            -8.8757105910      -24.8139434906       20.4828282793  MEMB      30              0.0000000000
      3678        30  POPE      C12            -7.3509995810      -25.1473540566       18.8851630772  MEMB      30              0.0000000000
      3679        30  POPE      H12A           -7.2505568056      -26.0924491200       18.3098128235  MEMB      30              0.0000000000
      3680        30  POPE      H12B           -6.4040561141      -24.6881572476       19.2411931399  MEMB      30              0.0000000000
      3681        30  POPE      C11            -8.0298562878      -24.0107933347       17.8918407369  MEMB      30              0.0000000000
      3682        30  POPE      H11A           -8.9045812547      -24.3844813416       17.3177897389  MEMB      30              0.0000000000
      3683        30  POPE      H11B           -7.3062662781      -23.7415511645       17.0929370335  MEMB      30              0.0000000000
      3684        30  POPE      P              -7.4058966491      -21.6836062804       19.0850856137  MEMB      30              0.0000000000
      3685        30  POPE      O13            -6.5135461585      -22.0951629843       20.2055861165  MEMB      30              0.0000000000
      3686        30  POPE      O14            -8.2281416014      -20.4994926374       19.3106891675  MEMB      30              0.0000000000
      3687        30  POPE      O11            -6.5270741486      -21.5093450292       17.8001989745  MEMB      30              0.0000000000
      3688        30  POPE      O12            -8.4224788023      -22.9099742243       18.7570766202  MEMB      30              0.0000000000
      3689        30  POPE      C1             -5.2977361602      -20.7631492388       17.9369296560  MEMB      30              0.0000000000
      3690        30  POPE      HA             -4.7802003534      -20.8133158763       18.9187447305  MEMB      30              0.0000000000
      3691        30  POPE      HB             -5.6284434954      -19.7089532351       17.8202064755  MEMB      30              0.0000000000
      3692        30  POPE      C2             -4.3383237615      -21.0036705548       16.8125350285  MEMB      30              0.0000000000
      3693        30  POPE      HS             -3.5800094738      -20.1961600287       16.7276356886  MEMB      30              0.0000000000
      3694        30  POPE      O21            -5.1333916478      -21.2402309583       15.6655859555  MEMB      30              0.0000000000
      3695        30  POPE      C21            -5.3223977253      -20.2302789198       14.8686593059  MEMB      30              0.0000000000
      3696        30  POPE      O22            -4.9199369401      -19.0720866311       14.9277548435  MEMB      30              0.0000000000
      3697        30  POPE      C22            -6.1056690458      -20.7426125465       13.6713131827  MEMB      30              0.0000000000
      3698        30  POPE      H2R            -6.4225776152      -19.9211104413       12.9937997340  MEMB      30              0.0000000000
      3699        30  POPE      H2S            -6.8409923281      -21.4719095219       14.0734902810  MEMB      30              0.0000000000
      3700        30  POPE      C3             -3.4334420486      -22.1953248840       17.0575817539  MEMB      30              0.0000000000
      3701        30  POPE      HX             -4.1265380047      -22.8997220938       17.5652859985  MEMB      30              0.0000000000
      3702        30  POPE      HY             -2.5683364489      -22.0334806478       17.7356080499  MEMB      30              0.0000000000
      3703        30  POPE      O31            -2.8785524649      -22.5532663756       15.7989369415  MEMB      30              0.0000000000
      3704        30  POPE      C31            -3.1865535602      -23.7154747113       15.2561109743  MEMB      30              0.0000000000
      3705        30  POPE      O32            -4.0823999727      -24.4726644236       15.6746623990  MEMB      30              0.0000000000
      3706        30  POPE      C32            -2.1250730323      -24.0662123197       14.2062865096  MEMB      30              0.0000000000
      3707        30  POPE      H2X            -1.1281226536      -24.2682341005       14.6530508642  MEMB      30              0.0000000000
      3708        30  POPE      H2Y            -1.9669783835      -23.2070828720       13.5198293860  MEMB      30              0.0000000000
      3709        30  POPE      C23            -5.1631105601      -21.6650737702       12.8403419011  MEMB      30              0.0000000000
      3710        30  POPE      H3R            -4.9838315781      -22.6555965396       13.3104956943  MEMB      30              0.0000000000
      3711        30  POPE      H3S            -4.1903930701      -21.1449874545       12.7074799241  MEMB      30              0.0000000000
      3712        30  POPE      C24            -5.7221493709      -21.8786956964       11.4574551306  MEMB      30              0.0000000000
      3713        30  POPE      H4R            -5.0353606002      -22.4934835960       10.8372314016  MEMB      30              0.0000000000
      3714        30  POPE      H4S            -5.8858440598      -20.8941776596       10.9693473804  MEMB      30              0.0000000000
      3715        30  POPE      C25            -6.9655299162      -22.7266893009       11.3347240912  MEMB      30              0.0000000000
      3716        30  POPE      H5R            -7.8180540204      -22.1746760469       11.7850625612  MEMB      30              0.0000000000
      3717        30  POPE      H5S            -6.8342046626      -23.7242075792       11.8059269467  MEMB      30              0.0000000000
      3718        30  POPE      C26            -7.3604759242      -23.0322256441        9.8730864831  MEMB      30              0.0000000000
      3719        30  POPE      H6R            -7.5992903186      -22.1304487748        9.2696898278  MEMB      30              0.0000000000
      3720        30  POPE      H6S            -8.3829488592      -23.4666856582        9.8837844054  MEMB      30              0.0000000000
      3721        30  POPE      C27            -6.3908975759      -23.8093560650        9.0403200287  MEMB      30              0.0000000000
      3722        30  POPE      H7R            -5.4764155318      -23.2050852685        9.2217055217  MEMB      30              0.0000000000
      3723        30  POPE      H7S            -6.5839388963      -23.7296278266        7.9491284181  MEMB      30              0.0000000000
      3724        30  POPE      C28            -6.1439638774      -25.2146659410        9.4969717175  MEMB      30              0.0000000000
      3725        30  POPE      H8R            -7.0806546502      -25.6624820946        9.8924360150  MEMB      30              0.0000000000
      3726        30  POPE      H8S            -5.5354125093      -25.2551077493       10.4255996705  MEMB      30              0.0000000000
      3727        30  POPE      C29            -5.6009017129      -26.2066512394        8.5060674882  MEMB      30              0.0000000000
      3728        30  POPE      H91            -4.5037604684      -26.2413476214        8.4348091379  MEMB      30              0.0000000000
      3729        30  POPE      C210           -6.2594197327      -27.0622224575        7.7068416991  MEMB      30              0.0000000000
      3730        30  POPE      H101           -5.7074074639      -27.7248414269        7.0240399858  MEMB      30              0.0000000000
      3731        30  POPE      C211           -7.7172725442      -27.2193990709        7.5982268638  MEMB      30              0.0000000000
      3732        30  POPE      H11R           -8.2113988246      -26.5466484995        8.3314161013  MEMB      30              0.0000000000
      3733        30  POPE      H11S           -7.9689003132      -28.2631560084        7.8838411091  MEMB      30              0.0000000000
      3734        30  POPE      C212           -8.2287137916      -26.9550516524        6.1543779473  MEMB      30              0.0000000000
      3735        30  POPE      H12R           -9.2894993810      -27.2809127479        6.2079513124  MEMB      30              0.0000000000
      3736        30  POPE      H12S           -7.6534204835      -27.5174934297        5.3882079214  MEMB      30              0.0000000000
      3737        30  POPE      C213           -8.1978859761      -25.4573051848        5.8708519366  MEMB      30              0.0000000000
      3738        30  POPE      H13R           -7.1426758232      -25.1507604444        5.7068924640  MEMB      30              0.0000000000
      3739        30  POPE      H13S           -8.5906378731      -24.8477045959        6.7125496306  MEMB      30              0.0000000000
      3740        30  POPE      C214           -9.0243388228      -25.0987792214        4.6180216635  MEMB      30              0.0000000000
      3741        30  POPE      H14R           -9.3745475989      -24.0493466460        4.7198328127  MEMB      30              0.0000000000
      3742        30  POPE      H14S           -9.9699497394      -25.6789069206        4.6779587139  MEMB      30              0.0000000000
      3743        30  POPE      C215           -8.5715627379      -25.4298723885        3.2052002236  MEMB      30              0.0000000000
      3744        30  POPE      H15R           -9.4633639370      -25.6910779685        2.5962814021  MEMB      30              0.0000000000
      3745        30  POPE      H15S           -7.9286992037      -26.3359889428        3.2052188789  MEMB      30              0.0000000000
      3746        30  POPE      C216           -7.9599649870      -24.2660462046        2.4879071459  MEMB      30              0.0000000000
      3747        30  POPE      H16R           -7.1988970548      -23.8459326809        3.1797186461  MEMB      30              0.0000000000
      3748        30  POPE      H16S           -8.6199766779      -23.4154615267        2.2136604025  MEMB      30              0.0000000000
      3749        30  POPE      C217           -7.1703351873      -24.5578238740        1.2699483739  MEMB      30              0.0000000000
      3750        30  POPE      H17R           -6.2606385210      -25.1521422744        1.5013751433  MEMB      30              0.0000000000
      3751        30  POPE      H17S           -6.7015416376      -23.6103904969        0.9280076296  MEMB      30              0.0000000000
      3752        30  POPE      C218           -7.9031689182      -25.2823887404        0.0866349948  MEMB      30              0.0000000000
      3753        30  POPE      H18R           -8.7058388833      -24.6326799081       -0.3231459669  MEMB      30              0.0000000000
      3754        30  POPE      H18S           -8.4396570473      -26.1933065892        0.4282932980  MEMB      30              0.0000000000
      3755        30  POPE      H18T           -7.1084561389      -25.4745439193       -0.6655810367  MEMB      30              0.0000000000
      3756        30  POPE      C33            -2.5472678655      -25.4019964898       13.4166306683  MEMB      30              0.0000000000
      3757        30  POPE      H3X            -3.6555915222      -25.4201674370       13.3417342925  MEMB      30              0.0000000000
      3758        30  POPE      H3Y            -2.2636005600      -26.3368677002       13.9456579167  MEMB      30              0.0000000000
      3759        30  POPE      C34            -2.0095260081      -25.4747434056       11.9660038893  MEMB      30              0.0000000000
      3760        30  POPE      H4X            -2.4258492317      -26.4227366880       11.5631325557  MEMB      30              0.0000000000
      3761        30  POPE      H4Y            -0.9295485457      -25.6681828801       12.1407919528  MEMB      30              0.0000000000
      3762        30  POPE      C35            -2.3145878819      -24.2690273217       11.0427071796  MEMB      30              0.0000000000
      3763        30  POPE      H5X            -2.2555022182      -23.2815438617       11.5483814876  MEMB      30              0.0000000000
      3764        30  POPE      H5Y            -3.3612343214      -24.3130365305       10.6726865429  MEMB      30              0.0000000000
      3765        30  POPE      C36            -1.3887650799      -24.2253313552        9.8286635969  MEMB      30              0.0000000000
      3766        30  POPE      H6X            -1.5869684304      -25.1204108570        9.2010745404  MEMB      30              0.0000000000
      3767        30  POPE      H6Y            -0.3118589599      -24.1872238430       10.0991109042  MEMB      30              0.0000000000
      3768        30  POPE      C37            -1.7582887457      -22.9896622992        8.9629129542  MEMB      30              0.0000000000
      3769        30  POPE      H7X            -1.6716170015      -22.0464014249        9.5434882562  MEMB      30              0.0000000000
      3770        30  POPE      H7Y            -2.7780207050      -23.1048013223        8.5372238058  MEMB      30              0.0000000000
      3771        30  POPE      C38            -0.8180553152      -22.7048619057        7.8026338406  MEMB      30              0.0000000000
      3772        30  POPE      H8X            -0.5759874652      -23.6703587611        7.3091357886  MEMB      30              0.0000000000
      3773        30  POPE      H8Y             0.1446820976      -22.2552505387        8.1271457207  MEMB      30              0.0000000000
      3774        30  POPE      C39            -1.3807970685      -21.9239506836        6.6084060572  MEMB      30              0.0000000000
      3775        30  POPE      H9X            -0.6256525705      -22.1824386484        5.8355788771  MEMB      30              0.0000000000
      3776        30  POPE      H9Y            -1.2360276170      -20.8429698250        6.8201674640  MEMB      30              0.0000000000
      3777        30  POPE      C310           -2.6962870754      -22.2811195903        6.0171793658  MEMB      30              0.0000000000
      3778        30  POPE      H10X           -2.8835650765      -21.6419642915        5.1279504197  MEMB      30              0.0000000000
      3779        30  POPE      H10Y           -3.5916929106      -22.1156933868        6.6537355151  MEMB      30              0.0000000000
      3780        30  POPE      C311           -2.7559365470      -23.7463484714        5.5453267701  MEMB      30              0.0000000000
      3781        30  POPE      H11X           -3.6403356028      -24.1519003506        6.0816906519  MEMB      30              0.0000000000
      3782        30  POPE      H11Y           -1.8828286122      -24.2979779721        5.9548488730  MEMB      30              0.0000000000
      3783        30  POPE      C312           -2.8960019837      -24.0128753227        4.0280284445  MEMB      30              0.0000000000
      3784        30  POPE      H12X           -3.7825664488      -23.4496383068        3.6659668914  MEMB      30              0.0000000000
      3785        30  POPE      H12Y           -3.1254258762      -25.0950552555        3.9252074047  MEMB      30              0.0000000000
      3786        30  POPE      C313           -1.6423766206      -23.7745039545        3.1436925123  MEMB      30              0.0000000000
      3787        30  POPE      H13X           -0.7220341431      -24.3161198369        3.4501934763  MEMB      30              0.0000000000
      3788        30  POPE      H13Y           -1.5451942153      -22.6704493668        3.0666239786  MEMB      30              0.0000000000
      3789        30  POPE      C314           -1.7867883391      -24.0716572123        1.6255944859  MEMB      30              0.0000000000
      3790        30  POPE      H14X           -0.7483442730      -23.9391260009        1.2535860644  MEMB      30              0.0000000000
      3791        30  POPE      H14Y           -2.5266055546      -23.3837338443        1.1632609288  MEMB      30              0.0000000000
      3792        30  POPE      C315           -2.1918134364      -25.5184486574        1.2547170602  MEMB      30              0.0000000000
      3793        30  POPE      H15X           -2.1699236264      -25.5939690506        0.1465029125  MEMB      30              0.0000000000
      3794        30  POPE      H15Y           -3.2253333692      -25.7309641555        1.6025610361  MEMB      30              0.0000000000
      3795        30  POPE      C316           -1.3988645046      -26.7063085424        1.7030870653  MEMB      30              0.0000000000
      3796        30  POPE      H16X           -0.3330462669      -26.6489246470        1.3947673493  MEMB      30              0.0000000000
      3797        30  POPE      H16Y           -1.7385456420      -27.5633926546        1.0831299178  MEMB      30              0.0000000000
      3798        30  POPE      H16Z           -1.5324288742      -27.0025530566        2.7654994445  MEMB      30              0.0000000000
      3799        31  POPE      N              25.3211103128       11.2936453618       17.3413048604  MEMB      31              0.0000000000
      3800        31  POPE      HN1            25.1852940970       12.1497658523       16.7666644683  MEMB      31              0.0000000000
      3801        31  POPE      HN2            24.9721586306       11.5510923012       18.2865845080  MEMB      31              0.0000000000
      3802        31  POPE      HN3            26.2554040386       10.8832486863       17.5419785433  MEMB      31              0.0000000000
      3803        31  POPE      C12            24.5682782859       10.1208525254       16.7529736934  MEMB      31              0.0000000000
      3804        31  POPE      H12A           25.2292423117        9.6755995894       15.9788953142  MEMB      31              0.0000000000
      3805        31  POPE      H12B           23.6821194394       10.5175847339       16.2129300859  MEMB      31              0.0000000000
      3806        31  POPE      C11            24.2660761059        9.0125162268       17.8193636314  MEMB      31              0.0000000000
      3807        31  POPE      H11A           25.1048191699        8.4400881245       18.2700933655  MEMB      31              0.0000000000
      3808        31  POPE      H11B           23.6151309222        8.2468295194       17.3457443809  MEMB      31              0.0000000000
      3809        31  POPE      P              22.9292626319        9.1420043697       20.0929675902  MEMB      31              0.0000000000
      3810        31  POPE      O13            23.1917552287       10.1278062563       21.1673809289  MEMB      31              0.0000000000
      3811        31  POPE      O14            23.4362491903        7.7451692164       20.2057691296  MEMB      31              0.0000000000
      3812        31  POPE      O11            21.3488318221        9.1540575799       19.8816292318  MEMB      31              0.0000000000
      3813        31  POPE      O12            23.5075508223        9.6779186229       18.7386109353  MEMB      31              0.0000000000
      3814        31  POPE      C1             20.6141339669       10.3565149494       19.5744005234  MEMB      31              0.0000000000
      3815        31  POPE      HA             21.2962498289       11.2325391740       19.5341461733  MEMB      31              0.0000000000
      3816        31  POPE      HB             19.9276010325       10.6317116231       20.4034122830  MEMB      31              0.0000000000
      3817        31  POPE      C2             19.7132955558       10.3860676497       18.3683356369  MEMB      31              0.0000000000
      3818        31  POPE      HS             18.8112802685        9.7792661023       18.5974233109  MEMB      31              0.0000000000
      3819        31  POPE      O21            20.4674260922        9.7623458835       17.2541210567  MEMB      31              0.0000000000
      3820        31  POPE      C21            19.7486104160        9.5751683937       16.0633175116  MEMB      31              0.0000000000
      3821        31  POPE      O22            18.5344086935        9.4489032000       16.0632885879  MEMB      31              0.0000000000
      3822        31  POPE      C22            20.7062236318        9.4516655949       14.9254359801  MEMB      31              0.0000000000
      3823        31  POPE      H2R            21.4262846907        8.6730885667       15.2565714853  MEMB      31              0.0000000000
      3824        31  POPE      H2S            21.2646265197       10.3960680413       14.7504747408  MEMB      31              0.0000000000
      3825        31  POPE      C3             19.2095203242       11.7428689529       17.8749257141  MEMB      31              0.0000000000
      3826        31  POPE      HX             18.6384771236       12.2559410223       18.6780373957  MEMB      31              0.0000000000
      3827        31  POPE      HY             18.3638540508       11.5296889672       17.1866495591  MEMB      31              0.0000000000
      3828        31  POPE      O31            20.2858472455       12.6216434537       17.3077283371  MEMB      31              0.0000000000
      3829        31  POPE      C31            20.1854871532       12.9370429213       16.0034103675  MEMB      31              0.0000000000
      3830        31  POPE      O32            19.3265345759       12.5739508440       15.2391982537  MEMB      31              0.0000000000
      3831        31  POPE      C32            21.2581759037       13.8362192302       15.5267831338  MEMB      31              0.0000000000
      3832        31  POPE      H2X            22.2146666897       13.7579506461       16.0865335675  MEMB      31              0.0000000000
      3833        31  POPE      H2Y            21.0357675129       14.8111650473       16.0108656114  MEMB      31              0.0000000000
      3834        31  POPE      C23            19.9778392549        8.8084354200       13.8008660490  MEMB      31              0.0000000000
      3835        31  POPE      H3R            19.4585174477        9.6258260592       13.2563496787  MEMB      31              0.0000000000
      3836        31  POPE      H3S            19.2932466456        7.9844818104       14.0954070958  MEMB      31              0.0000000000
      3837        31  POPE      C24            20.8627608621        8.0663681641       12.7570671231  MEMB      31              0.0000000000
      3838        31  POPE      H4R            20.1720101018        7.7829231987       11.9343620471  MEMB      31              0.0000000000
      3839        31  POPE      H4S            21.3095666324        7.1718990220       13.2414337155  MEMB      31              0.0000000000
      3840        31  POPE      C25            21.9862880403        8.8238942534       12.1450759804  MEMB      31              0.0000000000
      3841        31  POPE      H5R            22.5746619024        9.2244246325       12.9981366234  MEMB      31              0.0000000000
      3842        31  POPE      H5S            21.6866390078        9.7725320320       11.6504874079  MEMB      31              0.0000000000
      3843        31  POPE      C26            22.7882683141        8.0004275525       11.2241873887  MEMB      31              0.0000000000
      3844        31  POPE      H6R            22.0883517383        7.4679824752       10.5452616337  MEMB      31              0.0000000000
      3845        31  POPE      H6S            23.2316297582        7.1649158171       11.8070007539  MEMB      31              0.0000000000
      3846        31  POPE      C27            24.0068332861        8.6347706285       10.4609940497  MEMB      31              0.0000000000
      3847        31  POPE      H7R            24.6675414762        8.9626272376       11.2918342287  MEMB      31              0.0000000000
      3848        31  POPE      H7S            23.7479925414        9.4419010028        9.7427575231  MEMB      31              0.0000000000
      3849        31  POPE      C28            24.9590699398        7.7487009617        9.6178921326  MEMB      31              0.0000000000
      3850        31  POPE      H8R            25.6504742483        7.1549034885       10.2532544024  MEMB      31              0.0000000000
      3851        31  POPE      H8S            25.6432436789        8.4295518462        9.0677375828  MEMB      31              0.0000000000
      3852        31  POPE      C29            24.1845918638        6.8192776888        8.6796321478  MEMB      31              0.0000000000
      3853        31  POPE      H91            23.5451700448        6.0661091876        9.1632393010  MEMB      31              0.0000000000
      3854        31  POPE      C210           24.1776463755        6.9290489872        7.3063016211  MEMB      31              0.0000000000
      3855        31  POPE      H101           23.3626610757        6.3490231063        6.8487336902  MEMB      31              0.0000000000
      3856        31  POPE      C211           24.9844288514        7.9149626442        6.4300288722  MEMB      31              0.0000000000
      3857        31  POPE      H11R           24.9349819617        8.9489496633        6.8334483278  MEMB      31              0.0000000000
      3858        31  POPE      H11S           24.5106802849        8.1215755579        5.4465688850  MEMB      31              0.0000000000
      3859        31  POPE      C212           26.4199539033        7.4594864056        6.0736871579  MEMB      31              0.0000000000
      3860        31  POPE      H12R           26.3595344182        6.7585535332        5.2138242065  MEMB      31              0.0000000000
      3861        31  POPE      H12S           26.8499317416        6.9237913679        6.9468824202  MEMB      31              0.0000000000
      3862        31  POPE      C213           27.3791875136        8.6783219093        5.6335373045  MEMB      31              0.0000000000
      3863        31  POPE      H13R           28.3564257266        8.1884330131        5.4352059107  MEMB      31              0.0000000000
      3864        31  POPE      H13S           27.5503069820        9.3022394190        6.5367353419  MEMB      31              0.0000000000
      3865        31  POPE      C214           26.9528483108        9.5121315824        4.4009121135  MEMB      31              0.0000000000
      3866        31  POPE      H14R           26.2194012267       10.2679078819        4.7547182076  MEMB      31              0.0000000000
      3867        31  POPE      H14S           26.3172590550        8.9920028080        3.6527053700  MEMB      31              0.0000000000
      3868        31  POPE      C215           28.1180348464       10.0894416999        3.5945991764  MEMB      31              0.0000000000
      3869        31  POPE      H15R           28.4853392890        9.3087340529        2.8946669546  MEMB      31              0.0000000000
      3870        31  POPE      H15S           28.9410075187       10.5152717196        4.2075480885  MEMB      31              0.0000000000
      3871        31  POPE      C216           27.6177055653       11.2406961055        2.6277241853  MEMB      31              0.0000000000
      3872        31  POPE      H16R           27.0660598809       10.7784738057        1.7813441276  MEMB      31              0.0000000000
      3873        31  POPE      H16S           28.5751406279       11.5424596651        2.1517223438  MEMB      31              0.0000000000
      3874        31  POPE      C217           27.0108156917       12.4938234235        3.1703584432  MEMB      31              0.0000000000
      3875        31  POPE      H17R           27.5406324715       12.9831733586        4.0154330884  MEMB      31              0.0000000000
      3876        31  POPE      H17S           26.0083866317       12.1359884945        3.4888089554  MEMB      31              0.0000000000
      3877        31  POPE      C218           26.7104197432       13.4833024256        2.0420062668  MEMB      31              0.0000000000
      3878        31  POPE      H18R           27.6706188428       13.8731724396        1.6415830572  MEMB      31              0.0000000000
      3879        31  POPE      H18S           26.1690130739       14.3582898276        2.4610489797  MEMB      31              0.0000000000
      3880        31  POPE      H18T           26.3424043134       12.9098984021        1.1644575334  MEMB      31              0.0000000000
      3881        31  POPE      C33            21.5114924368       13.8605597433       14.0346305842  MEMB      31              0.0000000000
      3882        31  POPE      H3X            20.7703659487       14.3382444229       13.3587091133  MEMB      31              0.0000000000
      3883        31  POPE      H3Y            21.7945800303       12.8718671513       13.6143102654  MEMB      31              0.0000000000
      3884        31  POPE      C34            22.6688613445       14.7799278790       13.6537104756  MEMB      31              0.0000000000
      3885        31  POPE      H4X            23.6806733559       14.4226768570       13.9416843896  MEMB      31              0.0000000000
      3886        31  POPE      H4Y            22.6423682261       15.6854153275       14.2969141461  MEMB      31              0.0000000000
      3887        31  POPE      C35            22.7797611919       15.3530203820       12.2050231376  MEMB      31              0.0000000000
      3888        31  POPE      H5X            23.5437177054       16.1353489670       12.0084177364  MEMB      31              0.0000000000
      3889        31  POPE      H5Y            21.8023503251       15.8552185123       12.0413576163  MEMB      31              0.0000000000
      3890        31  POPE      C36            22.7031385704       14.3616712025       11.0876807597  MEMB      31              0.0000000000
      3891        31  POPE      H6X            22.5560479942       14.9079248703       10.1314943285  MEMB      31              0.0000000000
      3892        31  POPE      H6Y            21.8069972181       13.7070411138       11.1397496243  MEMB      31              0.0000000000
      3893        31  POPE      C37            23.9926587765       13.5106181880       11.0242710418  MEMB      31              0.0000000000
      3894        31  POPE      H7X            24.1029603473       13.0769323136       12.0411642821  MEMB      31              0.0000000000
      3895        31  POPE      H7Y            24.8449392782       14.2196742171       10.9523073300  MEMB      31              0.0000000000
      3896        31  POPE      C38            24.0235943354       12.4512244198        9.9246307595  MEMB      31              0.0000000000
      3897        31  POPE      H8X            23.3324448511       11.6488312157       10.2604857745  MEMB      31              0.0000000000
      3898        31  POPE      H8Y            25.0680754884       12.0828407308        9.8370320915  MEMB      31              0.0000000000
      3899        31  POPE      C39            23.5971225543       12.7879561920        8.4765328539  MEMB      31              0.0000000000
      3900        31  POPE      H9X            24.2912202589       13.5440759584        8.0512880298  MEMB      31              0.0000000000
      3901        31  POPE      H9Y            22.6292030037       13.3098244256        8.6349817229  MEMB      31              0.0000000000
      3902        31  POPE      C310           23.5241235959       11.6374121501        7.5605310057  MEMB      31              0.0000000000
      3903        31  POPE      H10X           22.7856637190       10.8747373866        7.8881361657  MEMB      31              0.0000000000
      3904        31  POPE      H10Y           24.4970018913       11.1020584021        7.5955312172  MEMB      31              0.0000000000
      3905        31  POPE      C311           23.3553659103       12.0962313836        6.1135534451  MEMB      31              0.0000000000
      3906        31  POPE      H11X           24.0679624105       12.8409384798        5.6988995974  MEMB      31              0.0000000000
      3907        31  POPE      H11Y           22.4176851013       12.6909361663        6.0761140009  MEMB      31              0.0000000000
      3908        31  POPE      C312           23.2527987138       10.8930636997        5.1422583196  MEMB      31              0.0000000000
      3909        31  POPE      H12X           24.1897581028       10.3029279632        5.2326352195  MEMB      31              0.0000000000
      3910        31  POPE      H12Y           23.2555597283       11.2817146863        4.1014588161  MEMB      31              0.0000000000
      3911        31  POPE      C313           22.0081423970        9.9561297371        5.3978631045  MEMB      31              0.0000000000
      3912        31  POPE      H13X           21.0573760890       10.5307036877        5.4129996230  MEMB      31              0.0000000000
      3913        31  POPE      H13Y           22.1484664305        9.5932024521        6.4384946579  MEMB      31              0.0000000000
      3914        31  POPE      C314           21.8194767253        8.7761376033        4.3414950582  MEMB      31              0.0000000000
      3915        31  POPE      H14X           20.8355113210        8.3347488077        4.6085324004  MEMB      31              0.0000000000
      3916        31  POPE      H14Y           22.5850127138        7.9829292507        4.4796834420  MEMB      31              0.0000000000
      3917        31  POPE      C315           21.9759569703        9.1665258054        2.8334021268  MEMB      31              0.0000000000
      3918        31  POPE      H15X           22.9895997205        9.6000225068        2.6958174607  MEMB      31              0.0000000000
      3919        31  POPE      H15Y           21.0756031056        9.7625048723        2.5716899648  MEMB      31              0.0000000000
      3920        31  POPE      C316           21.9891916030        7.8995261818        1.9176593958  MEMB      31              0.0000000000
      3921        31  POPE      H16X           22.8375260789        7.2580739577        2.2388913347  MEMB      31              0.0000000000
      3922        31  POPE      H16Y           22.1558282222        8.2555645432        0.8785315456  MEMB      31              0.0000000000
      3923        31  POPE      H16Z           21.0101315272        7.3746554116        1.9011152740  MEMB      31              0.0000000000
      3924        32  PMPE      N              10.3614692348      -21.5703473549       19.5211816781  MEMB      32              0.0000000000
      3925        32  PMPE      HN1            10.9366151652      -21.5808134045       18.6547536256  MEMB      32              0.0000000000
      3926        32  PMPE      HN2             9.3944741035      -21.8127347157       19.2249240501  MEMB      32              0.0000000000
      3927        32  PMPE      HN3            10.3931769347      -20.6813604519       20.0599738051  MEMB      32              0.0000000000
      3928        32  PMPE      C12            10.8896510084      -22.6769691125       20.4135685687  MEMB      32              0.0000000000
      3929        32  PMPE      H12A           10.7565123834      -22.2897717988       21.4463673650  MEMB      32              0.0000000000
      3930        32  PMPE      H12B           11.9543417904      -22.8986694762       20.1864052981  MEMB      32              0.0000000000
      3931        32  PMPE      C11             9.9184793418      -23.9010766040       20.2617439006  MEMB      32              0.0000000000
      3932        32  PMPE      H11A            8.9696355842      -23.4616174579       20.6371000639  MEMB      32              0.0000000000
      3933        32  PMPE      H11B           10.1473364197      -24.7389546740       20.9544962561  MEMB      32              0.0000000000
      3934        32  PMPE      P               8.5899419398      -25.1305512439       18.4101883224  MEMB      32              0.0000000000
      3935        32  PMPE      O13             7.3872085326      -24.8537778991       19.2524252582  MEMB      32              0.0000000000
      3936        32  PMPE      O14             8.9278117710      -26.6106608827       18.2417418022  MEMB      32              0.0000000000
      3937        32  PMPE      O11             8.3441998270      -24.4967531776       16.9830423990  MEMB      32              0.0000000000
      3938        32  PMPE      O12             9.8683160276      -24.3615581240       18.9161080680  MEMB      32              0.0000000000
      3939        32  PMPE      C1              9.4700326750      -24.1055588121       16.1832683139  MEMB      32              0.0000000000
      3940        32  PMPE      HA             10.4304141504      -24.2266390702       16.7285463576  MEMB      32              0.0000000000
      3941        32  PMPE      HB              9.4029164927      -23.0423657866       15.8679318379  MEMB      32              0.0000000000
      3942        32  PMPE      C2              9.6066404820      -24.8421231622       14.7907820474  MEMB      32              0.0000000000
      3943        32  PMPE      HS             10.5304664879      -24.4723432712       14.2966871237  MEMB      32              0.0000000000
      3944        32  PMPE      O21             8.4252798540      -24.6966775299       14.0250516717  MEMB      32              0.0000000000
      3945        32  PMPE      C21             8.5341872909      -24.3106442720       12.7326553299  MEMB      32              0.0000000000
      3946        32  PMPE      O22             9.5598048094      -24.1225433622       12.1142883907  MEMB      32              0.0000000000
      3947        32  PMPE      C22             7.1478212213      -24.2221384783       12.1324531310  MEMB      32              0.0000000000
      3948        32  PMPE      H2R             6.8693614586      -23.1518661313       12.0261585181  MEMB      32              0.0000000000
      3949        32  PMPE      H2S             6.4740686646      -24.7284088684       12.8563787322  MEMB      32              0.0000000000
      3950        32  PMPE      C3              9.8797131889      -26.3760432594       15.0083202428  MEMB      32              0.0000000000
      3951        32  PMPE      HX              8.9541158460      -26.7528864720       15.4936858834  MEMB      32              0.0000000000
      3952        32  PMPE      HY             10.7749774560      -26.6062539810       15.6246203884  MEMB      32              0.0000000000
      3953        32  PMPE      O31            10.1081932197      -27.0318488254       13.7528944237  MEMB      32              0.0000000000
      3954        32  PMPE      C31            11.3546279773      -26.8621842232       13.2157118847  MEMB      32              0.0000000000
      3955        32  PMPE      O32            12.3042059635      -26.3123988443       13.7608076362  MEMB      32              0.0000000000
      3956        32  PMPE      C32            11.4405057869      -27.6862176872       11.9686119576  MEMB      32              0.0000000000
      3957        32  PMPE      H2X            11.0499280829      -28.6547257287       12.3477717635  MEMB      32              0.0000000000
      3958        32  PMPE      H2Y            12.5185318721      -27.7756215524       11.7152592767  MEMB      32              0.0000000000
      3959        32  PMPE      C23             6.9941849241      -24.9286388822       10.7351115354  MEMB      32              0.0000000000
      3960        32  PMPE      H3R             5.9167546447      -24.8297005625       10.4827705102  MEMB      32              0.0000000000
      3961        32  PMPE      H3S             7.3344898485      -25.9730608152       10.9015338467  MEMB      32              0.0000000000
      3962        32  PMPE      C24             7.8185485921      -24.3128740060        9.4998333327  MEMB      32              0.0000000000
      3963        32  PMPE      H4R             8.8630382177      -24.6471375411        9.6776821927  MEMB      32              0.0000000000
      3964        32  PMPE      H4S             7.7003711991      -23.2292408281        9.2851378082  MEMB      32              0.0000000000
      3965        32  PMPE      C25             7.3068540050      -25.0806340013        8.2981828998  MEMB      32              0.0000000000
      3966        32  PMPE      H5R             6.2006714656      -25.0995172004        8.1965715908  MEMB      32              0.0000000000
      3967        32  PMPE      H5S             7.4916519802      -26.1655389606        8.4503401477  MEMB      32              0.0000000000
      3968        32  PMPE      C26             7.9161274594      -24.6065763627        6.9321403479  MEMB      32              0.0000000000
      3969        32  PMPE      H6R             8.1814642913      -25.4919099111        6.3156168759  MEMB      32              0.0000000000
      3970        32  PMPE      H6S             8.9280713600      -24.1948566343        7.1340750373  MEMB      32              0.0000000000
      3971        32  PMPE      C27             7.0443235162      -23.5837171891        6.1522184609  MEMB      32              0.0000000000
      3972        32  PMPE      H7R             6.8628328194      -22.7451659956        6.8580618600  MEMB      32              0.0000000000
      3973        32  PMPE      H7S             6.0907068020      -24.0876940874        5.8858666621  MEMB      32              0.0000000000
      3974        32  PMPE      C28             7.7022067914      -23.1673964635        4.8505612173  MEMB      32              0.0000000000
      3975        32  PMPE      H8R             6.9340638866      -22.7564919952        4.1610434275  MEMB      32              0.0000000000
      3976        32  PMPE      H8S             8.1257529840      -24.0270454112        4.2884823547  MEMB      32              0.0000000000
      3977        32  PMPE      C29             8.9555004219      -22.2881318362        5.1082071145  MEMB      32              0.0000000000
      3978        32  PMPE      H9R             9.7342508004      -22.6662893592        5.8045302037  MEMB      32              0.0000000000
      3979        32  PMPE      C217            8.5633118587      -20.8564187768        5.6370944364  MEMB      32              0.0000000000
      3980        32  PMPE      H17R            9.2905355055      -20.3537872472        6.2627109643  MEMB      32              0.0000000000
      3981        32  PMPE      H17S            7.4917199591      -20.7180020801        5.5634702067  MEMB      32              0.0000000000
      3982        32  PMPE      C210            9.1817765606      -21.0297435311        4.2796998968  MEMB      32              0.0000000000
      3983        32  PMPE      H10R           10.2396687904      -20.6955263042        4.2206753584  MEMB      32              0.0000000000
      3984        32  PMPE      C211            8.3525667673      -20.5716486476        3.1430649405  MEMB      32              0.0000000000
      3985        32  PMPE      H11R            8.3615965608      -19.4615189346        3.1000382393  MEMB      32              0.0000000000
      3986        32  PMPE      H11S            7.2783541468      -20.7502123017        3.3633007099  MEMB      32              0.0000000000
      3987        32  PMPE      C212            8.7826626513      -21.1097597342        1.7734295671  MEMB      32              0.0000000000
      3988        32  PMPE      H12R            8.9370376162      -22.2026285171        1.9004240887  MEMB      32              0.0000000000
      3989        32  PMPE      H12S            9.7332223504      -20.7422617000        1.3310468788  MEMB      32              0.0000000000
      3990        32  PMPE      C213            7.7232967113      -20.9360252297        0.6321102712  MEMB      32              0.0000000000
      3991        32  PMPE      H13R            8.1574015848      -20.7711626844       -0.3771934393  MEMB      32              0.0000000000
      3992        32  PMPE      H13S            7.0375249510      -20.1074842034        0.9106011244  MEMB      32              0.0000000000
      3993        32  PMPE      C214            6.6818134369      -22.1086483640        0.4807631156  MEMB      32              0.0000000000
      3994        32  PMPE      H14R            6.2582975328      -22.2806615959        1.4933671942  MEMB      32              0.0000000000
      3995        32  PMPE      H14S            7.1237659003      -23.0477707325        0.0844717697  MEMB      32              0.0000000000
      3996        32  PMPE      C215            5.4932932576      -21.7598376409       -0.3794749836  MEMB      32              0.0000000000
      3997        32  PMPE      H15R            4.9649045961      -20.8664827398        0.0168126497  MEMB      32              0.0000000000
      3998        32  PMPE      H15S            4.7762518668      -22.6024862321       -0.2788993020  MEMB      32              0.0000000000
      3999        32  PMPE      C216            5.8105741525      -21.4628141502       -1.8434238633  MEMB      32              0.0000000000
      4000        32  PMPE      H16R            6.6741387072      -20.7638489241       -1.8384414395  MEMB      32              0.0000000000
      4001        32  PMPE      H16S            6.3010863226      -22.3785616770       -2.2372821946  MEMB      32              0.0000000000
      4002        32  PMPE      H16T            4.9757484254      -21.0125788403       -2.4219334392  MEMB      32              0.0000000000
      4003        32  PMPE      C33            10.6212409633      -27.1001654223       10.7757093232  MEMB      32              0.0000000000
      4004        32  PMPE      H3X            10.8579395092      -26.0148304313       10.7942188686  MEMB      32              0.0000000000
      4005        32  PMPE      H3Y             9.5226332764      -27.1319065550       10.9381126941  MEMB      32              0.0000000000
      4006        32  PMPE      C34            11.0579247741      -27.5824897205        9.4108156647  MEMB      32              0.0000000000
      4007        32  PMPE      H4X            10.4355536098      -28.4526435207        9.1111372688  MEMB      32              0.0000000000
      4008        32  PMPE      H4Y            12.0678258637      -28.0190706659        9.5651469988  MEMB      32              0.0000000000
      4009        32  PMPE      C35            11.0442394936      -26.5792191164        8.3069190388  MEMB      32              0.0000000000
      4010        32  PMPE      H5X            11.9093676412      -25.8883595269        8.3995871063  MEMB      32              0.0000000000
      4011        32  PMPE      H5Y            10.1294176117      -25.9742154862        8.4840978606  MEMB      32              0.0000000000
      4012        32  PMPE      C36            11.0205928237      -27.2445753191        6.8699568320  MEMB      32              0.0000000000
      4013        32  PMPE      H6X            10.1088069023      -27.8542255296        6.6930553671  MEMB      32              0.0000000000
      4014        32  PMPE      H6Y            11.8868539068      -27.9298723605        6.7504542902  MEMB      32              0.0000000000
      4015        32  PMPE      C37            11.1798808100      -26.2460075341        5.7150481995  MEMB      32              0.0000000000
      4016        32  PMPE      H7X            12.1969515900      -25.8130127668        5.8264202446  MEMB      32              0.0000000000
      4017        32  PMPE      H7Y            10.5118382890      -25.3907172361        5.9527856179  MEMB      32              0.0000000000
      4018        32  PMPE      C38            10.9809619571      -26.7442937620        4.2746709931  MEMB      32              0.0000000000
      4019        32  PMPE      H8X            10.1085314099      -27.4300931127        4.3281982390  MEMB      32              0.0000000000
      4020        32  PMPE      H8Y            11.8464891128      -27.3746372465        3.9782752256  MEMB      32              0.0000000000
      4021        32  PMPE      C39            10.7415071537      -25.6024029913        3.3320982012  MEMB      32              0.0000000000
      4022        32  PMPE      H9X            11.7080163160      -25.0723127948        3.1935870839  MEMB      32              0.0000000000
      4023        32  PMPE      H9Y             9.9180533713      -24.9123320418        3.6150233816  MEMB      32              0.0000000000
      4024        32  PMPE      C310           10.5792298553      -26.1221692046        1.8357002639  MEMB      32              0.0000000000
      4025        32  PMPE      H10X           11.4514759653      -26.6718821142        1.4217879544  MEMB      32              0.0000000000
      4026        32  PMPE      H10Y           10.3934337814      -25.2345669501        1.1938564603  MEMB      32              0.0000000000
      4027        32  PMPE      C311            9.4456071868      -27.1257129855        1.6188667084  MEMB      32              0.0000000000
      4028        32  PMPE      H11X            9.7557889921      -28.0044031420        2.2238546431  MEMB      32              0.0000000000
      4029        32  PMPE      H11Y            9.2290202151      -27.5331303658        0.6082114737  MEMB      32              0.0000000000
      4030        32  PMPE      C312            8.1202492483      -26.5526248376        2.3290967600  MEMB      32              0.0000000000
      4031        32  PMPE      H12X            7.7189935297      -25.6738836447        1.7803459831  MEMB      32              0.0000000000
      4032        32  PMPE      H12Y            8.3562828353      -26.3296311427        3.3915861653  MEMB      32              0.0000000000
      4033        32  PMPE      C313            7.0313344567      -27.6324119355        2.4874440508  MEMB      32              0.0000000000
      4034        32  PMPE      H13X            6.8612616446      -27.6544253409        3.5851280531  MEMB      32              0.0000000000
      4035        32  PMPE      H13Y            7.4421777365      -28.5627005501        2.0401273596  MEMB      32              0.0000000000
      4036        32  PMPE      C314            5.7284608790      -27.3247991843        1.7511308048  MEMB      32              0.0000000000
      4037        32  PMPE      H14X            5.3441145576      -26.2874183257        1.8533064647  MEMB      32              0.0000000000
      4038        32  PMPE      H14Y            4.9275035255      -27.9970867872        2.1263869837  MEMB      32              0.0000000000
      4039        32  PMPE      C315            5.7544576294      -27.5262101465        0.2390081544  MEMB      32              0.0000000000
      4040        32  PMPE      H15X            5.5356869788      -28.5979342270        0.0444090921  MEMB      32              0.0000000000
      4041        32  PMPE      H15Y            6.7987044244      -27.2750502952       -0.0452239651  MEMB      32              0.0000000000
      4042        32  PMPE      C316            4.8704535880      -26.6111304667       -0.5771122176  MEMB      32              0.0000000000
      4043        32  PMPE      H16X            5.0681088132      -26.8321209840       -1.6478210570  MEMB      32              0.0000000000
      4044        32  PMPE      H16Y            5.0717105198      -25.5294430877       -0.4229412836  MEMB      32              0.0000000000
      4045        32  PMPE      H16Z            3.7888294412      -26.7784647940       -0.3862987252  MEMB      32              0.0000000000
      4046        33  PMPG      C13           -18.7421260525      -18.0098436168       21.2777081769  MEMB      33              0.0000000000
      4047        33  PMPG      H13A          -18.9760669009      -18.5955940028       22.1923061660  MEMB      33              0.0000000000
      4048        33  PMPG      H13B          -18.2470072092      -18.5252047624       20.4270725585  MEMB      33              0.0000000000
      4049        33  PMPG      OC3           -18.0183756349      -16.9651198449       21.8241758911  MEMB      33              0.0000000000
      4050        33  PMPG      HO3           -17.5861475183      -16.5075808021       21.0993055661  MEMB      33              0.0000000000
      4051        33  PMPG      C12           -20.1516784554      -17.4780365150       20.7612949231  MEMB      33              0.0000000000
      4052        33  PMPG      H12A          -20.5637859919      -16.8099730743       21.5528994062  MEMB      33              0.0000000000
      4053        33  PMPG      OC2           -21.0568954833      -18.5695939550       20.5906333351  MEMB      33              0.0000000000
      4054        33  PMPG      HO2           -21.8277058651      -18.1504558428       20.1491682311  MEMB      33              0.0000000000
      4055        33  PMPG      C11           -19.8643947652      -16.6867242474       19.4581798932  MEMB      33              0.0000000000
      4056        33  PMPG      H11A          -19.0860464830      -17.1972611309       18.8516759046  MEMB      33              0.0000000000
      4057        33  PMPG      H11B          -19.5096160087      -15.6969432736       19.8170485998  MEMB      33              0.0000000000
      4058        33  PMPG      P             -20.9373915649      -16.1449894440       17.1468574349  MEMB      33              0.0000000000
      4059        33  PMPG      O13           -22.1530100663      -15.3012255284       16.7691958771  MEMB      33              0.0000000000
      4060        33  PMPG      O14           -20.7251330323      -17.3941088100       16.4437157842  MEMB      33              0.0000000000
      4061        33  PMPG      O11           -19.6493156996      -15.2238164106       17.0524702006  MEMB      33              0.0000000000
      4062        33  PMPG      O12           -21.0301322360      -16.4944786394       18.6757684785  MEMB      33              0.0000000000
      4063        33  PMPG      C1            -19.5663348802      -13.9215492670       17.5935206356  MEMB      33              0.0000000000
      4064        33  PMPG      HA            -18.9116265619      -14.0168835263       18.4860393042  MEMB      33              0.0000000000
      4065        33  PMPG      HB            -20.5461846131      -13.5185601313       17.9279086301  MEMB      33              0.0000000000
      4066        33  PMPG      C2            -18.8663030390      -13.0455841892       16.5375689662  MEMB      33              0.0000000000
      4067        33  PMPG      HS            -19.1133326309      -11.9638083154       16.5928729715  MEMB      33              0.0000000000
      4068        33  PMPG      O21           -19.3053735507      -13.3761487475       15.2270641372  MEMB      33              0.0000000000
      4069        33  PMPG      C21           -20.6215353268      -13.2720268274       14.8406717442  MEMB      33              0.0000000000
      4070        33  PMPG      O22           -21.4942249685      -12.7247537404       15.4818388501  MEMB      33              0.0000000000
      4071        33  PMPG      C22           -20.8479738991      -13.9805474994       13.4647501819  MEMB      33              0.0000000000
      4072        33  PMPG      H2R           -21.3708388748      -13.2736544452       12.7856067839  MEMB      33              0.0000000000
      4073        33  PMPG      H2S           -21.5255820065      -14.8076433659       13.7665452834  MEMB      33              0.0000000000
      4074        33  PMPG      C3            -17.2448797129      -13.1403634776       16.7010895338  MEMB      33              0.0000000000
      4075        33  PMPG      HX            -17.0677802906      -12.6053532903       17.6585447550  MEMB      33              0.0000000000
      4076        33  PMPG      HY            -16.9081596358      -12.4737200026       15.8785766784  MEMB      33              0.0000000000
      4077        33  PMPG      O31           -16.7632212702      -14.4924365003       16.6724673695  MEMB      33              0.0000000000
      4078        33  PMPG      C31           -16.2336084662      -14.9252533300       15.5580759581  MEMB      33              0.0000000000
      4079        33  PMPG      O32           -16.2347997475      -14.3086924810       14.4417585382  MEMB      33              0.0000000000
      4080        33  PMPG      C32           -15.5355617413      -16.2726204940       15.8253275906  MEMB      33              0.0000000000
      4081        33  PMPG      H2X           -15.6703827339      -16.6090085913       16.8755596160  MEMB      33              0.0000000000
      4082        33  PMPG      H2Y           -14.4773276634      -16.1687595660       15.5033418972  MEMB      33              0.0000000000
      4083        33  PMPG      C23           -19.5948373290      -14.4761818086       12.7134174237  MEMB      33              0.0000000000
      4084        33  PMPG      H3R           -20.0593594884      -15.1671314303       11.9778029704  MEMB      33              0.0000000000
      4085        33  PMPG      H3S           -18.9776075306      -15.1246576117       13.3713137380  MEMB      33              0.0000000000
      4086        33  PMPG      C24           -18.8665395559      -13.3568259213       12.0731541050  MEMB      33              0.0000000000
      4087        33  PMPG      H4R           -18.3481774254      -12.6652673810       12.7712717344  MEMB      33              0.0000000000
      4088        33  PMPG      H4S           -19.6061803653      -12.7293511015       11.5313721929  MEMB      33              0.0000000000
      4089        33  PMPG      C25           -17.7378518100      -13.9739171505       11.2110910801  MEMB      33              0.0000000000
      4090        33  PMPG      H5R           -18.0718789200      -14.5825710330       10.3437459659  MEMB      33              0.0000000000
      4091        33  PMPG      H5S           -17.1912473802      -14.6537391172       11.8991218838  MEMB      33              0.0000000000
      4092        33  PMPG      C26           -16.7766874881      -13.0009946927       10.4411203526  MEMB      33              0.0000000000
      4093        33  PMPG      H6R           -16.0788262519      -12.5594299521       11.1843101134  MEMB      33              0.0000000000
      4094        33  PMPG      H6S           -17.1965936016      -12.1374480295        9.8822941644  MEMB      33              0.0000000000
      4095        33  PMPG      C27           -15.8955188220      -13.7610804930        9.3982908417  MEMB      33              0.0000000000
      4096        33  PMPG      H7R           -16.5212476784      -14.0314243299        8.5209660733  MEMB      33              0.0000000000
      4097        33  PMPG      H7S           -15.6116966323      -14.7170422591        9.8880898254  MEMB      33              0.0000000000
      4098        33  PMPG      C28           -14.6650632274      -12.9516471042        8.9910489831  MEMB      33              0.0000000000
      4099        33  PMPG      H8R           -14.0735770682      -13.6012047638        8.3109468769  MEMB      33              0.0000000000
      4100        33  PMPG      H8S           -14.1172763516      -12.6049356121        9.8932920703  MEMB      33              0.0000000000
      4101        33  PMPG      C29           -15.0818922525      -11.7195714209        8.1462475913  MEMB      33              0.0000000000
      4102        33  PMPG      H9R           -14.9429071895      -10.7394126617        8.6505220136  MEMB      33              0.0000000000
      4103        33  PMPG      C217          -14.3003794869      -11.6789079543        6.8775122678  MEMB      33              0.0000000000
      4104        33  PMPG      H17R          -13.8594503818      -10.7102969106        6.6768578805  MEMB      33              0.0000000000
      4105        33  PMPG      H17S          -13.7730580712      -12.5830881906        6.5995214636  MEMB      33              0.0000000000
      4106        33  PMPG      C210          -15.8130641135      -11.7099707393        6.8015220860  MEMB      33              0.0000000000
      4107        33  PMPG      H10R          -16.3303338079      -10.7304370554        6.7162783003  MEMB      33              0.0000000000
      4108        33  PMPG      C211          -16.4629051537      -12.9467743427        6.2090147256  MEMB      33              0.0000000000
      4109        33  PMPG      H11R          -16.1306603858      -13.8990108278        6.6750408505  MEMB      33              0.0000000000
      4110        33  PMPG      H11S          -17.5719902856      -12.9416588563        6.1440146524  MEMB      33              0.0000000000
      4111        33  PMPG      C212          -15.9765293331      -13.1749605543        4.7338519042  MEMB      33              0.0000000000
      4112        33  PMPG      H12R          -16.3953636376      -14.1506375826        4.4068147953  MEMB      33              0.0000000000
      4113        33  PMPG      H12S          -14.8717799554      -13.1520672900        4.6184140029  MEMB      33              0.0000000000
      4114        33  PMPG      C213          -16.5254599830      -12.1797976534        3.6640620030  MEMB      33              0.0000000000
      4115        33  PMPG      H13R          -15.8012135073      -11.3400293281        3.7317137317  MEMB      33              0.0000000000
      4116        33  PMPG      H13S          -17.5961785654      -11.9411145005        3.8398837634  MEMB      33              0.0000000000
      4117        33  PMPG      C214          -16.3552113837      -12.7050306883        2.2536187040  MEMB      33              0.0000000000
      4118        33  PMPG      H14R          -17.1346413410      -13.4900822908        2.1511260771  MEMB      33              0.0000000000
      4119        33  PMPG      H14S          -15.4087462194      -13.2851255355        2.2087331569  MEMB      33              0.0000000000
      4120        33  PMPG      C215          -16.3946733945      -11.6072139799        1.1070211329  MEMB      33              0.0000000000
      4121        33  PMPG      H15R          -15.9981540607      -12.1884149807        0.2471972172  MEMB      33              0.0000000000
      4122        33  PMPG      H15S          -15.5768795283      -10.9063588693        1.3796682877  MEMB      33              0.0000000000
      4123        33  PMPG      C216          -17.7313311852      -10.9323447259        0.7626309021  MEMB      33              0.0000000000
      4124        33  PMPG      H16R          -17.7319678842      -10.3984729299       -0.2116897947  MEMB      33              0.0000000000
      4125        33  PMPG      H16S          -17.9384353116      -10.2406095064        1.6069838587  MEMB      33              0.0000000000
      4126        33  PMPG      H16T          -18.5165671691      -11.7082011853        0.6370437453  MEMB      33              0.0000000000
      4127        33  PMPG      C33           -16.1723719573      -17.4252789508       15.0368302570  MEMB      33              0.0000000000
      4128        33  PMPG      H3X           -17.2217172144      -17.5234646138       15.3883345634  MEMB      33              0.0000000000
      4129        33  PMPG      H3Y           -15.8426458187      -18.4386375208       15.3510056941  MEMB      33              0.0000000000
      4130        33  PMPG      C34           -16.4519129922      -17.1797535164       13.5213991709  MEMB      33              0.0000000000
      4131        33  PMPG      H4X           -15.5079514685      -16.8855356504       13.0147502165  MEMB      33              0.0000000000
      4132        33  PMPG      H4Y           -17.0658636409      -16.2544831031       13.5569005363  MEMB      33              0.0000000000
      4133        33  PMPG      C35           -17.0818245015      -18.3553028796       12.7786134754  MEMB      33              0.0000000000
      4134        33  PMPG      H5X           -18.0326970602      -18.5836414872       13.3058932738  MEMB      33              0.0000000000
      4135        33  PMPG      H5Y           -16.3726198187      -19.2013130059       12.9035795673  MEMB      33              0.0000000000
      4136        33  PMPG      C36           -17.4529169701      -18.2124771723       11.3492420565  MEMB      33              0.0000000000
      4137        33  PMPG      H6X           -16.5661288277      -18.0231807988       10.7072962085  MEMB      33              0.0000000000
      4138        33  PMPG      H6Y           -18.1688604267      -17.3943252009       11.1203892930  MEMB      33              0.0000000000
      4139        33  PMPG      C37           -18.0759569429      -19.5206184678       10.7507893232  MEMB      33              0.0000000000
      4140        33  PMPG      H7X           -19.0349079784      -19.7226972504       11.2741417742  MEMB      33              0.0000000000
      4141        33  PMPG      H7Y           -17.3410582529      -20.3405139833       10.8991699646  MEMB      33              0.0000000000
      4142        33  PMPG      C38           -18.3769297907      -19.4111025276        9.3002962951  MEMB      33              0.0000000000
      4143        33  PMPG      H8X           -18.3179683461      -20.4043258260        8.8059754189  MEMB      33              0.0000000000
      4144        33  PMPG      H8Y           -17.4836558811      -18.9017662832        8.8796305575  MEMB      33              0.0000000000
      4145        33  PMPG      C39           -19.7731150386      -18.7492477408        9.0086839481  MEMB      33              0.0000000000
      4146        33  PMPG      H9X           -19.8698337855      -17.8537265316        9.6590747430  MEMB      33              0.0000000000
      4147        33  PMPG      H9Y           -20.5634390441      -19.4654410455        9.3197731638  MEMB      33              0.0000000000
      4148        33  PMPG      C310          -19.8166390182      -18.2163845604        7.5577140737  MEMB      33              0.0000000000
      4149        33  PMPG      H10X          -20.8001367777      -17.7175954144        7.4225738100  MEMB      33              0.0000000000
      4150        33  PMPG      H10Y          -19.6930214692      -19.0694333560        6.8567522311  MEMB      33              0.0000000000
      4151        33  PMPG      C311          -18.6672848917      -17.3392345364        7.1617083219  MEMB      33              0.0000000000
      4152        33  PMPG      H11X          -17.7305613248      -17.9365828459        7.1684050433  MEMB      33              0.0000000000
      4153        33  PMPG      H11Y          -18.3638720392      -16.4799121446        7.7971819813  MEMB      33              0.0000000000
      4154        33  PMPG      C312          -18.7696623350      -16.7786660210        5.7311211625  MEMB      33              0.0000000000
      4155        33  PMPG      H12X          -19.1509904574      -17.5710609052        5.0521363162  MEMB      33              0.0000000000
      4156        33  PMPG      H12Y          -17.7367944138      -16.5928144814        5.3664782211  MEMB      33              0.0000000000
      4157        33  PMPG      C313          -19.6432629402      -15.5272169126        5.5675518291  MEMB      33              0.0000000000
      4158        33  PMPG      H13X          -19.2714958796      -14.7199501259        6.2342083928  MEMB      33              0.0000000000
      4159        33  PMPG      H13Y          -20.6454591093      -15.8167126648        5.9498027898  MEMB      33              0.0000000000
      4160        33  PMPG      C314          -19.7465888127      -14.9089530902        4.1095750255  MEMB      33              0.0000000000
      4161        33  PMPG      H14X          -18.7513580114      -14.9459127047        3.6171625688  MEMB      33              0.0000000000
      4162        33  PMPG      H14Y          -19.9717617750      -13.8251801768        4.2047288771  MEMB      33              0.0000000000
      4163        33  PMPG      C315          -20.9563852707      -15.4141907798        3.2699179158  MEMB      33              0.0000000000
      4164        33  PMPG      H15X          -21.8652061980      -15.0201694070        3.7730217660  MEMB      33              0.0000000000
      4165        33  PMPG      H15Y          -20.8546379962      -16.5063674630        3.4463228865  MEMB      33              0.0000000000
      4166        33  PMPG      C316          -21.0271469699      -15.0044378848        1.8135742299  MEMB      33              0.0000000000
      4167        33  PMPG      H16X          -20.3268604945      -15.5610650936        1.1547233777  MEMB      33              0.0000000000
      4168        33  PMPG      H16Y          -20.9231510649      -13.8983461153        1.8216995795  MEMB      33              0.0000000000
      4169        33  PMPG      H16Z          -22.0178915458      -15.2485645621        1.3740886108  MEMB      33              0.0000000000
      4170        34  QMPE      N              24.4187425494      -11.2140994970       22.3276101964  MEMB      34              0.0000000000
      4171        34  QMPE      HN1            24.2639258057      -12.2219508583       22.5322255373  MEMB      34              0.0000000000
      4172        34  QMPE      HN2            25.4508779456      -11.0917262235       22.3639572008  MEMB      34              0.0000000000
      4173        34  QMPE      HN3            23.9595127100      -10.7862289383       23.1568473763  MEMB      34              0.0000000000
      4174        34  QMPE      C12            23.8288042933      -10.6825849838       21.0682735696  MEMB      34              0.0000000000
      4175        34  QMPE      H12A           23.9086320352       -9.5751686584       21.1079921876  MEMB      34              0.0000000000
      4176        34  QMPE      H12B           22.7368930161      -10.8780514588       21.1302713679  MEMB      34              0.0000000000
      4177        34  QMPE      C11            24.4730666700      -11.3460944786       19.9193416619  MEMB      34              0.0000000000
      4178        34  QMPE      H11A           24.4710832865      -12.4502420929       20.0425290528  MEMB      34              0.0000000000
      4179        34  QMPE      H11B           25.5462017282      -11.0585166854       19.9202811453  MEMB      34              0.0000000000
      4180        34  QMPE      P              23.2559002006      -12.0434451018       17.6854582555  MEMB      34              0.0000000000
      4181        34  QMPE      O13            23.0239533460      -11.5632465807       16.3125629755  MEMB      34              0.0000000000
      4182        34  QMPE      O14            22.0161257861      -12.4133367601       18.4027332147  MEMB      34              0.0000000000
      4183        34  QMPE      O11            24.2202781235      -13.3367958109       17.6314771066  MEMB      34              0.0000000000
      4184        34  QMPE      O12            23.9616074420      -10.9635583437       18.6525430204  MEMB      34              0.0000000000
      4185        34  QMPE      C1             25.4928534355      -13.1128102102       17.0299163954  MEMB      34              0.0000000000
      4186        34  QMPE      HA             26.1701853564      -13.8303124735       17.5405366801  MEMB      34              0.0000000000
      4187        34  QMPE      HB             25.9195330718      -12.0889336412       17.0927031740  MEMB      34              0.0000000000
      4188        34  QMPE      C2             25.4534909340      -13.3897959231       15.5121072153  MEMB      34              0.0000000000
      4189        34  QMPE      HS             24.7425195330      -12.6236769545       15.1354079002  MEMB      34              0.0000000000
      4190        34  QMPE      O21            24.9738147263      -14.7329100727       15.2899135939  MEMB      34              0.0000000000
      4191        34  QMPE      C21            24.0658764089      -14.8902896471       14.4164495710  MEMB      34              0.0000000000
      4192        34  QMPE      O22            23.4926184270      -14.0549169375       13.7580927367  MEMB      34              0.0000000000
      4193        34  QMPE      C22            23.8309178696      -16.3429580193       14.1350010887  MEMB      34              0.0000000000
      4194        34  QMPE      H2R            23.0970849962      -16.4108221636       13.3036137804  MEMB      34              0.0000000000
      4195        34  QMPE      H2S            23.4621265243      -16.7876024036       15.0840033780  MEMB      34              0.0000000000
      4196        34  QMPE      C3             26.9035386910      -13.2229944681       14.9617370346  MEMB      34              0.0000000000
      4197        34  QMPE      HX             27.6036664761      -13.9043237899       15.4908232088  MEMB      34              0.0000000000
      4198        34  QMPE      HY             27.1603751777      -12.1765940140       15.2326653905  MEMB      34              0.0000000000
      4199        34  QMPE      O31            27.0188480106      -13.3652623803       13.5495445010  MEMB      34              0.0000000000
      4200        34  QMPE      C31            26.6833501250      -12.3446298365       12.7538718904  MEMB      34              0.0000000000
      4201        34  QMPE      O32            26.3185267573      -11.2697368394       13.2088728021  MEMB      34              0.0000000000
      4202        34  QMPE      C32            26.9238703979      -12.6762237901       11.2712250481  MEMB      34              0.0000000000
      4203        34  QMPE      H2X            28.0067707714      -12.5892486154       11.0386667722  MEMB      34              0.0000000000
      4204        34  QMPE      H2Y            26.5069019711      -13.6904876839       11.0931033262  MEMB      34              0.0000000000
      4205        34  QMPE      C23            25.1979159964      -16.9645637366       13.7299828492  MEMB      34              0.0000000000
      4206        34  QMPE      H3R            25.0060414907      -18.0573100120       13.7883851297  MEMB      34              0.0000000000
      4207        34  QMPE      H3S            25.9802860292      -16.6273529143       14.4430795598  MEMB      34              0.0000000000
      4208        34  QMPE      C24            25.8451420025      -16.6246264466       12.3949231615  MEMB      34              0.0000000000
      4209        34  QMPE      H4R            26.6372399102      -15.8457608867       12.4113660773  MEMB      34              0.0000000000
      4210        34  QMPE      H4S            25.0262977933      -16.2138191976       11.7663912529  MEMB      34              0.0000000000
      4211        34  QMPE      C25            26.3741195094      -17.8906095909       11.7584083117  MEMB      34              0.0000000000
      4212        34  QMPE      H5R            25.5533740927      -18.4997721299       11.3229560810  MEMB      34              0.0000000000
      4213        34  QMPE      H5S            26.9756029202      -18.4101657122       12.5346817277  MEMB      34              0.0000000000
      4214        34  QMPE      C26            27.2699383715      -17.7465318498       10.4900253845  MEMB      34              0.0000000000
      4215        34  QMPE      H6R            27.8111313392      -18.6990601150       10.3053068111  MEMB      34              0.0000000000
      4216        34  QMPE      H6S            27.9847592376      -16.9245467880       10.7084126627  MEMB      34              0.0000000000
      4217        34  QMPE      C27            26.4810236580      -17.3178191144        9.2629798128  MEMB      34              0.0000000000
      4218        34  QMPE      H7R            25.8665590126      -16.4020560650        9.3976389452  MEMB      34              0.0000000000
      4219        34  QMPE      H7S            25.7586779736      -18.1404017037        9.0735197312  MEMB      34              0.0000000000
      4220        34  QMPE      C28            27.3643104530      -17.0600868087        8.0162830331  MEMB      34              0.0000000000
      4221        34  QMPE      H8R            26.6100850881      -17.0272820517        7.2011821200  MEMB      34              0.0000000000
      4222        34  QMPE      H8S            28.0796402563      -17.8926629810        7.8446961829  MEMB      34              0.0000000000
      4223        34  QMPE      C29            28.2160874467      -15.7651642622        8.0977110980  MEMB      34              0.0000000000
      4224        34  QMPE      H9R            29.0660158223      -15.7650633103        8.8132130505  MEMB      34              0.0000000000
      4225        34  QMPE      C217           27.3434390173      -14.4814316434        8.0920266689  MEMB      34              0.0000000000
      4226        34  QMPE      H17R           26.3167209511      -14.6016343217        7.7690864964  MEMB      34              0.0000000000
      4227        34  QMPE      H17S           27.6641201240      -13.7386213660        8.8119467915  MEMB      34              0.0000000000
      4228        34  QMPE      C210           28.2244945823      -14.7955062343        6.9655137889  MEMB      34              0.0000000000
      4229        34  QMPE      H10R           29.0323434169      -14.0328271778        6.9701750252  MEMB      34              0.0000000000
      4230        34  QMPE      C211           27.5368527486      -15.0711245681        5.6277289871  MEMB      34              0.0000000000
      4231        34  QMPE      H11R           26.5346790259      -15.4196727867        5.9570965588  MEMB      34              0.0000000000
      4232        34  QMPE      H11S           27.4009629255      -14.0789066917        5.1467312956  MEMB      34              0.0000000000
      4233        34  QMPE      C212           28.2137537176      -15.9518380700        4.5921528087  MEMB      34              0.0000000000
      4234        34  QMPE      H12R           27.5723160893      -15.8833113833        3.6876180156  MEMB      34              0.0000000000
      4235        34  QMPE      H12S           28.1836918231      -17.0429238108        4.7993942285  MEMB      34              0.0000000000
      4236        34  QMPE      C213           29.6351988076      -15.6216221852        4.2161069416  MEMB      34              0.0000000000
      4237        34  QMPE      H13R           30.3864518145      -16.3365549537        4.6146176766  MEMB      34              0.0000000000
      4238        34  QMPE      H13S           29.9453269861      -14.6458243669        4.6473383205  MEMB      34              0.0000000000
      4239        34  QMPE      C214           29.8351048936      -15.6375412685        2.6482117373  MEMB      34              0.0000000000
      4240        34  QMPE      H14R           29.7698926996      -16.6851156213        2.2839924889  MEMB      34              0.0000000000
      4241        34  QMPE      H14S           30.8589977631      -15.2632837137        2.4339818356  MEMB      34              0.0000000000
      4242        34  QMPE      C215           28.8764732050      -14.7738062118        1.8505583042  MEMB      34              0.0000000000
      4243        34  QMPE      H15R           28.6082532979      -13.8482563517        2.4034919630  MEMB      34              0.0000000000
      4244        34  QMPE      H15S           27.9454184906      -15.3678576332        1.7298889341  MEMB      34              0.0000000000
      4245        34  QMPE      C216           29.3006065584      -14.4684763677        0.4019608393  MEMB      34              0.0000000000
      4246        34  QMPE      H16R           29.8035874197      -15.2571421078       -0.1974890725  MEMB      34              0.0000000000
      4247        34  QMPE      H16S           29.9901415473      -13.6014632509        0.4865237286  MEMB      34              0.0000000000
      4248        34  QMPE      H16T           28.4700531766      -14.1880365646       -0.2805757950  MEMB      34              0.0000000000
      4249        34  QMPE      C33            26.1910149385      -11.7850754174       10.2503530381  MEMB      34              0.0000000000
      4250        34  QMPE      H3X            26.7306579239      -11.8571889927        9.2818975174  MEMB      34              0.0000000000
      4251        34  QMPE      H3Y            26.2359193644      -10.7380067916       10.6190698446  MEMB      34              0.0000000000
      4252        34  QMPE      C34            24.7487338986      -12.1983364015       10.1039636083  MEMB      34              0.0000000000
      4253        34  QMPE      H4X            24.4614647865      -12.4157225739       11.1549354546  MEMB      34              0.0000000000
      4254        34  QMPE      H4Y            24.6418614103      -13.1717955563        9.5792956433  MEMB      34              0.0000000000
      4255        34  QMPE      C35            23.7078019056      -11.1198509714        9.7268272495  MEMB      34              0.0000000000
      4256        34  QMPE      H5X            23.8518759835      -10.3290079993       10.4937245107  MEMB      34              0.0000000000
      4257        34  QMPE      H5Y            22.6886144282      -11.5284082499        9.8961177037  MEMB      34              0.0000000000
      4258        34  QMPE      C36            23.8705974942      -10.5265875291        8.3204547138  MEMB      34              0.0000000000
      4259        34  QMPE      H6X            24.9330659115      -10.2187023594        8.2170700885  MEMB      34              0.0000000000
      4260        34  QMPE      H6Y            23.3124929703       -9.5667992604        8.3610407633  MEMB      34              0.0000000000
      4261        34  QMPE      C37            23.3815165520      -11.5083910583        7.2055022398  MEMB      34              0.0000000000
      4262        34  QMPE      H7X            24.0729152086      -12.3774178578        7.2383885563  MEMB      34              0.0000000000
      4263        34  QMPE      H7Y            22.3521390830      -11.8296328725        7.4729086324  MEMB      34              0.0000000000
      4264        34  QMPE      C38            23.2467164380      -11.0165683853        5.8248988140  MEMB      34              0.0000000000
      4265        34  QMPE      H8X            22.5833108014      -10.1269854244        5.7714547149  MEMB      34              0.0000000000
      4266        34  QMPE      H8Y            24.2350903399      -10.5922201634        5.5467496209  MEMB      34              0.0000000000
      4267        34  QMPE      C39            22.8221099245      -11.9342003481        4.6347166239  MEMB      34              0.0000000000
      4268        34  QMPE      H9X            22.4102306032      -11.2476581564        3.8644338295  MEMB      34              0.0000000000
      4269        34  QMPE      H9Y            21.9234547103      -12.4350398734        5.0541213267  MEMB      34              0.0000000000
      4270        34  QMPE      C310           24.0333642373      -12.7387666792        4.2428463266  MEMB      34              0.0000000000
      4271        34  QMPE      H10X           24.4492338905      -13.1601810853        5.1829442760  MEMB      34              0.0000000000
      4272        34  QMPE      H10Y           24.6877266396      -12.0553936488        3.6604957590  MEMB      34              0.0000000000
      4273        34  QMPE      C311           23.5510983391      -13.9402370870        3.2596325722  MEMB      34              0.0000000000
      4274        34  QMPE      H11X           22.6581997449      -13.6521133965        2.6646221225  MEMB      34              0.0000000000
      4275        34  QMPE      H11Y           23.2580160403      -14.7356994263        3.9777300401  MEMB      34              0.0000000000
      4276        34  QMPE      C312           24.7195900893      -14.3221148178        2.3727759748  MEMB      34              0.0000000000
      4277        34  QMPE      H12X           25.5700144308      -14.5710826150        3.0429356033  MEMB      34              0.0000000000
      4278        34  QMPE      H12Y           24.9362663036      -13.4528142507        1.7157456462  MEMB      34              0.0000000000
      4279        34  QMPE      C313           24.4261813743      -15.5832044138        1.5246850559  MEMB      34              0.0000000000
      4280        34  QMPE      H13X           25.1260106379      -15.7079231228        0.6708653630  MEMB      34              0.0000000000
      4281        34  QMPE      H13Y           24.4264136258      -16.4904184654        2.1659980834  MEMB      34              0.0000000000
      4282        34  QMPE      C314           23.1365689849      -15.4535691290        0.6301848969  MEMB      34              0.0000000000
      4283        34  QMPE      H14X           23.2560572091      -14.5792392208       -0.0447892263  MEMB      34              0.0000000000
      4284        34  QMPE      H14Y           22.1747444899      -15.3003490055        1.1647307772  MEMB      34              0.0000000000
      4285        34  QMPE      C315           23.0148764229      -16.6533494678       -0.3061488247  MEMB      34              0.0000000000
      4286        34  QMPE      H15X           22.1332161039      -16.4744004510       -0.9580491293  MEMB      34              0.0000000000
      4287        34  QMPE      H15Y           23.8549599401      -16.8276818380       -1.0119726494  MEMB      34              0.0000000000
      4288        34  QMPE      H15Z           22.8069905367      -17.5682988568        0.2888066057  MEMB      34              0.0000000000
      4289        35  PYPG      C13            25.4451878955       -1.1720555476       19.7679275402  MEMB      35              0.0000000000
      4290        35  PYPG      H13A           25.6096137922       -0.4711253878       20.6140848632  MEMB      35              0.0000000000
      4291        35  PYPG      H13B           25.7588263836       -0.6577939785       18.8343929572  MEMB      35              0.0000000000
      4292        35  PYPG      OC3            24.0405390402       -1.4019458664       19.6227039181  MEMB      35              0.0000000000
      4293        35  PYPG      HO3            23.9445245429       -2.2704734555       19.2251599758  MEMB      35              0.0000000000
      4294        35  PYPG      C12            26.1426572366       -2.5413836487       20.0830620751  MEMB      35              0.0000000000
      4295        35  PYPG      H12A           25.8007395110       -2.8621276321       21.0944940333  MEMB      35              0.0000000000
      4296        35  PYPG      OC2            27.5601214169       -2.3722152276       20.1301601950  MEMB      35              0.0000000000
      4297        35  PYPG      HO2            27.8907239874       -3.2948467776       20.1947342095  MEMB      35              0.0000000000
      4298        35  PYPG      C11            25.7816180968       -3.6691910891       19.0910827616  MEMB      35              0.0000000000
      4299        35  PYPG      H11A           26.2483970293       -3.2839685743       18.1593950375  MEMB      35              0.0000000000
      4300        35  PYPG      H11B           24.6863551417       -3.7793448222       18.9407956651  MEMB      35              0.0000000000
      4301        35  PYPG      P              26.5088268525       -5.9926670797       18.2914130065  MEMB      35              0.0000000000
      4302        35  PYPG      O13            25.2702272274       -6.2106577416       17.5870515062  MEMB      35              0.0000000000
      4303        35  PYPG      O14            27.2937380059       -7.1760828530       18.7619800898  MEMB      35              0.0000000000
      4304        35  PYPG      O11            27.4389649791       -5.2936012442       17.2251951613  MEMB      35              0.0000000000
      4305        35  PYPG      O12            26.3681292482       -4.9282454057       19.4394237193  MEMB      35              0.0000000000
      4306        35  PYPG      C1             28.7576475039       -4.8781091269       17.4390250896  MEMB      35              0.0000000000
      4307        35  PYPG      HA             29.1754096843       -5.3681462956       18.3443754751  MEMB      35              0.0000000000
      4308        35  PYPG      HB             28.7670090480       -3.7930808142       17.6776605704  MEMB      35              0.0000000000
      4309        35  PYPG      C2             29.6833192556       -5.3075953582       16.1801218350  MEMB      35              0.0000000000
      4310        35  PYPG      HS             30.6375168999       -4.7457619657       16.2705173771  MEMB      35              0.0000000000
      4311        35  PYPG      O21            29.0798231400       -5.0003746461       14.8970449484  MEMB      35              0.0000000000
      4312        35  PYPG      C21            29.0186665024       -3.6719368200       14.5696615321  MEMB      35              0.0000000000
      4313        35  PYPG      O22            29.7464901577       -2.8705521313       15.0742317613  MEMB      35              0.0000000000
      4314        35  PYPG      C22            27.8180071209       -3.5586924783       13.6557093471  MEMB      35              0.0000000000
      4315        35  PYPG      H2R            27.0050846297       -4.1991949923       14.0597322364  MEMB      35              0.0000000000
      4316        35  PYPG      H2S            28.2019981019       -3.8413573072       12.6522290824  MEMB      35              0.0000000000
      4317        35  PYPG      C3             29.9323028916       -6.8617179337       16.1370707514  MEMB      35              0.0000000000
      4318        35  PYPG      HX             30.6079081376       -7.1272643303       16.9781198668  MEMB      35              0.0000000000
      4319        35  PYPG      HY             30.6064740870       -7.1459326037       15.3009869850  MEMB      35              0.0000000000
      4320        35  PYPG      O31            28.6897191786       -7.5371765181       16.2766883918  MEMB      35              0.0000000000
      4321        35  PYPG      C31            28.2241373580       -8.1499551790       15.2112745479  MEMB      35              0.0000000000
      4322        35  PYPG      O32            28.6638118904       -8.0899318564       14.0766261194  MEMB      35              0.0000000000
      4323        35  PYPG      C32            26.8492086105       -8.8859860091       15.5318571878  MEMB      35              0.0000000000
      4324        35  PYPG      H2X            27.1103844862       -9.8598863636       15.9983619028  MEMB      35              0.0000000000
      4325        35  PYPG      H2Y            26.3385893037       -8.3171753377       16.3381097473  MEMB      35              0.0000000000
      4326        35  PYPG      C23            27.5061646045       -2.0917813764       13.4767910027  MEMB      35              0.0000000000
      4327        35  PYPG      H3R            28.3716154599       -1.4816323443       13.1405855146  MEMB      35              0.0000000000
      4328        35  PYPG      H3S            27.0127317215       -1.6219477107       14.3543450987  MEMB      35              0.0000000000
      4329        35  PYPG      C24            26.4242862240       -1.8219854152       12.4283673185  MEMB      35              0.0000000000
      4330        35  PYPG      H4R            26.8077223006       -2.1674190078       11.4445109149  MEMB      35              0.0000000000
      4331        35  PYPG      H4S            26.2138933935       -0.7332438502       12.3598287189  MEMB      35              0.0000000000
      4332        35  PYPG      C25            25.2723738202       -2.8004716471       12.6896060849  MEMB      35              0.0000000000
      4333        35  PYPG      H5R            25.0828520965       -2.7881840645       13.7842528633  MEMB      35              0.0000000000
      4334        35  PYPG      H5S            25.6330670206       -3.7729365342       12.2914437185  MEMB      35              0.0000000000
      4335        35  PYPG      C26            24.0248675682       -2.2293079321       11.9727040527  MEMB      35              0.0000000000
      4336        35  PYPG      H6R            23.9101589956       -1.1442922208       12.1822371980  MEMB      35              0.0000000000
      4337        35  PYPG      H6S            23.1360997866       -2.6991999089       12.4455826107  MEMB      35              0.0000000000
      4338        35  PYPG      C27            24.1863563373       -2.3336418879       10.4362806799  MEMB      35              0.0000000000
      4339        35  PYPG      H7R            24.6004856872       -3.3413536760       10.2187149771  MEMB      35              0.0000000000
      4340        35  PYPG      H7S            24.7333266230       -1.4620877609       10.0173075842  MEMB      35              0.0000000000
      4341        35  PYPG      C28            22.8894116908       -2.2257968919        9.6529164259  MEMB      35              0.0000000000
      4342        35  PYPG      H8R            22.4767927324       -1.3021668621       10.1122351740  MEMB      35              0.0000000000
      4343        35  PYPG      H8S            22.1716336354       -3.0180429064        9.9553441849  MEMB      35              0.0000000000
      4344        35  PYPG      C29            22.8128859460       -2.1364134089        8.1317638059  MEMB      35              0.0000000000
      4345        35  PYPG      H9R            21.8082092443       -1.8005173875        7.8354568316  MEMB      35              0.0000000000
      4346        35  PYPG      C210           23.6185027945       -2.5694327167        7.1729636179  MEMB      35              0.0000000000
      4347        35  PYPG      H10R           23.3104086079       -2.4522880206        6.1235091030  MEMB      35              0.0000000000
      4348        35  PYPG      C211           24.9398254451       -3.3009236545        7.2726185639  MEMB      35              0.0000000000
      4349        35  PYPG      H11R           24.9559758570       -4.2773144697        6.7427866798  MEMB      35              0.0000000000
      4350        35  PYPG      H11S           25.1618840932       -3.5616443508        8.3295173020  MEMB      35              0.0000000000
      4351        35  PYPG      C212           26.1773980120       -2.3826672822        6.9743510278  MEMB      35              0.0000000000
      4352        35  PYPG      H12R           27.0742646076       -2.9433142167        7.3143903992  MEMB      35              0.0000000000
      4353        35  PYPG      H12S           26.0523198968       -1.4893185636        7.6228916744  MEMB      35              0.0000000000
      4354        35  PYPG      C213           26.3923783413       -2.0214256032        5.5284020951  MEMB      35              0.0000000000
      4355        35  PYPG      H13R           25.3955287012       -1.6962173644        5.1611799767  MEMB      35              0.0000000000
      4356        35  PYPG      H13S           26.6191940701       -2.8724098420        4.8511267053  MEMB      35              0.0000000000
      4357        35  PYPG      C214           27.2585303518       -0.7645726087        5.3934330129  MEMB      35              0.0000000000
      4358        35  PYPG      H14R           26.8586172049       -0.0315562667        6.1262887844  MEMB      35              0.0000000000
      4359        35  PYPG      H14S           28.3115447403       -0.9519147696        5.6940731925  MEMB      35              0.0000000000
      4360        35  PYPG      C215           27.1415855711       -0.1511023760        3.9297013764  MEMB      35              0.0000000000
      4361        35  PYPG      H15R           27.4797584059        0.9062126063        3.8844714508  MEMB      35              0.0000000000
      4362        35  PYPG      H15S           26.0820288018       -0.2560540615        3.6124546224  MEMB      35              0.0000000000
      4363        35  PYPG      C216           27.8506720749       -0.7990370676        2.7720922622  MEMB      35              0.0000000000
      4364        35  PYPG      H16R           28.8783025512       -0.4435659164        2.5441958918  MEMB      35              0.0000000000
      4365        35  PYPG      H16S           27.2977617291       -0.6012982008        1.8289529562  MEMB      35              0.0000000000
      4366        35  PYPG      H16T           27.9582034213       -1.8779489167        3.0143864694  MEMB      35              0.0000000000
      4367        35  PYPG      C33            25.9584418818       -9.1694390682       14.3137893740  MEMB      35              0.0000000000
      4368        35  PYPG      H3X            25.1883279479       -9.9096885775       14.6192011458  MEMB      35              0.0000000000
      4369        35  PYPG      H3Y            26.5804270398       -9.5773220129       13.4885096259  MEMB      35              0.0000000000
      4370        35  PYPG      C34            25.1639899041       -7.9742582547       13.7191063909  MEMB      35              0.0000000000
      4371        35  PYPG      H4X            25.8076526244       -7.2013227270       13.2473120135  MEMB      35              0.0000000000
      4372        35  PYPG      H4Y            24.7198711181       -7.4483446940       14.5911696843  MEMB      35              0.0000000000
      4373        35  PYPG      C35            24.0437572612       -8.4274066243       12.7423748001  MEMB      35              0.0000000000
      4374        35  PYPG      H5X            23.3715205796       -9.1615223682       13.2358243235  MEMB      35              0.0000000000
      4375        35  PYPG      H5Y            24.6262501817       -9.0742728594       12.0520216975  MEMB      35              0.0000000000
      4376        35  PYPG      C36            23.3182684832       -7.2018907200       12.1145679404  MEMB      35              0.0000000000
      4377        35  PYPG      H6X            24.0326266887       -6.3515133170       12.0850438122  MEMB      35              0.0000000000
      4378        35  PYPG      H6Y            22.5402342315       -6.8766367766       12.8378890072  MEMB      35              0.0000000000
      4379        35  PYPG      C37            22.6323669172       -7.5017628139       10.8072276598  MEMB      35              0.0000000000
      4380        35  PYPG      H7X            22.3468865560       -8.5713173274       10.9014375435  MEMB      35              0.0000000000
      4381        35  PYPG      H7Y            21.6502921452       -6.9839281159       10.7660322867  MEMB      35              0.0000000000
      4382        35  PYPG      C38            23.4303621498       -7.2844243997        9.5644747605  MEMB      35              0.0000000000
      4383        35  PYPG      H8X            24.4300776577       -7.7234498499        9.7697726660  MEMB      35              0.0000000000
      4384        35  PYPG      H8Y            23.6089662700       -6.2127488857        9.3322404734  MEMB      35              0.0000000000
      4385        35  PYPG      C39            22.8432009594       -7.9409628521        8.3486870585  MEMB      35              0.0000000000
      4386        35  PYPG      H9X            22.0323273002       -7.2430415023        8.0491691242  MEMB      35              0.0000000000
      4387        35  PYPG      H9Y            22.3791477225       -8.9245276506        8.5757897171  MEMB      35              0.0000000000
      4388        35  PYPG      C310           23.7495226726       -7.8318103138        7.0619934084  MEMB      35              0.0000000000
      4389        35  PYPG      H10X           24.0676272972       -8.8029600662        6.6261045057  MEMB      35              0.0000000000
      4390        35  PYPG      H10Y           24.6869553572       -7.3547267320        7.4196692275  MEMB      35              0.0000000000
      4391        35  PYPG      C311           23.1259648425       -6.8773685335        5.9590324263  MEMB      35              0.0000000000
      4392        35  PYPG      H11X           23.1424824943       -5.8474727887        6.3754007852  MEMB      35              0.0000000000
      4393        35  PYPG      H11Y           22.0693979254       -7.2064470983        5.8605694190  MEMB      35              0.0000000000
      4394        35  PYPG      C312           23.9265161876       -6.9455616808        4.6568048312  MEMB      35              0.0000000000
      4395        35  PYPG      H12X           24.9471336076       -6.9056438113        5.0939173736  MEMB      35              0.0000000000
      4396        35  PYPG      H12Y           23.9360254756       -7.9775471966        4.2454204235  MEMB      35              0.0000000000
      4397        35  PYPG      C313           23.6912473769       -5.9913092949        3.5141922598  MEMB      35              0.0000000000
      4398        35  PYPG      H13X           24.4834621322       -6.1964106989        2.7627594103  MEMB      35              0.0000000000
      4399        35  PYPG      H13Y           22.7193294270       -6.1843341813        3.0117595388  MEMB      35              0.0000000000
      4400        35  PYPG      C314           23.8316557413       -4.5102581951        3.9382499896  MEMB      35              0.0000000000
      4401        35  PYPG      H14X           23.0353584020       -4.2366189630        4.6630626026  MEMB      35              0.0000000000
      4402        35  PYPG      H14Y           24.8318605046       -4.4392740052        4.4166564527  MEMB      35              0.0000000000
      4403        35  PYPG      C315           23.7139349424       -3.5011274526        2.7909189224  MEMB      35              0.0000000000
      4404        35  PYPG      H15X           22.7342156281       -3.7616232164        2.3363706437  MEMB      35              0.0000000000
      4405        35  PYPG      H15Y           23.7430946879       -2.4786571127        3.2245369974  MEMB      35              0.0000000000
      4406        35  PYPG      C316           24.8729848701       -3.4991937989        1.7780765692  MEMB      35              0.0000000000
      4407        35  PYPG      H16X           24.9662736272       -4.5385300972        1.3967645548  MEMB      35              0.0000000000
      4408        35  PYPG      H16Y           25.7810492292       -3.1927671281        2.3400753422  MEMB      35              0.0000000000
      4409        35  PYPG      H16Z           24.7529887180       -2.8006461842        0.9225333436  MEMB      35              0.0000000000
      4410        36  PMPE      N              15.7613397784       22.6562723963       17.2730705989  MEMB      36              0.0000000000
      4411        36  PMPE      HN1            16.7637608301       22.8153970791       17.0462862999  MEMB      36              0.0000000000
      4412        36  PMPE      HN2            15.2125470976       22.1927855587       16.5210022061  MEMB      36              0.0000000000
      4413        36  PMPE      HN3            15.3007080230       23.5635940974       17.4879795115  MEMB      36              0.0000000000
      4414        36  PMPE      C12            15.8159301386       21.7917423801       18.5377182267  MEMB      36              0.0000000000
      4415        36  PMPE      H12A           16.5656331950       22.2997397524       19.1813058822  MEMB      36              0.0000000000
      4416        36  PMPE      H12B           16.2652334909       20.8377881332       18.1878343755  MEMB      36              0.0000000000
      4417        36  PMPE      C11            14.4065270149       21.6434076455       19.2155037779  MEMB      36              0.0000000000
      4418        36  PMPE      H11A           14.4784196619       20.9730027330       20.0985154623  MEMB      36              0.0000000000
      4419        36  PMPE      H11B           13.7711797268       21.1814797354       18.4298337012  MEMB      36              0.0000000000
      4420        36  PMPE      P              12.4234769594       23.3038390176       19.4559961231  MEMB      36              0.0000000000
      4421        36  PMPE      O13            12.2994878009       24.7903984236       19.5877853399  MEMB      36              0.0000000000
      4422        36  PMPE      O14            11.5988951437       22.4979753209       20.3632803968  MEMB      36              0.0000000000
      4423        36  PMPE      O11            12.0708168805       22.9801134601       17.9886658058  MEMB      36              0.0000000000
      4424        36  PMPE      O12            13.9761887126       22.9420001381       19.5779797283  MEMB      36              0.0000000000
      4425        36  PMPE      C1             12.7054002602       23.6506959052       16.9302105597  MEMB      36              0.0000000000
      4426        36  PMPE      HA             13.1393375922       22.7946029771       16.3706355825  MEMB      36              0.0000000000
      4427        36  PMPE      HB             13.5467265641       24.3040399550       17.2458569122  MEMB      36              0.0000000000
      4428        36  PMPE      C2             11.7286653016       24.4456597166       15.9737528888  MEMB      36              0.0000000000
      4429        36  PMPE      HS             11.1976771942       25.2205079037       16.5670341237  MEMB      36              0.0000000000
      4430        36  PMPE      O21            10.7640627185       23.4888045623       15.5667950785  MEMB      36              0.0000000000
      4431        36  PMPE      C21             9.5671780835       23.9481570225       15.0763253595  MEMB      36              0.0000000000
      4432        36  PMPE      O22             9.3077861460       25.0807840656       14.6949111939  MEMB      36              0.0000000000
      4433        36  PMPE      C22             8.6338503869       22.6950371951       15.0951509027  MEMB      36              0.0000000000
      4434        36  PMPE      H2R             8.1320262737       22.7463673022       16.0850286917  MEMB      36              0.0000000000
      4435        36  PMPE      H2S             9.2498307032       21.7704589422       15.0884873914  MEMB      36              0.0000000000
      4436        36  PMPE      C3             12.5549671143       25.1075251728       14.8494314141  MEMB      36              0.0000000000
      4437        36  PMPE      HX             13.2089597379       25.9338103658       15.2013795386  MEMB      36              0.0000000000
      4438        36  PMPE      HY             11.8489604481       25.4647751863       14.0695285730  MEMB      36              0.0000000000
      4439        36  PMPE      O31            13.3475325386       24.1408418025       14.2568443233  MEMB      36              0.0000000000
      4440        36  PMPE      C31            12.9233853697       23.4345510102       13.1960642056  MEMB      36              0.0000000000
      4441        36  PMPE      O32            11.9568168900       23.6662432646       12.5604612024  MEMB      36              0.0000000000
      4442        36  PMPE      C32            13.9457080724       22.3755804728       12.9344050909  MEMB      36              0.0000000000
      4443        36  PMPE      H2X            13.5072427150       21.8115631024       12.0835504246  MEMB      36              0.0000000000
      4444        36  PMPE      H2Y            13.9211909547       21.6573804896       13.7816998294  MEMB      36              0.0000000000
      4445        36  PMPE      C23             7.5438141746       22.6926277081       14.0374426719  MEMB      36              0.0000000000
      4446        36  PMPE      H3R             7.1101079959       23.7153855797       14.0238019175  MEMB      36              0.0000000000
      4447        36  PMPE      H3S             6.6385299271       22.0939397342       14.2748335206  MEMB      36              0.0000000000
      4448        36  PMPE      C24             7.8551412031       22.3443960243       12.5861638084  MEMB      36              0.0000000000
      4449        36  PMPE      H4R             8.5083849385       23.1294558781       12.1488144086  MEMB      36              0.0000000000
      4450        36  PMPE      H4S             6.8981131845       22.2740362594       12.0262817985  MEMB      36              0.0000000000
      4451        36  PMPE      C25             8.4766401463       21.0294536892       12.4166476318  MEMB      36              0.0000000000
      4452        36  PMPE      H5R             7.7410310109       20.2037253255       12.5232895338  MEMB      36              0.0000000000
      4453        36  PMPE      H5S             9.3541358682       20.9388253221       13.0920057915  MEMB      36              0.0000000000
      4454        36  PMPE      C26             9.0165464176       20.7528371142       11.0248549535  MEMB      36              0.0000000000
      4455        36  PMPE      H6R             8.2742914940       21.0663178587       10.2599309012  MEMB      36              0.0000000000
      4456        36  PMPE      H6S             9.0400965562       19.6509628463       10.8847132906  MEMB      36              0.0000000000
      4457        36  PMPE      C27            10.4372231365       21.3329770125       10.6690538658  MEMB      36              0.0000000000
      4458        36  PMPE      H7R            11.1958119392       21.0272241439       11.4209716288  MEMB      36              0.0000000000
      4459        36  PMPE      H7S            10.2903548835       22.4152092316       10.8728288520  MEMB      36              0.0000000000
      4460        36  PMPE      C28            11.0838368432       21.0135350209        9.3116257990  MEMB      36              0.0000000000
      4461        36  PMPE      H8R            11.2514317101       19.9183536309        9.2290991196  MEMB      36              0.0000000000
      4462        36  PMPE      H8S            12.0513884820       21.5584924322        9.3460704135  MEMB      36              0.0000000000
      4463        36  PMPE      C29            10.1862471393       21.3919741386        8.0816052947  MEMB      36              0.0000000000
      4464        36  PMPE      H9R             9.8511661851       22.4503855282        8.1241156399  MEMB      36              0.0000000000
      4465        36  PMPE      C217            9.1156313099       20.3173854880        7.7541724350  MEMB      36              0.0000000000
      4466        36  PMPE      H17R            8.1891238789       20.8725560315        7.6750627849  MEMB      36              0.0000000000
      4467        36  PMPE      H17S            9.3190105541       19.2634848704        7.8984613240  MEMB      36              0.0000000000
      4468        36  PMPE      C210           10.2227811014       20.7003753247        6.7189814341  MEMB      36              0.0000000000
      4469        36  PMPE      H10R           10.0505105570       21.4228320149        5.8927243557  MEMB      36              0.0000000000
      4470        36  PMPE      C211           11.4837897311       19.8277371061        6.5233554516  MEMB      36              0.0000000000
      4471        36  PMPE      H11R           11.3971067715       19.3785354851        5.5109201692  MEMB      36              0.0000000000
      4472        36  PMPE      H11S           11.4195713118       18.9855333472        7.2450816123  MEMB      36              0.0000000000
      4473        36  PMPE      C212           12.8127744226       20.6405189161        6.3987237432  MEMB      36              0.0000000000
      4474        36  PMPE      H12R           13.3903950495       20.4512057743        7.3286886892  MEMB      36              0.0000000000
      4475        36  PMPE      H12S           12.6840859575       21.7440214030        6.4052452227  MEMB      36              0.0000000000
      4476        36  PMPE      C213           13.6338586718       20.1885794527        5.2240544554  MEMB      36              0.0000000000
      4477        36  PMPE      H13R           14.5035828749       20.8591620116        5.0560667466  MEMB      36              0.0000000000
      4478        36  PMPE      H13S           13.0018566254       20.2910965543        4.3160974749  MEMB      36              0.0000000000
      4479        36  PMPE      C214           14.1713346157       18.7252617554        5.1847597209  MEMB      36              0.0000000000
      4480        36  PMPE      H14R           13.3995030313       17.9262611934        5.1707977566  MEMB      36              0.0000000000
      4481        36  PMPE      H14S           14.7765280642       18.5399052242        6.0978340271  MEMB      36              0.0000000000
      4482        36  PMPE      C215           15.1323141331       18.4020301397        4.0424094369  MEMB      36              0.0000000000
      4483        36  PMPE      H15R           15.4570756357       17.3419978356        4.1144031410  MEMB      36              0.0000000000
      4484        36  PMPE      H15S           16.0312867290       19.0508758858        4.1142989818  MEMB      36              0.0000000000
      4485        36  PMPE      C216           14.6178326558       18.5558856484        2.5843967353  MEMB      36              0.0000000000
      4486        36  PMPE      H16R           13.8079581557       17.7955446472        2.5669023073  MEMB      36              0.0000000000
      4487        36  PMPE      H16S           14.2104050341       19.5833290787        2.4717750439  MEMB      36              0.0000000000
      4488        36  PMPE      H16T           15.3657226236       18.3570381566        1.7872502649  MEMB      36              0.0000000000
      4489        36  PMPE      C33            15.3072811248       22.8862516007       12.7419452887  MEMB      36              0.0000000000
      4490        36  PMPE      H3X            15.9877509523       22.0234472460       12.5780837063  MEMB      36              0.0000000000
      4491        36  PMPE      H3Y            15.7015798522       23.1902633890       13.7351351826  MEMB      36              0.0000000000
      4492        36  PMPE      C34            15.6158093566       23.7562392932       11.5158643442  MEMB      36              0.0000000000
      4493        36  PMPE      H4X            16.6932654607       24.0271204407       11.5101769090  MEMB      36              0.0000000000
      4494        36  PMPE      H4Y            15.0436065516       24.7012128673       11.6338882443  MEMB      36              0.0000000000
      4495        36  PMPE      C35            15.2080505607       23.0114623331       10.2127311256  MEMB      36              0.0000000000
      4496        36  PMPE      H5X            14.1361320324       23.2504421674       10.0448013138  MEMB      36              0.0000000000
      4497        36  PMPE      H5Y            15.3459272784       21.9410452020       10.4763941819  MEMB      36              0.0000000000
      4498        36  PMPE      C36            15.8236418240       23.5226195286        8.9756930897  MEMB      36              0.0000000000
      4499        36  PMPE      H6X            16.8990692070       23.2695963902        9.0929820254  MEMB      36              0.0000000000
      4500        36  PMPE      H6Y            15.8206365740       24.6321444199        8.9185407127  MEMB      36              0.0000000000
      4501        36  PMPE      C37            15.1334522126       22.8704443942        7.7483598278  MEMB      36              0.0000000000
      4502        36  PMPE      H7X            14.0350656763       22.9869570691        7.8679122587  MEMB      36              0.0000000000
      4503        36  PMPE      H7Y            15.3610793866       21.7858854084        7.8273444903  MEMB      36              0.0000000000
      4504        36  PMPE      C38            15.5939994011       23.3591844540        6.3218812781  MEMB      36              0.0000000000
      4505        36  PMPE      H8X            15.2355711757       22.7354383360        5.4752467643  MEMB      36              0.0000000000
      4506        36  PMPE      H8Y            16.6950345943       23.2822244776        6.1949186994  MEMB      36              0.0000000000
      4507        36  PMPE      C39            15.4931962447       24.9214006901        5.9353732657  MEMB      36              0.0000000000
      4508        36  PMPE      H9X            15.9877831509       24.9579781508        4.9412066664  MEMB      36              0.0000000000
      4509        36  PMPE      H9Y            16.2138296250       25.3398603342        6.6701526190  MEMB      36              0.0000000000
      4510        36  PMPE      C310           14.0776967638       25.4979082824        6.0412563618  MEMB      36              0.0000000000
      4511        36  PMPE      H10X           13.8549041099       26.4666434123        5.5450344339  MEMB      36              0.0000000000
      4512        36  PMPE      H10Y           13.9486766167       25.7228470363        7.1215702380  MEMB      36              0.0000000000
      4513        36  PMPE      C311           12.9442780656       24.5320300804        5.7080802490  MEMB      36              0.0000000000
      4514        36  PMPE      H11X           12.9365911503       23.7937225099        6.5382394174  MEMB      36              0.0000000000
      4515        36  PMPE      H11Y           13.2132654875       24.0226291622        4.7580920962  MEMB      36              0.0000000000
      4516        36  PMPE      C312           11.5407460910       25.1845505815        5.6302567788  MEMB      36              0.0000000000
      4517        36  PMPE      H12X           11.7770827482       26.1825333067        5.2030603493  MEMB      36              0.0000000000
      4518        36  PMPE      H12Y           11.0855015130       25.2499838317        6.6415882607  MEMB      36              0.0000000000
      4519        36  PMPE      C313           10.5960147857       24.3126614669        4.6965213654  MEMB      36              0.0000000000
      4520        36  PMPE      H13X            9.5844630450       24.7716285674        4.6757022446  MEMB      36              0.0000000000
      4521        36  PMPE      H13Y           10.4376168109       23.4151400795        5.3318849142  MEMB      36              0.0000000000
      4522        36  PMPE      C314           11.0292360896       24.1959252588        3.2876147277  MEMB      36              0.0000000000
      4523        36  PMPE      H14X           12.0148673689       23.7199065743        3.0971985757  MEMB      36              0.0000000000
      4524        36  PMPE      H14Y           11.1123116688       25.2415994627        2.9215753692  MEMB      36              0.0000000000
      4525        36  PMPE      C315           10.1623668181       23.3765917273        2.3363235427  MEMB      36              0.0000000000
      4526        36  PMPE      H15X           10.7022958347       23.4554645144        1.3685535611  MEMB      36              0.0000000000
      4527        36  PMPE      H15Y            9.2299669450       23.9801774566        2.3111114575  MEMB      36              0.0000000000
      4528        36  PMPE      C316            9.8174333772       21.9104078517        2.6983527774  MEMB      36              0.0000000000
      4529        36  PMPE      H16X            9.0172431373       21.6065406219        1.9900569640  MEMB      36              0.0000000000
      4530        36  PMPE      H16Y            9.4102109453       21.9072759741        3.7320258446  MEMB      36              0.0000000000
      4531        36  PMPE      H16Z           10.7140840285       21.2544934907        2.6876322170  MEMB      36              0.0000000000
      4532        37  POPE      N             -19.7757368901       14.6443074005       20.4238906461  MEMB      37              0.0000000000
      4533        37  POPE      HN1           -20.4269871611       14.0316296773       20.9550205327  MEMB      37              0.0000000000
      4534        37  POPE      HN2           -18.8364362202       14.2575421356       20.6468862981  MEMB      37              0.0000000000
      4535        37  POPE      HN3           -19.8459645215       15.6192277909       20.7791346917  MEMB      37              0.0000000000
      4536        37  POPE      C12           -20.0977746495       14.6976748790       18.9298810419  MEMB      37              0.0000000000
      4537        37  POPE      H12A          -19.6045116885       13.8150063864       18.4695450918  MEMB      37              0.0000000000
      4538        37  POPE      H12B          -19.5696597815       15.5444634456       18.4416547074  MEMB      37              0.0000000000
      4539        37  POPE      C11           -21.5990564471       14.7883786773       18.6130072144  MEMB      37              0.0000000000
      4540        37  POPE      H11A          -21.6896724978       14.6221685241       17.5182542717  MEMB      37              0.0000000000
      4541        37  POPE      H11B          -21.9603061894       15.8286427345       18.7602162403  MEMB      37              0.0000000000
      4542        37  POPE      P             -23.9029552429       13.4683335749       18.8701154083  MEMB      37              0.0000000000
      4543        37  POPE      O13           -24.8057698259       14.5108286169       19.3364386361  MEMB      37              0.0000000000
      4544        37  POPE      O14           -24.2053767312       12.0559325382       19.2306265611  MEMB      37              0.0000000000
      4545        37  POPE      O11           -23.8834533812       13.6133801020       17.3000806928  MEMB      37              0.0000000000
      4546        37  POPE      O12           -22.3986896316       13.8291786103       19.2959598011  MEMB      37              0.0000000000
      4547        37  POPE      C1            -23.3985836221       12.6117009136       16.4931924433  MEMB      37              0.0000000000
      4548        37  POPE      HA            -23.9134572842       11.6402991808       16.6532068794  MEMB      37              0.0000000000
      4549        37  POPE      HB            -22.3152971736       12.4473229382       16.6770169158  MEMB      37              0.0000000000
      4550        37  POPE      C2            -23.6811394419       12.9426473220       15.0046419811  MEMB      37              0.0000000000
      4551        37  POPE      HS            -23.2044579309       12.2515586542       14.2769797247  MEMB      37              0.0000000000
      4552        37  POPE      O21           -23.2896211956       14.2948856788       14.7405646682  MEMB      37              0.0000000000
      4553        37  POPE      C21           -21.9912082954       14.5356539465       14.8151679566  MEMB      37              0.0000000000
      4554        37  POPE      O22           -21.1147317363       13.6645219965       15.0308715567  MEMB      37              0.0000000000
      4555        37  POPE      C22           -21.6645634223       16.0008605689       14.4598561225  MEMB      37              0.0000000000
      4556        37  POPE      H2R           -20.5570229168       16.0580431468       14.3934844322  MEMB      37              0.0000000000
      4557        37  POPE      H2S           -21.9878089273       16.6360645316       15.3121175544  MEMB      37              0.0000000000
      4558        37  POPE      C3            -25.1878336142       12.8670141211       14.7314390961  MEMB      37              0.0000000000
      4559        37  POPE      HX            -25.5972581443       13.2864994320       15.6752211438  MEMB      37              0.0000000000
      4560        37  POPE      HY            -25.3823889346       11.7957443059       14.5104190070  MEMB      37              0.0000000000
      4561        37  POPE      O31           -25.4860330519       13.4711962818       13.4598624656  MEMB      37              0.0000000000
      4562        37  POPE      C31           -26.0600238325       14.6233240762       13.2175220204  MEMB      37              0.0000000000
      4563        37  POPE      O32           -26.4261368356       15.4314368432       13.9732156238  MEMB      37              0.0000000000
      4564        37  POPE      C32           -25.9024580313       14.9280333906       11.7349428397  MEMB      37              0.0000000000
      4565        37  POPE      H2X           -25.7366541156       13.9350408182       11.2650536864  MEMB      37              0.0000000000
      4566        37  POPE      H2Y           -25.0651859469       15.6553103036       11.6688763763  MEMB      37              0.0000000000
      4567        37  POPE      C23           -22.4518248783       16.3270627809       13.1720395692  MEMB      37              0.0000000000
      4568        37  POPE      H3R           -22.1607457458       17.3798449966       12.9689553586  MEMB      37              0.0000000000
      4569        37  POPE      H3S           -23.5232412237       16.0331552529       13.1745503292  MEMB      37              0.0000000000
      4570        37  POPE      C24           -21.8539914296       15.5407502363       11.9590415120  MEMB      37              0.0000000000
      4571        37  POPE      H4R           -22.2305686202       14.4961557518       11.9225336057  MEMB      37              0.0000000000
      4572        37  POPE      H4S           -20.7619925403       15.5199525669       12.1625770977  MEMB      37              0.0000000000
      4573        37  POPE      C25           -22.1603201930       16.1870402841       10.6205394939  MEMB      37              0.0000000000
      4574        37  POPE      H5R           -21.4862404517       17.0687098983       10.5695886395  MEMB      37              0.0000000000
      4575        37  POPE      H5S           -23.1768337031       16.6262367683       10.7106934497  MEMB      37              0.0000000000
      4576        37  POPE      C26           -22.0783552241       15.3464601328        9.3341663245  MEMB      37              0.0000000000
      4577        37  POPE      H6R           -21.0146098935       15.1383736258        9.0903081021  MEMB      37              0.0000000000
      4578        37  POPE      H6S           -22.4568461604       16.0419661917        8.5548488993  MEMB      37              0.0000000000
      4579        37  POPE      C27           -22.9511022319       14.0131507326        9.3332282567  MEMB      37              0.0000000000
      4580        37  POPE      H7R           -23.8808499472       14.3508477159        9.8390449757  MEMB      37              0.0000000000
      4581        37  POPE      H7S           -22.5594878467       13.3098373777       10.0989371134  MEMB      37              0.0000000000
      4582        37  POPE      C28           -23.3149104346       13.3190857112        8.0239027233  MEMB      37              0.0000000000
      4583        37  POPE      H8R           -24.0164128196       13.9958980981        7.4908549411  MEMB      37              0.0000000000
      4584        37  POPE      H8S           -23.9464669625       12.4507713415        8.3093616774  MEMB      37              0.0000000000
      4585        37  POPE      C29           -22.0857806191       12.9360804909        7.2660264085  MEMB      37              0.0000000000
      4586        37  POPE      H91           -21.3839967013       12.3078744288        7.8342314063  MEMB      37              0.0000000000
      4587        37  POPE      C210          -21.8071230603       13.1743286982        5.9894766688  MEMB      37              0.0000000000
      4588        37  POPE      H101          -21.0046576524       12.6392002003        5.4606229495  MEMB      37              0.0000000000
      4589        37  POPE      C211          -22.6732790809       13.9973100544        5.0213970461  MEMB      37              0.0000000000
      4590        37  POPE      H11R          -22.0450945151       14.7105014473        4.4460150269  MEMB      37              0.0000000000
      4591        37  POPE      H11S          -23.3298124792       14.6691575055        5.6146130662  MEMB      37              0.0000000000
      4592        37  POPE      C212          -23.4824911382       13.0655668844        4.1542817071  MEMB      37              0.0000000000
      4593        37  POPE      H12R          -24.3203809772       12.6559590122        4.7580051449  MEMB      37              0.0000000000
      4594        37  POPE      H12S          -22.7566262471       12.2791211787        3.8560467545  MEMB      37              0.0000000000
      4595        37  POPE      C213          -24.0373115090       13.6318909359        2.7668846999  MEMB      37              0.0000000000
      4596        37  POPE      H13R          -24.9241506530       14.3001379553        2.8027095574  MEMB      37              0.0000000000
      4597        37  POPE      H13S          -24.3154035278       12.6454674236        2.3379861794  MEMB      37              0.0000000000
      4598        37  POPE      C214          -22.9687119600       14.3007927101        2.0709871376  MEMB      37              0.0000000000
      4599        37  POPE      H14R          -22.0436499812       13.6880750270        2.1271875669  MEMB      37              0.0000000000
      4600        37  POPE      H14S          -22.7836905161       15.2426649744        2.6304191086  MEMB      37              0.0000000000
      4601        37  POPE      C215          -23.2767190029       14.5177252931        0.6185953796  MEMB      37              0.0000000000
      4602        37  POPE      H15R          -23.5695559338       13.5690034287        0.1201029149  MEMB      37              0.0000000000
      4603        37  POPE      H15S          -22.4170291824       14.9976251110        0.1038617319  MEMB      37              0.0000000000
      4604        37  POPE      C216          -24.5224536228       15.3728267070        0.4254226591  MEMB      37              0.0000000000
      4605        37  POPE      H16R          -25.3710303536       14.8015248450        0.8588416050  MEMB      37              0.0000000000
      4606        37  POPE      H16S          -24.8030232391       15.4597813788       -0.6460434619  MEMB      37              0.0000000000
      4607        37  POPE      C217          -24.4167815537       16.7987039710        1.1085326254  MEMB      37              0.0000000000
      4608        37  POPE      H17R          -23.4396203530       17.2010617756        0.7656243130  MEMB      37              0.0000000000
      4609        37  POPE      H17S          -24.1548585041       16.6576035886        2.1789565651  MEMB      37              0.0000000000
      4610        37  POPE      C218          -25.7011811204       17.7249353832        1.0108606175  MEMB      37              0.0000000000
      4611        37  POPE      H18R          -26.5470033725       17.1339325608        1.4227132997  MEMB      37              0.0000000000
      4612        37  POPE      H18S          -25.9012888448       18.1161089847       -0.0095618049  MEMB      37              0.0000000000
      4613        37  POPE      H18T          -25.5770032975       18.6020632953        1.6813435054  MEMB      37              0.0000000000
      4614        37  POPE      C33           -27.2079549149       15.4475097622       11.2074310783  MEMB      37              0.0000000000
      4615        37  POPE      H3X           -27.5342483067       16.3829585535       11.7102125364  MEMB      37              0.0000000000
      4616        37  POPE      H3Y           -27.9477521014       14.6371713008       11.3817097573  MEMB      37              0.0000000000
      4617        37  POPE      C34           -27.1570267213       15.4781384278        9.6636370521  MEMB      37              0.0000000000
      4618        37  POPE      H4X           -28.1845002746       15.5537261078        9.2478186078  MEMB      37              0.0000000000
      4619        37  POPE      H4Y           -26.6766309485       14.5963866275        9.1881857259  MEMB      37              0.0000000000
      4620        37  POPE      C35           -26.2035522763       16.5923592612        9.0934276216  MEMB      37              0.0000000000
      4621        37  POPE      H5X           -25.1856654602       16.4214076094        9.5045280667  MEMB      37              0.0000000000
      4622        37  POPE      H5Y           -26.5895729517       17.5401843945        9.5257891611  MEMB      37              0.0000000000
      4623        37  POPE      C36           -26.1936753834       16.8252247309        7.5594312987  MEMB      37              0.0000000000
      4624        37  POPE      H6X           -27.2756066694       16.7048318390        7.3375047447  MEMB      37              0.0000000000
      4625        37  POPE      H6Y           -25.5421309426       16.0128072762        7.1724057442  MEMB      37              0.0000000000
      4626        37  POPE      C37           -25.7745465234       18.2563508273        7.2041766100  MEMB      37              0.0000000000
      4627        37  POPE      H7X           -26.3955336799       19.1246883747        7.5118876749  MEMB      37              0.0000000000
      4628        37  POPE      H7Y           -25.8858849714       18.3290738086        6.1011642064  MEMB      37              0.0000000000
      4629        37  POPE      C38           -24.3287986820       18.6836728413        7.6438269389  MEMB      37              0.0000000000
      4630        37  POPE      H8X           -24.0613379384       18.2611643189        8.6359323204  MEMB      37              0.0000000000
      4631        37  POPE      H8Y           -24.4176836748       19.7836059020        7.7725422278  MEMB      37              0.0000000000
      4632        37  POPE      C39           -23.2103996055       18.3093501282        6.6228043581  MEMB      37              0.0000000000
      4633        37  POPE      H9X           -23.5581836946       18.5754274122        5.6017408020  MEMB      37              0.0000000000
      4634        37  POPE      H9Y           -23.3819832917       17.2265008838        6.4430337167  MEMB      37              0.0000000000
      4635        37  POPE      C310          -21.7801544523       18.7449838436        6.9777618513  MEMB      37              0.0000000000
      4636        37  POPE      H10X          -21.6275033109       18.3331240550        7.9982474622  MEMB      37              0.0000000000
      4637        37  POPE      H10Y          -21.8124076531       19.8506502025        7.0815998671  MEMB      37              0.0000000000
      4638        37  POPE      C311          -20.7229975823       18.2382389919        5.9943977258  MEMB      37              0.0000000000
      4639        37  POPE      H11X          -20.7460090224       17.1325019299        6.0999289141  MEMB      37              0.0000000000
      4640        37  POPE      H11Y          -19.7678920758       18.6911400217        6.3364138225  MEMB      37              0.0000000000
      4641        37  POPE      C312          -21.0161312736       18.5683696835        4.5844018516  MEMB      37              0.0000000000
      4642        37  POPE      H12X          -21.2793095275       19.6459286072        4.5217534714  MEMB      37              0.0000000000
      4643        37  POPE      H12Y          -21.9172234860       18.0773233135        4.1586939186  MEMB      37              0.0000000000
      4644        37  POPE      C313          -19.7761297738       18.4217304598        3.5777975220  MEMB      37              0.0000000000
      4645        37  POPE      H13X          -18.8091590577       18.8789150550        3.8782480370  MEMB      37              0.0000000000
      4646        37  POPE      H13Y          -19.9477432210       19.1214079981        2.7320302342  MEMB      37              0.0000000000
      4647        37  POPE      C314          -19.6693425428       16.9882287619        3.1386127215  MEMB      37              0.0000000000
      4648        37  POPE      H14X          -20.5072636444       16.7257621204        2.4579358713  MEMB      37              0.0000000000
      4649        37  POPE      H14Y          -19.7320815853       16.3478428513        4.0443119283  MEMB      37              0.0000000000
      4650        37  POPE      C315          -18.3493177890       16.6376935543        2.4783878062  MEMB      37              0.0000000000
      4651        37  POPE      H15X          -17.6114255581       16.9213675368        3.2590062742  MEMB      37              0.0000000000
      4652        37  POPE      H15Y          -18.1578864933       17.3505984387        1.6480602340  MEMB      37              0.0000000000
      4653        37  POPE      C316          -18.2896214801       15.1001874353        2.2707601743  MEMB      37              0.0000000000
      4654        37  POPE      H16X          -18.5428610683       14.5540104990        3.2045068158  MEMB      37              0.0000000000
      4655        37  POPE      H16Y          -17.2799231779       14.7672721188        1.9482745281  MEMB      37              0.0000000000
      4656        37  POPE      H16Z          -19.0269311095       14.8130564893        1.4908556264  MEMB      37              0.0000000000
      4657        38  QMPE      N             -25.0457644599        4.8770601282       20.4223868485  MEMB      38              0.0000000000
      4658        38  QMPE      HN1           -26.0491195135        5.1389771361       20.5016222734  MEMB      38              0.0000000000
      4659        38  QMPE      HN2           -25.0619232586        4.3876121786       19.5049013791  MEMB      38              0.0000000000
      4660        38  QMPE      HN3           -25.0315700346        4.4145012085       21.3537502525  MEMB      38              0.0000000000
      4661        38  QMPE      C12           -24.2353140652        6.1531582009       20.3992675496  MEMB      38              0.0000000000
      4662        38  QMPE      H12A          -23.2852841717        5.8706552629       19.8973149958  MEMB      38              0.0000000000
      4663        38  QMPE      H12B          -24.0404054922        6.4766762022       21.4440965051  MEMB      38              0.0000000000
      4664        38  QMPE      C11           -25.0680687349        7.2278136106       19.6271077019  MEMB      38              0.0000000000
      4665        38  QMPE      H11A          -24.5203545204        8.1809471335       19.4662776116  MEMB      38              0.0000000000
      4666        38  QMPE      H11B          -25.7247467306        7.7259888250       20.3720348329  MEMB      38              0.0000000000
      4667        38  QMPE      P             -27.2603191623        7.0100105232       18.3574668254  MEMB      38              0.0000000000
      4668        38  QMPE      O13           -27.6709310674        8.3903975093       18.2058210471  MEMB      38              0.0000000000
      4669        38  QMPE      O14           -27.7055030326        6.2608954623       19.5178411624  MEMB      38              0.0000000000
      4670        38  QMPE      O11           -27.5493687009        6.1830070543       17.0121615538  MEMB      38              0.0000000000
      4671        38  QMPE      O12           -25.7934379638        6.7536482947       18.4579473151  MEMB      38              0.0000000000
      4672        38  QMPE      C1            -26.5023575773        5.3173373889       16.5165439648  MEMB      38              0.0000000000
      4673        38  QMPE      HA            -26.3987573563        4.4107347011       17.1503101715  MEMB      38              0.0000000000
      4674        38  QMPE      HB            -25.5070783330        5.8080348752       16.4621734431  MEMB      38              0.0000000000
      4675        38  QMPE      C2            -26.8265908478        4.9897435114       15.0825596364  MEMB      38              0.0000000000
      4676        38  QMPE      HS            -25.9058335896        4.6558481214       14.5581160368  MEMB      38              0.0000000000
      4677        38  QMPE      O21           -27.2923762916        6.1372086388       14.2970082712  MEMB      38              0.0000000000
      4678        38  QMPE      C21           -26.4523172576        7.1927998454       14.1622745549  MEMB      38              0.0000000000
      4679        38  QMPE      O22           -25.2604460183        7.0488755633       14.2027066872  MEMB      38              0.0000000000
      4680        38  QMPE      C22           -27.1351891702        8.4863985829       13.8280260453  MEMB      38              0.0000000000
      4681        38  QMPE      H2R           -27.4973648643        8.8963689708       14.7950182568  MEMB      38              0.0000000000
      4682        38  QMPE      H2S           -28.0378484071        8.2327819962       13.2320346114  MEMB      38              0.0000000000
      4683        38  QMPE      C3            -27.8884149492        3.9422223644       15.0542033855  MEMB      38              0.0000000000
      4684        38  QMPE      HX            -28.8313966785        4.3204135147       15.5037340799  MEMB      38              0.0000000000
      4685        38  QMPE      HY            -27.6252915691        2.9920436920       15.5663043697  MEMB      38              0.0000000000
      4686        38  QMPE      O31           -28.3338939679        3.6195551026       13.6786471534  MEMB      38              0.0000000000
      4687        38  QMPE      C31           -27.3286587806        2.9595558870       13.0055526244  MEMB      38              0.0000000000
      4688        38  QMPE      O32           -26.2527176642        2.5755707199       13.4038985452  MEMB      38              0.0000000000
      4689        38  QMPE      C32           -27.8141465144        2.7721123498       11.5477805727  MEMB      38              0.0000000000
      4690        38  QMPE      H2X           -27.3871830556        1.8429808023       11.1133413513  MEMB      38              0.0000000000
      4691        38  QMPE      H2Y           -28.9023502957        2.6282756568       11.3761883835  MEMB      38              0.0000000000
      4692        38  QMPE      C23           -26.0803500811        9.4750710077       13.1425614396  MEMB      38              0.0000000000
      4693        38  QMPE      H3R           -25.7258320766        8.8464433055       12.2978928336  MEMB      38              0.0000000000
      4694        38  QMPE      H3S           -25.2233801056        9.5424898847       13.8463924204  MEMB      38              0.0000000000
      4695        38  QMPE      C24           -26.5693570377       10.8567204436       12.8938593132  MEMB      38              0.0000000000
      4696        38  QMPE      H4R           -25.7316553754       11.4005827098       12.4072476021  MEMB      38              0.0000000000
      4697        38  QMPE      H4S           -26.8656503454       11.4010291055       13.8159543065  MEMB      38              0.0000000000
      4698        38  QMPE      C25           -27.8803200487       10.8767361355       12.0436493854  MEMB      38              0.0000000000
      4699        38  QMPE      H5R           -28.1222352439       11.9571450032       11.9513759991  MEMB      38              0.0000000000
      4700        38  QMPE      H5S           -28.7220267542       10.4006576699       12.5906412454  MEMB      38              0.0000000000
      4701        38  QMPE      C26           -27.7896224485       10.1588787172       10.6256693917  MEMB      38              0.0000000000
      4702        38  QMPE      H6R           -28.6943342568       10.1905678129        9.9816094931  MEMB      38              0.0000000000
      4703        38  QMPE      H6S           -27.5323404131        9.1363279783       10.9756937421  MEMB      38              0.0000000000
      4704        38  QMPE      C27           -26.7319523715       10.8183533261        9.7148537439  MEMB      38              0.0000000000
      4705        38  QMPE      H7R           -25.8642127925       11.0625398951       10.3642547806  MEMB      38              0.0000000000
      4706        38  QMPE      H7S           -27.3478918726       11.7096593609        9.4688598907  MEMB      38              0.0000000000
      4707        38  QMPE      C28           -26.3438108724       10.0243419169        8.4569262546  MEMB      38              0.0000000000
      4708        38  QMPE      H8R           -25.5118795969       10.4326278945        7.8441340828  MEMB      38              0.0000000000
      4709        38  QMPE      H8S           -27.2549493174        9.8891315028        7.8357449954  MEMB      38              0.0000000000
      4710        38  QMPE      C29           -25.8148603416        8.6939135270        8.9465157779  MEMB      38              0.0000000000
      4711        38  QMPE      H9R           -26.4634074320        8.0252888320        9.5520314484  MEMB      38              0.0000000000
      4712        38  QMPE      C217          -24.2701843232        8.6552585779        9.3285918860  MEMB      38              0.0000000000
      4713        38  QMPE      H17R          -23.8402190682        9.6356013953        9.1644375793  MEMB      38              0.0000000000
      4714        38  QMPE      H17S          -24.0627174898        8.0155556876       10.1774887061  MEMB      38              0.0000000000
      4715        38  QMPE      C210          -24.8479858152        7.9514216910        8.0712445679  MEMB      38              0.0000000000
      4716        38  QMPE      H10R          -24.7412169695        6.8623591148        8.2632458679  MEMB      38              0.0000000000
      4717        38  QMPE      C211          -24.4938076659        8.4521154029        6.6876846793  MEMB      38              0.0000000000
      4718        38  QMPE      H11R          -25.3158230017        8.9277225396        6.1111348757  MEMB      38              0.0000000000
      4719        38  QMPE      H11S          -23.7025111784        9.2275982086        6.7701289943  MEMB      38              0.0000000000
      4720        38  QMPE      C212          -23.8083350125        7.3062776056        5.8605514838  MEMB      38              0.0000000000
      4721        38  QMPE      H12R          -24.4228720085        6.4119790645        6.0990792857  MEMB      38              0.0000000000
      4722        38  QMPE      H12S          -22.7320686537        7.1608703602        6.0947055986  MEMB      38              0.0000000000
      4723        38  QMPE      C213          -23.9675018808        7.4276293509        4.4024520325  MEMB      38              0.0000000000
      4724        38  QMPE      H13R          -23.4057744593        8.3138420447        4.0371976747  MEMB      38              0.0000000000
      4725        38  QMPE      H13S          -25.0601424593        7.5801347919        4.2713038159  MEMB      38              0.0000000000
      4726        38  QMPE      C214          -23.4636544800        6.1832207713        3.5456236739  MEMB      38              0.0000000000
      4727        38  QMPE      H14R          -23.9697394644        5.2390229940        3.8400547719  MEMB      38              0.0000000000
      4728        38  QMPE      H14S          -22.3954830197        6.0161020575        3.8013621110  MEMB      38              0.0000000000
      4729        38  QMPE      C215          -23.6820294075        6.3017901115        1.9833851659  MEMB      38              0.0000000000
      4730        38  QMPE      H15R          -24.7791086186        6.1778215041        1.8594086026  MEMB      38              0.0000000000
      4731        38  QMPE      H15S          -23.1614008824        5.4015280729        1.5924931583  MEMB      38              0.0000000000
      4732        38  QMPE      C216          -23.2510421948        7.6334134210        1.3820722014  MEMB      38              0.0000000000
      4733        38  QMPE      H16R          -23.9356582593        8.4393881223        1.7226990755  MEMB      38              0.0000000000
      4734        38  QMPE      H16S          -23.3463321034        7.9734726666        0.3286961884  MEMB      38              0.0000000000
      4735        38  QMPE      H16T          -22.1749387790        7.8368172778        1.5690204204  MEMB      38              0.0000000000
      4736        38  QMPE      C33           -27.3251663991        3.9996256066       10.7435581242  MEMB      38              0.0000000000
      4737        38  QMPE      H3X           -26.2688402410        3.7518026928       10.5046440360  MEMB      38              0.0000000000
      4738        38  QMPE      H3Y           -27.4978860063        4.9144452241       11.3498535094  MEMB      38              0.0000000000
      4739        38  QMPE      C34           -28.2470194854        4.2111484144        9.5148035142  MEMB      38              0.0000000000
      4740        38  QMPE      H4X           -29.2452240707        4.4814497942        9.9208152992  MEMB      38              0.0000000000
      4741        38  QMPE      H4Y           -28.5142643338        3.2595058938        9.0075781566  MEMB      38              0.0000000000
      4742        38  QMPE      C35           -27.6876898630        5.1800174933        8.4660864960  MEMB      38              0.0000000000
      4743        38  QMPE      H5X           -26.7824012298        4.6728794905        8.0691173952  MEMB      38              0.0000000000
      4744        38  QMPE      H5Y           -27.3347661733        6.1274138865        8.9267443062  MEMB      38              0.0000000000
      4745        38  QMPE      C36           -28.5519812193        5.5750542581        7.2851032236  MEMB      38              0.0000000000
      4746        38  QMPE      H6X           -29.4707258030        6.1239695301        7.5832997045  MEMB      38              0.0000000000
      4747        38  QMPE      H6Y           -28.9401563985        4.6422864400        6.8229504645  MEMB      38              0.0000000000
      4748        38  QMPE      C37           -27.8300425066        6.3955017013        6.2664271933  MEMB      38              0.0000000000
      4749        38  QMPE      H7X           -27.2814491154        7.3019663557        6.6006243069  MEMB      38              0.0000000000
      4750        38  QMPE      H7Y           -26.9918668152        5.7389818097        5.9489934859  MEMB      38              0.0000000000
      4751        38  QMPE      C38           -28.7235389664        6.8652305645        5.1250906983  MEMB      38              0.0000000000
      4752        38  QMPE      H8X           -29.1691311851        5.9899185232        4.6058636970  MEMB      38              0.0000000000
      4753        38  QMPE      H8Y           -29.5890321298        7.4346662974        5.5263214167  MEMB      38              0.0000000000
      4754        38  QMPE      C39           -27.9802240021        7.8670823896        4.1839615390  MEMB      38              0.0000000000
      4755        38  QMPE      H9X           -27.0692904346        7.4486242765        3.7049891945  MEMB      38              0.0000000000
      4756        38  QMPE      H9Y           -27.8389111590        8.8140521967        4.7475217444  MEMB      38              0.0000000000
      4757        38  QMPE      C310          -28.8390091118        8.3130990311        2.9676584270  MEMB      38              0.0000000000
      4758        38  QMPE      H10X          -29.4658964848        9.2024773999        3.1920211820  MEMB      38              0.0000000000
      4759        38  QMPE      H10Y          -29.5635390996        7.5126269325        2.7057015382  MEMB      38              0.0000000000
      4760        38  QMPE      C311          -27.9385007583        8.8626208535        1.7085964474  MEMB      38              0.0000000000
      4761        38  QMPE      H11X          -28.5631257877        8.8566840234        0.7898308086  MEMB      38              0.0000000000
      4762        38  QMPE      H11Y          -27.0722658512        8.1688829384        1.6567717275  MEMB      38              0.0000000000
      4763        38  QMPE      C312          -27.3712035898       10.2803061685        1.9673269645  MEMB      38              0.0000000000
      4764        38  QMPE      H12X          -26.6071847008       10.1651621486        2.7656616300  MEMB      38              0.0000000000
      4765        38  QMPE      H12Y          -28.1657866216       10.9344718671        2.3856886353  MEMB      38              0.0000000000
      4766        38  QMPE      C313          -26.7549326076       11.0430007480        0.7691176941  MEMB      38              0.0000000000
      4767        38  QMPE      H13X          -27.5485782452       11.2089720950        0.0095772831  MEMB      38              0.0000000000
      4768        38  QMPE      H13Y          -26.2786585248       12.0003531767        1.0707137442  MEMB      38              0.0000000000
      4769        38  QMPE      C314          -25.5463787232       10.3881553336        0.0851181903  MEMB      38              0.0000000000
      4770        38  QMPE      H14X          -25.8579277423        9.3717212881       -0.2375577638  MEMB      38              0.0000000000
      4771        38  QMPE      H14Y          -24.6731466253       10.2106994753        0.7486671828  MEMB      38              0.0000000000
      4772        38  QMPE      C315          -24.9952880810       11.2751461320       -1.0817320575  MEMB      38              0.0000000000
      4773        38  QMPE      H15X          -24.7925411364       12.2521052291       -0.5930968452  MEMB      38              0.0000000000
      4774        38  QMPE      H15Y          -23.9414473880       11.0255186774       -1.3295759123  MEMB      38              0.0000000000
      4775        38  QMPE      H15Z          -25.5789906888       11.4083122202       -2.0176161261  MEMB      38              0.0000000000
      4776        39  PMPE      N             -25.6535717788       -7.2383313056       20.7170194098  MEMB      39              0.0000000000
      4777        39  PMPE      HN1           -26.1941633614       -7.2000214698       21.6046527487  MEMB      39              0.0000000000
      4778        39  PMPE      HN2           -24.9250637184       -6.4963910999       20.6969998573  MEMB      39              0.0000000000
      4779        39  PMPE      HN3           -26.2699670556       -7.1831576847       19.8811887818  MEMB      39              0.0000000000
      4780        39  PMPE      C12           -25.0260173837       -8.5873404061       20.5635811973  MEMB      39              0.0000000000
      4781        39  PMPE      H12A          -25.8982443113       -9.2743270001       20.5236982087  MEMB      39              0.0000000000
      4782        39  PMPE      H12B          -24.4841856185       -8.8187518762       21.5054877833  MEMB      39              0.0000000000
      4783        39  PMPE      C11           -24.2578477077       -8.8660160352       19.2457242908  MEMB      39              0.0000000000
      4784        39  PMPE      H11A          -23.2022031721       -8.5328183385       19.3401434127  MEMB      39              0.0000000000
      4785        39  PMPE      H11B          -24.6924296701       -8.3799050605       18.3461935431  MEMB      39              0.0000000000
      4786        39  PMPE      P             -25.4295412213      -10.9970318120       18.3119475900  MEMB      39              0.0000000000
      4787        39  PMPE      O13           -26.6894442053      -10.1748247981       18.2738762840  MEMB      39              0.0000000000
      4788        39  PMPE      O14           -25.5569473639      -12.3252377884       19.0041376359  MEMB      39              0.0000000000
      4789        39  PMPE      O11           -24.9305149127      -11.2757290643       16.8364334526  MEMB      39              0.0000000000
      4790        39  PMPE      O12           -24.2410410243      -10.2509709474       19.0472801394  MEMB      39              0.0000000000
      4791        39  PMPE      C1            -24.2937706687      -10.1972646022       16.0985607143  MEMB      39              0.0000000000
      4792        39  PMPE      HA            -23.4962700471      -10.6180335908       15.4495098037  MEMB      39              0.0000000000
      4793        39  PMPE      HB            -23.7712743216       -9.4726850874       16.7590931138  MEMB      39              0.0000000000
      4794        39  PMPE      C2            -25.3366666816       -9.3868844846       15.2670286076  MEMB      39              0.0000000000
      4795        39  PMPE      HS            -25.7735443312       -8.5939102819       15.9109624552  MEMB      39              0.0000000000
      4796        39  PMPE      O21           -26.1443043716      -10.4174018490       14.6855340891  MEMB      39              0.0000000000
      4797        39  PMPE      C21           -27.3633179662       -9.9174758393       14.3968414813  MEMB      39              0.0000000000
      4798        39  PMPE      O22           -27.7227077186       -8.7364379983       14.4106272882  MEMB      39              0.0000000000
      4799        39  PMPE      C22           -28.2425236709      -11.1127351591       13.9001261409  MEMB      39              0.0000000000
      4800        39  PMPE      H2R           -29.2695861216      -10.7546751137       14.1265248450  MEMB      39              0.0000000000
      4801        39  PMPE      H2S           -27.8357702843      -11.9383251914       14.5224392226  MEMB      39              0.0000000000
      4802        39  PMPE      C3            -24.5902624888       -8.5364725502       14.0999268680  MEMB      39              0.0000000000
      4803        39  PMPE      HX            -24.1905466217       -7.6327921501       14.6077752872  MEMB      39              0.0000000000
      4804        39  PMPE      HY            -25.4185184015       -8.1955489479       13.4425957674  MEMB      39              0.0000000000
      4805        39  PMPE      O31           -23.5234252609       -9.2884903563       13.5045195813  MEMB      39              0.0000000000
      4806        39  PMPE      C31           -23.4444058399       -9.1037904517       12.1719442088  MEMB      39              0.0000000000
      4807        39  PMPE      O32           -24.0452703372       -8.3314906208       11.5359875043  MEMB      39              0.0000000000
      4808        39  PMPE      C32           -22.3521203134      -10.0345329903       11.6559030720  MEMB      39              0.0000000000
      4809        39  PMPE      H2X           -21.5542940387      -10.0447420774       12.4290073358  MEMB      39              0.0000000000
      4810        39  PMPE      H2Y           -21.8376159518       -9.7942663899       10.7009804232  MEMB      39              0.0000000000
      4811        39  PMPE      C23           -27.8315064597      -11.4752221691       12.4558754947  MEMB      39              0.0000000000
      4812        39  PMPE      H3R           -26.7331389653      -11.5886211012       12.3331948562  MEMB      39              0.0000000000
      4813        39  PMPE      H3S           -28.0754174246      -10.5774877779       11.8485030868  MEMB      39              0.0000000000
      4814        39  PMPE      C24           -28.5437362398      -12.6990602620       11.8736511343  MEMB      39              0.0000000000
      4815        39  PMPE      H4R           -28.5974207237      -13.5934359996       12.5305611495  MEMB      39              0.0000000000
      4816        39  PMPE      H4S           -27.9817150214      -12.9791143622       10.9571232648  MEMB      39              0.0000000000
      4817        39  PMPE      C25           -29.9964512861      -12.3909796853       11.4802209534  MEMB      39              0.0000000000
      4818        39  PMPE      H5R           -30.5427112705      -11.9273008880       12.3292934750  MEMB      39              0.0000000000
      4819        39  PMPE      H5S           -30.5623820254      -13.3231026371       11.2676410383  MEMB      39              0.0000000000
      4820        39  PMPE      C26           -30.1883497496      -11.3685655627       10.2803287411  MEMB      39              0.0000000000
      4821        39  PMPE      H6R           -29.9004603456      -10.3446751272       10.6014027549  MEMB      39              0.0000000000
      4822        39  PMPE      H6S           -31.2790637476      -11.3896311374       10.0700428766  MEMB      39              0.0000000000
      4823        39  PMPE      C27           -29.4848882219      -11.7296489462        8.9287099072  MEMB      39              0.0000000000
      4824        39  PMPE      H7R           -29.7981380738      -12.7728437204        8.7097584193  MEMB      39              0.0000000000
      4825        39  PMPE      H7S           -28.3804270797      -11.8142162814        9.0143557035  MEMB      39              0.0000000000
      4826        39  PMPE      C28           -29.6293402307      -10.8104613040        7.6445111066  MEMB      39              0.0000000000
      4827        39  PMPE      H8R           -29.6280430606       -9.7569764750        7.9973407787  MEMB      39              0.0000000000
      4828        39  PMPE      H8S           -30.6067571799      -11.1714633214        7.2589525447  MEMB      39              0.0000000000
      4829        39  PMPE      C29           -28.5926196200      -11.0889811510        6.5636583690  MEMB      39              0.0000000000
      4830        39  PMPE      H9R           -28.2875361999      -12.1541871970        6.4825345594  MEMB      39              0.0000000000
      4831        39  PMPE      C217          -27.5888397556       -9.9054473955        6.4470425943  MEMB      39              0.0000000000
      4832        39  PMPE      H17R          -26.6229720756      -10.3947217165        6.4225643701  MEMB      39              0.0000000000
      4833        39  PMPE      H17S          -27.8786980337       -9.0474103417        7.0408799215  MEMB      39              0.0000000000
      4834        39  PMPE      C210          -28.5332054612      -10.2749137401        5.3316608911  MEMB      39              0.0000000000
      4835        39  PMPE      H10R          -28.0891697135      -10.6768665733        4.3959324066  MEMB      39              0.0000000000
      4836        39  PMPE      C211          -29.6443735214       -9.1731515356        5.0856775523  MEMB      39              0.0000000000
      4837        39  PMPE      H11R          -29.6675069115       -8.4800283127        5.9536439495  MEMB      39              0.0000000000
      4838        39  PMPE      H11S          -30.6211913770       -9.7023288057        5.0966088579  MEMB      39              0.0000000000
      4839        39  PMPE      C212          -29.5064028283       -8.4863688723        3.7380209224  MEMB      39              0.0000000000
      4840        39  PMPE      H12R          -30.3569810095       -7.8265718541        3.4632375399  MEMB      39              0.0000000000
      4841        39  PMPE      H12S          -29.5498614872       -9.2794826479        2.9612309946  MEMB      39              0.0000000000
      4842        39  PMPE      C213          -28.2569993846       -7.5461069049        3.6727023814  MEMB      39              0.0000000000
      4843        39  PMPE      H13R          -27.3860336249       -8.1793718314        3.9460428011  MEMB      39              0.0000000000
      4844        39  PMPE      H13S          -28.1605874641       -6.6742083771        4.3544780186  MEMB      39              0.0000000000
      4845        39  PMPE      C214          -27.9391528486       -6.9733942202        2.3094958141  MEMB      39              0.0000000000
      4846        39  PMPE      H14R          -28.8497621259       -6.4658540562        1.9254205859  MEMB      39              0.0000000000
      4847        39  PMPE      H14S          -27.5386796573       -7.8409897259        1.7427330067  MEMB      39              0.0000000000
      4848        39  PMPE      C215          -26.7557990308       -5.9379194095        2.4227966104  MEMB      39              0.0000000000
      4849        39  PMPE      H15R          -26.9141344087       -5.2443721829        3.2761677525  MEMB      39              0.0000000000
      4850        39  PMPE      H15S          -26.7759050094       -5.3485828512        1.4812026211  MEMB      39              0.0000000000
      4851        39  PMPE      C216          -25.3449587140       -6.5597582384        2.6173071345  MEMB      39              0.0000000000
      4852        39  PMPE      H16R          -25.0144424181       -6.3847646486        3.6634696462  MEMB      39              0.0000000000
      4853        39  PMPE      H16S          -25.3949765015       -7.6575898365        2.4542583795  MEMB      39              0.0000000000
      4854        39  PMPE      H16T          -24.6328599203       -6.1484581673        1.8702668959  MEMB      39              0.0000000000
      4855        39  PMPE      C33           -22.8422665643      -11.4900580292       11.3751829818  MEMB      39              0.0000000000
      4856        39  PMPE      H3X           -23.4470701994      -11.8703614684       12.2260076634  MEMB      39              0.0000000000
      4857        39  PMPE      H3Y           -22.0237574374      -12.2293762572       11.2418702650  MEMB      39              0.0000000000
      4858        39  PMPE      C34           -23.7821347764      -11.4771722768       10.1379130966  MEMB      39              0.0000000000
      4859        39  PMPE      H4X           -23.3446366006      -10.9662543631        9.2536736638  MEMB      39              0.0000000000
      4860        39  PMPE      H4Y           -24.7089027001      -10.9207415124       10.3944412839  MEMB      39              0.0000000000
      4861        39  PMPE      C35           -24.3329124698      -12.8171084982        9.7179627229  MEMB      39              0.0000000000
      4862        39  PMPE      H5X           -25.0043257056      -12.6558607540        8.8476046282  MEMB      39              0.0000000000
      4863        39  PMPE      H5Y           -24.9090380440      -13.1771802910       10.5970238420  MEMB      39              0.0000000000
      4864        39  PMPE      C36           -23.2167279139      -13.8290164959        9.3352703002  MEMB      39              0.0000000000
      4865        39  PMPE      H6X           -23.6449327632      -14.6901634278        8.7790437731  MEMB      39              0.0000000000
      4866        39  PMPE      H6Y           -22.7979046152      -14.3327889570       10.2325555874  MEMB      39              0.0000000000
      4867        39  PMPE      C37           -21.9851848641      -13.2579057387        8.6813577087  MEMB      39              0.0000000000
      4868        39  PMPE      H7X           -21.4216868010      -14.1886046985        8.4564349197  MEMB      39              0.0000000000
      4869        39  PMPE      H7Y           -21.4615824863      -12.4975762058        9.2994673806  MEMB      39              0.0000000000
      4870        39  PMPE      C38           -22.1336270902      -12.5299273232        7.3197389043  MEMB      39              0.0000000000
      4871        39  PMPE      H8X           -21.1247768073      -12.4833257725        6.8567377244  MEMB      39              0.0000000000
      4872        39  PMPE      H8Y           -22.5651243973      -11.5108474775        7.4177558218  MEMB      39              0.0000000000
      4873        39  PMPE      C39           -23.1750271092      -13.2363113266        6.4059885279  MEMB      39              0.0000000000
      4874        39  PMPE      H9X           -24.1622584083      -13.2871344124        6.9130507819  MEMB      39              0.0000000000
      4875        39  PMPE      H9Y           -22.7876106546      -14.2470260539        6.1556173688  MEMB      39              0.0000000000
      4876        39  PMPE      C310          -23.4101914587      -12.4034192548        5.1195333967  MEMB      39              0.0000000000
      4877        39  PMPE      H10X          -22.4763964239      -12.2062911111        4.5507726280  MEMB      39              0.0000000000
      4878        39  PMPE      H10Y          -23.7387803424      -11.4086487958        5.4893734875  MEMB      39              0.0000000000
      4879        39  PMPE      C311          -24.5657140483      -13.0035521571        4.3510357254  MEMB      39              0.0000000000
      4880        39  PMPE      H11X          -25.4424246003      -13.3055082323        4.9630174179  MEMB      39              0.0000000000
      4881        39  PMPE      H11Y          -24.3066011546      -13.9942137237        3.9200233311  MEMB      39              0.0000000000
      4882        39  PMPE      C312          -25.1326738217      -12.1520944033        3.1372644199  MEMB      39              0.0000000000
      4883        39  PMPE      H12X          -24.4956786972      -11.7374104319        2.3269592430  MEMB      39              0.0000000000
      4884        39  PMPE      H12Y          -25.6677333975      -11.3010780284        3.6103426601  MEMB      39              0.0000000000
      4885        39  PMPE      C313          -26.3030738368      -12.9375294204        2.5501537966  MEMB      39              0.0000000000
      4886        39  PMPE      H13X          -27.1063585690      -13.2381542591        3.2563256771  MEMB      39              0.0000000000
      4887        39  PMPE      H13Y          -25.8425008105      -13.8887682908        2.2076071108  MEMB      39              0.0000000000
      4888        39  PMPE      C314          -27.0272400294      -12.1017428496        1.3737296353  MEMB      39              0.0000000000
      4889        39  PMPE      H14X          -26.3190736801      -12.0042076648        0.5232548805  MEMB      39              0.0000000000
      4890        39  PMPE      H14Y          -27.2779025218      -11.1045653641        1.7945936998  MEMB      39              0.0000000000
      4891        39  PMPE      C315          -28.3248968823      -12.7341229382        0.7082330213  MEMB      39              0.0000000000
      4892        39  PMPE      H15X          -28.3754804983      -12.2155741715       -0.2730259122  MEMB      39              0.0000000000
      4893        39  PMPE      H15Y          -29.2481191222      -12.4705355598        1.2672535583  MEMB      39              0.0000000000
      4894        39  PMPE      C316          -28.2709621635      -14.2300615349        0.5236832208  MEMB      39              0.0000000000
      4895        39  PMPE      H16X          -27.2804990707      -14.3999940623        0.0499458771  MEMB      39              0.0000000000
      4896        39  PMPE      H16Y          -29.0689460842      -14.5314697696       -0.1881427645  MEMB      39              0.0000000000
      4897        39  PMPE      H16Z          -28.2885685997      -14.8160928957        1.4673885331  MEMB      39              0.0000000000
      4898        40  PMPE      N             -16.7255748043      -25.2693935346       16.5715344793  MEMB      40              0.0000000000
      4899        40  PMPE      HN1           -16.3921331981      -24.3838679604       16.1399546504  MEMB      40              0.0000000000
      4900        40  PMPE      HN2           -15.8571648893      -25.7549740749       16.8743143855  MEMB      40              0.0000000000
      4901        40  PMPE      HN3           -17.1467390071      -25.8560420502       15.8231599696  MEMB      40              0.0000000000
      4902        40  PMPE      C12           -17.6036367626      -25.1312785780       17.7223844315  MEMB      40              0.0000000000
      4903        40  PMPE      H12A          -17.6227788097      -26.1191042420       18.2304738973  MEMB      40              0.0000000000
      4904        40  PMPE      H12B          -18.6110718601      -24.8691962085       17.3341727820  MEMB      40              0.0000000000
      4905        40  PMPE      C11           -17.0948457308      -24.0577845271       18.6784876889  MEMB      40              0.0000000000
      4906        40  PMPE      H11A          -17.8059371182      -24.2121125845       19.5180428160  MEMB      40              0.0000000000
      4907        40  PMPE      H11B          -17.2820419626      -23.0693779135       18.2069678887  MEMB      40              0.0000000000
      4908        40  PMPE      P             -15.0583098323      -23.2946606678       19.8731957130  MEMB      40              0.0000000000
      4909        40  PMPE      O13           -13.9070300909      -23.8886254426       20.6344706257  MEMB      40              0.0000000000
      4910        40  PMPE      O14           -16.0466375367      -22.4934189274       20.6574919736  MEMB      40              0.0000000000
      4911        40  PMPE      O11           -14.3793297818      -22.2533140248       18.8525902762  MEMB      40              0.0000000000
      4912        40  PMPE      O12           -15.7918378355      -24.3339379251       19.0098448089  MEMB      40              0.0000000000
      4913        40  PMPE      C1            -13.9735469516      -22.5631736811       17.5239643602  MEMB      40              0.0000000000
      4914        40  PMPE      HA            -14.0997667764      -23.6570336936       17.3761137675  MEMB      40              0.0000000000
      4915        40  PMPE      HB            -12.8750959289      -22.4066188979       17.4672441440  MEMB      40              0.0000000000
      4916        40  PMPE      C2            -14.7031163517      -21.6344705032       16.5276422560  MEMB      40              0.0000000000
      4917        40  PMPE      HS            -14.5982215285      -20.6280154644       16.9862997304  MEMB      40              0.0000000000
      4918        40  PMPE      O21           -16.1750642736      -21.9541034550       16.4542740099  MEMB      40              0.0000000000
      4919        40  PMPE      C21           -16.7848787737      -20.9517601094       15.9540840909  MEMB      40              0.0000000000
      4920        40  PMPE      O22           -16.3706149500      -19.8149749379       15.7902760728  MEMB      40              0.0000000000
      4921        40  PMPE      C22           -18.2353904556      -21.3457458492       15.5210714469  MEMB      40              0.0000000000
      4922        40  PMPE      H2R           -18.8826379102      -21.0746368002       16.3824030857  MEMB      40              0.0000000000
      4923        40  PMPE      H2S           -18.1846874968      -22.4255055447       15.2644218611  MEMB      40              0.0000000000
      4924        40  PMPE      C3            -14.1192750595      -21.7657599442       15.1067028242  MEMB      40              0.0000000000
      4925        40  PMPE      HX            -13.0802723054      -21.3899193992       14.9903483288  MEMB      40              0.0000000000
      4926        40  PMPE      HY            -14.7651629106      -21.1690765032       14.4276454465  MEMB      40              0.0000000000
      4927        40  PMPE      O31           -14.1153712051      -23.1756284685       14.6007537402  MEMB      40              0.0000000000
      4928        40  PMPE      C31           -14.3358894766      -23.3077134890       13.2572478274  MEMB      40              0.0000000000
      4929        40  PMPE      O32           -14.5555842964      -22.3832867357       12.4747223354  MEMB      40              0.0000000000
      4930        40  PMPE      C32           -14.4359116782      -24.8047872514       12.9526325856  MEMB      40              0.0000000000
      4931        40  PMPE      H2X           -15.2003339485      -25.2544752783       13.6217813808  MEMB      40              0.0000000000
      4932        40  PMPE      H2Y           -13.4659399791      -25.3343829448       13.0666692239  MEMB      40              0.0000000000
      4933        40  PMPE      C23           -18.7604334387      -20.6050637517       14.3463370043  MEMB      40              0.0000000000
      4934        40  PMPE      H3R           -18.9086147915      -19.5187705289       14.5261431122  MEMB      40              0.0000000000
      4935        40  PMPE      H3S           -19.7293639435      -21.0205296866       13.9957910646  MEMB      40              0.0000000000
      4936        40  PMPE      C24           -17.9406637924      -20.8195484263       12.9841068847  MEMB      40              0.0000000000
      4937        40  PMPE      H4R           -18.0028519583      -21.9070842165       12.7656586827  MEMB      40              0.0000000000
      4938        40  PMPE      H4S           -16.8803734782      -20.6252189302       13.2530709185  MEMB      40              0.0000000000
      4939        40  PMPE      C25           -18.3938160447      -19.9277030098       11.8577120702  MEMB      40              0.0000000000
      4940        40  PMPE      H5R           -18.5662654626      -18.8528733702       12.0798012810  MEMB      40              0.0000000000
      4941        40  PMPE      H5S           -19.4241402105      -20.2317062199       11.5742781712  MEMB      40              0.0000000000
      4942        40  PMPE      C26           -17.7607941348      -19.9944080125       10.4753158372  MEMB      40              0.0000000000
      4943        40  PMPE      H6R           -18.3814244902      -19.4189138119        9.7556315791  MEMB      40              0.0000000000
      4944        40  PMPE      H6S           -17.7063213852      -21.0518491315       10.1389061899  MEMB      40              0.0000000000
      4945        40  PMPE      C27           -16.4105776412      -19.2066078588       10.4680999402  MEMB      40              0.0000000000
      4946        40  PMPE      H7R           -15.7355329477      -19.7771405513       11.1412475006  MEMB      40              0.0000000000
      4947        40  PMPE      H7S           -16.5395214657      -18.2292235764       10.9803642767  MEMB      40              0.0000000000
      4948        40  PMPE      C28           -15.8043692157      -18.9537796887        9.1326075872  MEMB      40              0.0000000000
      4949        40  PMPE      H8R           -14.9344874374      -18.2644734180        9.1824416440  MEMB      40              0.0000000000
      4950        40  PMPE      H8S           -16.4148192641      -18.2586333689        8.5174294933  MEMB      40              0.0000000000
      4951        40  PMPE      C29           -15.3597967077      -20.1842782097        8.4194216561  MEMB      40              0.0000000000
      4952        40  PMPE      H9R           -14.9658468401      -21.0424293749        9.0048286502  MEMB      40              0.0000000000
      4953        40  PMPE      C217          -14.5025447000      -19.8643905604        7.1736651020  MEMB      40              0.0000000000
      4954        40  PMPE      H17R          -13.6933172007      -20.5432158954        6.9344246755  MEMB      40              0.0000000000
      4955        40  PMPE      H17S          -14.6725755216      -18.9026158031        6.7057250051  MEMB      40              0.0000000000
      4956        40  PMPE      C210          -15.8701236497      -20.6769364722        7.0803557711  MEMB      40              0.0000000000
      4957        40  PMPE      H10R          -15.7470646219      -21.7759474791        6.9738071743  MEMB      40              0.0000000000
      4958        40  PMPE      C211          -16.9624095188      -19.9866394242        6.2936825511  MEMB      40              0.0000000000
      4959        40  PMPE      H11R          -16.6233407433      -18.9553144277        6.0576284426  MEMB      40              0.0000000000
      4960        40  PMPE      H11S          -17.9022906450      -19.8799161393        6.8763960918  MEMB      40              0.0000000000
      4961        40  PMPE      C212          -17.3756045898      -20.6380762020        4.9540096783  MEMB      40              0.0000000000
      4962        40  PMPE      H12R          -18.2042736810      -20.0752896315        4.4734900315  MEMB      40              0.0000000000
      4963        40  PMPE      H12S          -17.6663935306      -21.7087480064        5.0125309588  MEMB      40              0.0000000000
      4964        40  PMPE      C213          -16.2531853594      -20.4450497360        3.9228468461  MEMB      40              0.0000000000
      4965        40  PMPE      H13R          -15.3471289556      -20.9007077649        4.3764530515  MEMB      40              0.0000000000
      4966        40  PMPE      H13S          -16.1774524476      -19.3431943081        3.8024294469  MEMB      40              0.0000000000
      4967        40  PMPE      C214          -16.5633529668      -21.1610062804        2.5554513759  MEMB      40              0.0000000000
      4968        40  PMPE      H14R          -16.4713714455      -22.2661265316        2.6230520079  MEMB      40              0.0000000000
      4969        40  PMPE      H14S          -15.7408348732      -20.7511676095        1.9310968710  MEMB      40              0.0000000000
      4970        40  PMPE      C215          -17.8835700689      -20.8394520438        1.8554546252  MEMB      40              0.0000000000
      4971        40  PMPE      H15R          -18.7082870441      -21.1557820199        2.5293231599  MEMB      40              0.0000000000
      4972        40  PMPE      H15S          -17.9382963629      -21.4079597013        0.9024987833  MEMB      40              0.0000000000
      4973        40  PMPE      C216          -17.9662644965      -19.4174533889        1.2946976752  MEMB      40              0.0000000000
      4974        40  PMPE      H16R          -18.8215604914      -19.1395446599        0.6423504931  MEMB      40              0.0000000000
      4975        40  PMPE      H16S          -18.0470629211      -18.7275197860        2.1617513117  MEMB      40              0.0000000000
      4976        40  PMPE      H16T          -17.0729851918      -19.1718173519        0.6814787463  MEMB      40              0.0000000000
      4977        40  PMPE      C33           -14.9570051419      -25.0561012936       11.5508998832  MEMB      40              0.0000000000
      4978        40  PMPE      H3X           -15.1052637613      -26.1339355838       11.3259246356  MEMB      40              0.0000000000
      4979        40  PMPE      H3Y           -14.2202330350      -24.6154477132       10.8456959980  MEMB      40              0.0000000000
      4980        40  PMPE      C34           -16.3918105732      -24.5216750295       11.0626589042  MEMB      40              0.0000000000
      4981        40  PMPE      H4X           -16.3316862115      -23.4125195994       11.0845730350  MEMB      40              0.0000000000
      4982        40  PMPE      H4Y           -17.2039663353      -24.8887752708       11.7259546480  MEMB      40              0.0000000000
      4983        40  PMPE      C35           -16.7426649182      -24.9544844536        9.6606402341  MEMB      40              0.0000000000
      4984        40  PMPE      H5X           -16.8074621664      -26.0635549841        9.6698304321  MEMB      40              0.0000000000
      4985        40  PMPE      H5Y           -16.0386667000      -24.5382766504        8.9086573842  MEMB      40              0.0000000000
      4986        40  PMPE      C36           -18.1468711897      -24.4536008709        9.2327526842  MEMB      40              0.0000000000
      4987        40  PMPE      H6X           -18.1444900746      -23.3631215402        9.4452848954  MEMB      40              0.0000000000
      4988        40  PMPE      H6Y           -18.8181047145      -24.8688705562       10.0146201923  MEMB      40              0.0000000000
      4989        40  PMPE      C37           -18.7285467023      -24.8942325742        7.8787790996  MEMB      40              0.0000000000
      4990        40  PMPE      H7X           -19.7808164617      -24.5837431442        7.7037213948  MEMB      40              0.0000000000
      4991        40  PMPE      H7Y           -18.6725952282      -26.0037647416        7.8674243934  MEMB      40              0.0000000000
      4992        40  PMPE      C38           -17.9398855786      -24.4027945485        6.7035303334  MEMB      40              0.0000000000
      4993        40  PMPE      H8X           -16.8637436043      -24.6152081644        6.8799394077  MEMB      40              0.0000000000
      4994        40  PMPE      H8Y           -18.1442816243      -23.3310439009        6.4940228525  MEMB      40              0.0000000000
      4995        40  PMPE      C39           -18.3998267774      -25.1499212944        5.4502599155  MEMB      40              0.0000000000
      4996        40  PMPE      H9X           -19.4239178958      -24.8467117112        5.1442809583  MEMB      40              0.0000000000
      4997        40  PMPE      H9Y           -18.2666947504      -26.2387640784        5.6263791465  MEMB      40              0.0000000000
      4998        40  PMPE      C310          -17.5282404733      -25.1209305395        4.1489420914  MEMB      40              0.0000000000
      4999        40  PMPE      H10X          -16.6563155689      -25.8061472926        4.2163672961  MEMB      40              0.0000000000
      5000        40  PMPE      H10Y          -17.2127276323      -24.0649264548        4.0088414542  MEMB      40              0.0000000000
      5001        40  PMPE      C311          -18.3960181083      -25.5877035541        2.9765482317  MEMB      40              0.0000000000
      5002        40  PMPE      H11X          -19.3204752458      -25.0029072727        2.7823498931  MEMB      40              0.0000000000
      5003        40  PMPE      H11Y          -18.7927396649      -26.5962603137        3.2209798233  MEMB      40              0.0000000000
      5004        40  PMPE      C312          -17.5973372165      -25.6531549651        1.7726963677  MEMB      40              0.0000000000
      5005        40  PMPE      H12X          -16.9340642441      -26.5223165014        1.9700498498  MEMB      40              0.0000000000
      5006        40  PMPE      H12Y          -17.0102461484      -24.7374201050        1.5467003119  MEMB      40              0.0000000000
      5007        40  PMPE      C313          -18.3327740528      -26.0267147172        0.4662577730  MEMB      40              0.0000000000
      5008        40  PMPE      H13X          -18.7744084539      -27.0241462085        0.6769964637  MEMB      40              0.0000000000
      5009        40  PMPE      H13Y          -17.6076259303      -26.1937187787       -0.3587213290  MEMB      40              0.0000000000
      5010        40  PMPE      C314          -19.4041230448      -25.0337521090        0.1144970869  MEMB      40              0.0000000000
      5011        40  PMPE      H14X          -19.9803629252      -24.7425058860        1.0186246252  MEMB      40              0.0000000000
      5012        40  PMPE      H14Y          -20.1548977036      -25.4593915352       -0.5851367416  MEMB      40              0.0000000000
      5013        40  PMPE      C315          -18.9802350519      -23.8033768969       -0.7285647833  MEMB      40              0.0000000000
      5014        40  PMPE      H15X          -18.0615399645      -23.3997368863       -0.2517034687  MEMB      40              0.0000000000
      5015        40  PMPE      H15Y          -19.8495987363      -23.1175834946       -0.6379272999  MEMB      40              0.0000000000
      5016        40  PMPE      C316          -18.6396003305      -24.1736035625       -2.2420787439  MEMB      40              0.0000000000
      5017        40  PMPE      H16X          -18.2873404429      -23.1810037332       -2.5956035960  MEMB      40              0.0000000000
      5018        40  PMPE      H16Y          -19.5805841645      -24.4365891526       -2.7709544069  MEMB      40              0.0000000000
      5019        40  PMPE      H16Z          -17.8168024414      -24.9188896478       -2.2853612836  MEMB      40              0.0000000000
      5020        41  PYPG      C13           -19.3547408998       24.6857394770       17.9133080463  MEMB      41              0.0000000000
      5021        41  PYPG      H13A          -18.5762325700       25.1674302738       18.5427677558  MEMB      41              0.0000000000
      5022        41  PYPG      H13B          -19.1925008345       25.0576927621       16.8790692019  MEMB      41              0.0000000000
      5023        41  PYPG      OC3           -20.6045031393       25.1363628628       18.3551015888  MEMB      41              0.0000000000
      5024        41  PYPG      HO3           -21.3281724991       24.7043638146       17.8954501154  MEMB      41              0.0000000000
      5025        41  PYPG      C12           -19.1703116520       23.1816750867       17.8252966210  MEMB      41              0.0000000000
      5026        41  PYPG      H12A          -18.1070182892       22.9941103962       17.5477975190  MEMB      41              0.0000000000
      5027        41  PYPG      OC2           -19.9968607632       22.6442567913       16.7918368817  MEMB      41              0.0000000000
      5028        41  PYPG      HO2           -19.9023178702       21.6744306569       16.9151890212  MEMB      41              0.0000000000
      5029        41  PYPG      C11           -19.4530904911       22.4910520632       19.1748935454  MEMB      41              0.0000000000
      5030        41  PYPG      H11A          -20.4827822567       22.7357554358       19.5127931077  MEMB      41              0.0000000000
      5031        41  PYPG      H11B          -18.7021020459       22.8757391770       19.8976336902  MEMB      41              0.0000000000
      5032        41  PYPG      P             -18.8319087349       20.1769998334       20.0593272871  MEMB      41              0.0000000000
      5033        41  PYPG      O13           -19.2074098314       20.7283390055       21.3597252211  MEMB      41              0.0000000000
      5034        41  PYPG      O14           -17.4092991854       19.9430123948       19.7370681126  MEMB      41              0.0000000000
      5035        41  PYPG      O11           -19.6034219750       18.8165450537       19.8839622616  MEMB      41              0.0000000000
      5036        41  PYPG      O12           -19.3931703036       21.0736324711       18.8994804338  MEMB      41              0.0000000000
      5037        41  PYPG      C1            -20.5129356301       18.5012819061       18.8159137800  MEMB      41              0.0000000000
      5038        41  PYPG      HA            -21.3086947329       19.2731600122       18.7431634037  MEMB      41              0.0000000000
      5039        41  PYPG      HB            -21.1057692880       17.6328823643       19.1747340644  MEMB      41              0.0000000000
      5040        41  PYPG      C2            -19.8508490504       18.1792999008       17.4189771680  MEMB      41              0.0000000000
      5041        41  PYPG      HS            -19.2511325063       17.2571847279       17.5750691251  MEMB      41              0.0000000000
      5042        41  PYPG      O21           -19.0869104116       19.3306055220       16.9288496131  MEMB      41              0.0000000000
      5043        41  PYPG      C21           -18.0532710267       18.9884256526       16.0769207385  MEMB      41              0.0000000000
      5044        41  PYPG      O22           -17.9175965232       17.9625810773       15.4985529600  MEMB      41              0.0000000000
      5045        41  PYPG      C22           -17.2490332364       20.1415067581       15.9012809018  MEMB      41              0.0000000000
      5046        41  PYPG      H2R           -17.0589523565       20.7255230051       16.8270862491  MEMB      41              0.0000000000
      5047        41  PYPG      H2S           -17.6891260305       20.9431855417       15.2704475151  MEMB      41              0.0000000000
      5048        41  PYPG      C3            -20.8771689534       17.8192442216       16.2982608732  MEMB      41              0.0000000000
      5049        41  PYPG      HX            -21.5606427850       17.0044676338       16.6197003776  MEMB      41              0.0000000000
      5050        41  PYPG      HY            -20.3877094771       17.4366545258       15.3771876896  MEMB      41              0.0000000000
      5051        41  PYPG      O31           -21.6739696651       18.9564153305       16.0010459213  MEMB      41              0.0000000000
      5052        41  PYPG      C31           -21.7458280139       19.2996821260       14.7000831508  MEMB      41              0.0000000000
      5053        41  PYPG      O32           -21.5369786625       18.5496558638       13.7734606252  MEMB      41              0.0000000000
      5054        41  PYPG      C32           -22.1563739658       20.7513651314       14.6010021632  MEMB      41              0.0000000000
      5055        41  PYPG      H2X           -23.2636225959       20.8237108706       14.5454345078  MEMB      41              0.0000000000
      5056        41  PYPG      H2Y           -21.7140860271       21.3497265961       15.4260267422  MEMB      41              0.0000000000
      5057        41  PYPG      C23           -15.8736799927       19.6040367608       15.4306643080  MEMB      41              0.0000000000
      5058        41  PYPG      H3R           -16.0466091522       18.9023683340       14.5868173990  MEMB      41              0.0000000000
      5059        41  PYPG      H3S           -15.4926276653       18.9239936073       16.2222840228  MEMB      41              0.0000000000
      5060        41  PYPG      C24           -14.8375593845       20.6638954019       15.1264861716  MEMB      41              0.0000000000
      5061        41  PYPG      H4R           -14.2842218585       20.9819870127       16.0358577669  MEMB      41              0.0000000000
      5062        41  PYPG      H4S           -15.4348790298       21.5585225221       14.8486869623  MEMB      41              0.0000000000
      5063        41  PYPG      C25           -13.9093767652       20.3509352843       13.9466280195  MEMB      41              0.0000000000
      5064        41  PYPG      H5R           -13.4177862622       19.3654387242       14.0931068065  MEMB      41              0.0000000000
      5065        41  PYPG      H5S           -13.0932805005       21.0819003570       13.7622421951  MEMB      41              0.0000000000
      5066        41  PYPG      C26           -14.6788945892       20.2016482202       12.6619089998  MEMB      41              0.0000000000
      5067        41  PYPG      H6R           -15.3694868195       21.0552788792       12.4924456289  MEMB      41              0.0000000000
      5068        41  PYPG      H6S           -15.3180202320       19.2934851684       12.6947634769  MEMB      41              0.0000000000
      5069        41  PYPG      C27           -13.6965256583       20.1505262402       11.4539244559  MEMB      41              0.0000000000
      5070        41  PYPG      H7R           -13.2443903740       19.1370636931       11.4011232467  MEMB      41              0.0000000000
      5071        41  PYPG      H7S           -12.8432780676       20.8382273853       11.6365623262  MEMB      41              0.0000000000
      5072        41  PYPG      C28           -14.3051706257       20.4030433589       10.0678246914  MEMB      41              0.0000000000
      5073        41  PYPG      H8R           -13.5999111850       19.8090558600        9.4480585081  MEMB      41              0.0000000000
      5074        41  PYPG      H8S           -14.2412269237       21.4447652423        9.6869737518  MEMB      41              0.0000000000
      5075        41  PYPG      C29           -15.7204567924       19.8177124815        9.9370067653  MEMB      41              0.0000000000
      5076        41  PYPG      H9R           -16.5322321655       20.4438014274       10.3357974961  MEMB      41              0.0000000000
      5077        41  PYPG      C210          -16.0584201311       18.7199857440        9.2023206620  MEMB      41              0.0000000000
      5078        41  PYPG      H10R          -17.1348219877       18.4935395101        9.2113443494  MEMB      41              0.0000000000
      5079        41  PYPG      C211          -15.1973195257       17.7463647384        8.3459775528  MEMB      41              0.0000000000
      5080        41  PYPG      H11R          -15.4242357914       16.6910335276        8.6088571573  MEMB      41              0.0000000000
      5081        41  PYPG      H11S          -14.0955775349       17.8873947985        8.3703854642  MEMB      41              0.0000000000
      5082        41  PYPG      C212          -15.5740191966       17.8031885767        6.8418903383  MEMB      41              0.0000000000
      5083        41  PYPG      H12R          -16.6590569928       17.6348103418        6.6725893685  MEMB      41              0.0000000000
      5084        41  PYPG      H12S          -15.0683486746       16.9257490833        6.3850343284  MEMB      41              0.0000000000
      5085        41  PYPG      C213          -15.0621441786       19.1391749048        6.2028240631  MEMB      41              0.0000000000
      5086        41  PYPG      H13R          -13.9666545311       19.1779471180        6.3837105857  MEMB      41              0.0000000000
      5087        41  PYPG      H13S          -15.6134294229       19.9570874434        6.7141214890  MEMB      41              0.0000000000
      5088        41  PYPG      C214          -15.3676204367       19.2038435857        4.6625968874  MEMB      41              0.0000000000
      5089        41  PYPG      H14R          -14.9421313986       18.2880762957        4.1992938447  MEMB      41              0.0000000000
      5090        41  PYPG      H14S          -16.4537017852       19.3736222373        4.5015881029  MEMB      41              0.0000000000
      5091        41  PYPG      C215          -14.7449243856       20.5109357955        4.0197082014  MEMB      41              0.0000000000
      5092        41  PYPG      H15R          -13.6839504117       20.4369222319        4.3409203562  MEMB      41              0.0000000000
      5093        41  PYPG      H15S          -15.1715649910       21.4446208120        4.4445979911  MEMB      41              0.0000000000
      5094        41  PYPG      C216          -14.7750122375       20.5773471674        2.5331455721  MEMB      41              0.0000000000
      5095        41  PYPG      H16R          -15.8267192375       20.8612584415        2.3149071069  MEMB      41              0.0000000000
      5096        41  PYPG      H16S          -14.5885777214       19.5328639926        2.2035738354  MEMB      41              0.0000000000
      5097        41  PYPG      H16T          -14.1083565328       21.3168924750        2.0402335443  MEMB      41              0.0000000000
      5098        41  PYPG      C33           -21.7296415178       21.2731246356       13.1947601879  MEMB      41              0.0000000000
      5099        41  PYPG      H3X           -22.1898168088       22.2819667521       13.1254986678  MEMB      41              0.0000000000
      5100        41  PYPG      H3Y           -22.0391812722       20.6280253554       12.3448465354  MEMB      41              0.0000000000
      5101        41  PYPG      C34           -20.3079517536       21.5011936991       13.0972136746  MEMB      41              0.0000000000
      5102        41  PYPG      H4X           -19.6960485483       20.5762484260       13.0310943205  MEMB      41              0.0000000000
      5103        41  PYPG      H4Y           -19.9919636781       22.2085244364       13.8935526328  MEMB      41              0.0000000000
      5104        41  PYPG      C35           -19.9744806069       22.2261712974       11.7744429494  MEMB      41              0.0000000000
      5105        41  PYPG      H5X           -20.5104453289       23.1915534191       11.6515596504  MEMB      41              0.0000000000
      5106        41  PYPG      H5Y           -20.3020420152       21.5964196571       10.9197863834  MEMB      41              0.0000000000
      5107        41  PYPG      C36           -18.4873674390       22.4448284460       11.5549580661  MEMB      41              0.0000000000
      5108        41  PYPG      H6X           -17.9315669180       21.4869315740       11.6435042016  MEMB      41              0.0000000000
      5109        41  PYPG      H6Y           -18.1548527039       23.2040021787       12.2948299250  MEMB      41              0.0000000000
      5110        41  PYPG      C37           -18.1653136985       23.0520906057       10.1320422753  MEMB      41              0.0000000000
      5111        41  PYPG      H7X           -18.1240454472       22.2307544667        9.3850313544  MEMB      41              0.0000000000
      5112        41  PYPG      H7Y           -18.9726642647       23.7698213224        9.8724873738  MEMB      41              0.0000000000
      5113        41  PYPG      C38           -16.7584014622       23.7657218160       10.1368253499  MEMB      41              0.0000000000
      5114        41  PYPG      H8X           -16.1302795371       22.9617802390       10.5766679422  MEMB      41              0.0000000000
      5115        41  PYPG      H8Y           -16.7516904689       24.6926387263       10.7492796281  MEMB      41              0.0000000000
      5116        41  PYPG      C39           -16.3349884990       24.3406008585        8.7981994360  MEMB      41              0.0000000000
      5117        41  PYPG      H9X           -16.4325036336       23.6065389334        7.9699700461  MEMB      41              0.0000000000
      5118        41  PYPG      H9Y           -15.2602481757       24.6209531820        8.8238268525  MEMB      41              0.0000000000
      5119        41  PYPG      C310          -17.0029512185       25.7230879036        8.4489624083  MEMB      41              0.0000000000
      5120        41  PYPG      H10X          -16.2192561913       26.5014154578        8.3291742168  MEMB      41              0.0000000000
      5121        41  PYPG      H10Y          -17.6607233464       25.9593640415        9.3125768110  MEMB      41              0.0000000000
      5122        41  PYPG      C311          -17.7296162972       25.7280498022        7.0518317761  MEMB      41              0.0000000000
      5123        41  PYPG      H11X          -17.0872297724       25.5137011885        6.1710848245  MEMB      41              0.0000000000
      5124        41  PYPG      H11Y          -18.1038895229       26.7691503772        6.9500948392  MEMB      41              0.0000000000
      5125        41  PYPG      C312          -18.8733515275       24.7992139756        6.9248106103  MEMB      41              0.0000000000
      5126        41  PYPG      H12X          -18.3819796008       23.8105189036        6.8008903868  MEMB      41              0.0000000000
      5127        41  PYPG      H12Y          -19.4898167305       24.7441661002        7.8474484938  MEMB      41              0.0000000000
      5128        41  PYPG      C313          -19.6728221464       25.0415032274        5.5470770914  MEMB      41              0.0000000000
      5129        41  PYPG      H13X          -20.3092751966       25.9426828323        5.6779341019  MEMB      41              0.0000000000
      5130        41  PYPG      H13Y          -18.9537407298       25.1218729261        4.7039976166  MEMB      41              0.0000000000
      5131        41  PYPG      C314          -20.6590908423       23.8643135979        5.3168427371  MEMB      41              0.0000000000
      5132        41  PYPG      H14X          -20.7320966695       23.3133834943        6.2788551377  MEMB      41              0.0000000000
      5133        41  PYPG      H14Y          -21.6078809514       24.3082314447        4.9466333207  MEMB      41              0.0000000000
      5134        41  PYPG      C315          -20.1627762900       22.9974182022        4.1565058224  MEMB      41              0.0000000000
      5135        41  PYPG      H15X          -19.1943818296       22.6437374117        4.5705628000  MEMB      41              0.0000000000
      5136        41  PYPG      H15Y          -20.6855715294       22.0178736400        4.1952173909  MEMB      41              0.0000000000
      5137        41  PYPG      C316          -20.0909414932       23.6990904214        2.8856672793  MEMB      41              0.0000000000
      5138        41  PYPG      H16X          -19.5886884476       22.9870702007        2.1964006818  MEMB      41              0.0000000000
      5139        41  PYPG      H16Y          -19.3385194882       24.5163103578        2.8674036180  MEMB      41              0.0000000000
      5140        41  PYPG      H16Z          -21.0342476939       24.1371401105        2.4950176984  MEMB      41              0.0000000000
      5141        42  PMPG      C13            29.8663013204        3.3402837947       21.5500666896  MEMB      42              0.0000000000
      5142        42  PMPG      H13A           29.7257803492        3.6188038371       22.6163693675  MEMB      42              0.0000000000
      5143        42  PMPG      H13B           29.1481639436        2.5707574298       21.1944983439  MEMB      42              0.0000000000
      5144        42  PMPG      OC3            31.1693784938        2.8556888057       21.2729696050  MEMB      42              0.0000000000
      5145        42  PMPG      HO3            31.7104970974        3.2637345592       21.9528880083  MEMB      42              0.0000000000
      5146        42  PMPG      C12            29.6184930491        4.6220902123       20.6352351059  MEMB      42              0.0000000000
      5147        42  PMPG      H12A           30.4104972341        5.3656500278       20.8854894004  MEMB      42              0.0000000000
      5148        42  PMPG      OC2            28.3520374952        5.2074221920       20.9410417334  MEMB      42              0.0000000000
      5149        42  PMPG      HO2            28.2480980243        5.8877770234       20.2403058846  MEMB      42              0.0000000000
      5150        42  PMPG      C11            29.7010797958        4.3894521949       19.1012024019  MEMB      42              0.0000000000
      5151        42  PMPG      H11A           30.7068578507        4.0798995425       18.7449601550  MEMB      42              0.0000000000
      5152        42  PMPG      H11B           29.3553974114        5.2753703798       18.5267689586  MEMB      42              0.0000000000
      5153        42  PMPG      P              28.3042028344        2.9471764415       17.2871806445  MEMB      42              0.0000000000
      5154        42  PMPG      O13            27.7300244147        4.1115987864       16.5690290426  MEMB      42              0.0000000000
      5155        42  PMPG      O14            27.3858429227        1.7639944041       17.2661411793  MEMB      42              0.0000000000
      5156        42  PMPG      O11            29.6864150719        2.6050174764       16.5963983719  MEMB      42              0.0000000000
      5157        42  PMPG      O12            28.7076406379        3.3968218152       18.7807352031  MEMB      42              0.0000000000
      5158        42  PMPG      C1             30.5386781182        1.6297234753       17.1947995844  MEMB      42              0.0000000000
      5159        42  PMPG      HA             30.0721662143        0.6282409825       17.3119348625  MEMB      42              0.0000000000
      5160        42  PMPG      HB             30.8542541659        1.9922668102       18.1964457666  MEMB      42              0.0000000000
      5161        42  PMPG      C2             31.8864488428        1.5057404178       16.4066923215  MEMB      42              0.0000000000
      5162        42  PMPG      HS             32.5315163656        1.0278080849       17.1746699086  MEMB      42              0.0000000000
      5163        42  PMPG      O21            32.3436592425        2.8354580399       16.0126068782  MEMB      42              0.0000000000
      5164        42  PMPG      C21            33.5906178063        2.9943227099       15.9356281714  MEMB      42              0.0000000000
      5165        42  PMPG      O22            34.4299459748        2.2460952373       16.3583653961  MEMB      42              0.0000000000
      5166        42  PMPG      C22            33.8131907164        4.3763324508       15.2665139633  MEMB      42              0.0000000000
      5167        42  PMPG      H2R            33.2505749026        4.3546967758       14.3087479920  MEMB      42              0.0000000000
      5168        42  PMPG      H2S            34.8815737610        4.5045231566       14.9900253319  MEMB      42              0.0000000000
      5169        42  PMPG      C3             31.7901965289        0.6835109565       15.1261139393  MEMB      42              0.0000000000
      5170        42  PMPG      HX             31.0334372756       -0.1295327974       15.1505329079  MEMB      42              0.0000000000
      5171        42  PMPG      HY             32.8080322505        0.2439114336       15.0548144586  MEMB      42              0.0000000000
      5172        42  PMPG      O31            31.6495160947        1.4085342455       13.9006620622  MEMB      42              0.0000000000
      5173        42  PMPG      C31            30.3912857590        1.6953834672       13.5102214422  MEMB      42              0.0000000000
      5174        42  PMPG      O32            29.3401264265        1.5545369629       14.1180750189  MEMB      42              0.0000000000
      5175        42  PMPG      C32            30.4846392194        2.5876642705       12.2316194817  MEMB      42              0.0000000000
      5176        42  PMPG      H2X            31.1234833393        2.1541802720       11.4326881972  MEMB      42              0.0000000000
      5177        42  PMPG      H2Y            30.8820590114        3.5879250170       12.5070409138  MEMB      42              0.0000000000
      5178        42  PMPG      C23            33.2514463812        5.5464383803       16.1409950685  MEMB      42              0.0000000000
      5179        42  PMPG      H3R            34.0925444675        5.7336519323       16.8422983583  MEMB      42              0.0000000000
      5180        42  PMPG      H3S            32.3209012751        5.2981423016       16.6948501937  MEMB      42              0.0000000000
      5181        42  PMPG      C24            32.8452854868        6.8286427972       15.4646910007  MEMB      42              0.0000000000
      5182        42  PMPG      H4R            33.7239925480        7.2516183957       14.9324447046  MEMB      42              0.0000000000
      5183        42  PMPG      H4S            32.5292587569        7.5870653922       16.2125166367  MEMB      42              0.0000000000
      5184        42  PMPG      C25            31.7691346761        6.6432057910       14.3084696470  MEMB      42              0.0000000000
      5185        42  PMPG      H5R            30.7688968684        6.4076774050       14.7308106750  MEMB      42              0.0000000000
      5186        42  PMPG      H5S            32.1466154801        5.8415726976       13.6382359002  MEMB      42              0.0000000000
      5187        42  PMPG      C26            31.7737739404        7.9263685566       13.4162570208  MEMB      42              0.0000000000
      5188        42  PMPG      H6R            32.7734057840        8.2110011142       13.0237763024  MEMB      42              0.0000000000
      5189        42  PMPG      H6S            31.4425043115        8.7916056730       14.0294018012  MEMB      42              0.0000000000
      5190        42  PMPG      C27            30.8066198350        7.7475459799       12.2681319270  MEMB      42              0.0000000000
      5191        42  PMPG      H7R            30.9260246966        8.6183225030       11.5885652144  MEMB      42              0.0000000000
      5192        42  PMPG      H7S            29.7599219304        7.5395020140       12.5771019145  MEMB      42              0.0000000000
      5193        42  PMPG      C28            31.1428569437        6.5807963882       11.2458572018  MEMB      42              0.0000000000
      5194        42  PMPG      H8R            31.0213743945        5.5920382563       11.7377115246  MEMB      42              0.0000000000
      5195        42  PMPG      H8S            32.1797393321        6.6914139580       10.8625042102  MEMB      42              0.0000000000
      5196        42  PMPG      C29            30.0685377456        6.6458668595       10.1463645270  MEMB      42              0.0000000000
      5197        42  PMPG      H9R            29.0599236488        6.8397367595       10.5699605550  MEMB      42              0.0000000000
      5198        42  PMPG      C217           30.3644367978        7.2140683093        8.7884409439  MEMB      42              0.0000000000
      5199        42  PMPG      H17R           29.5567673082        7.6333320386        8.2012632709  MEMB      42              0.0000000000
      5200        42  PMPG      H17S           31.3890998074        7.5240934615        8.6246142991  MEMB      42              0.0000000000
      5201        42  PMPG      C210           30.2469863824        5.6789245492        8.9839870913  MEMB      42              0.0000000000
      5202        42  PMPG      H10R           29.3260557680        5.2120615212        8.5738075937  MEMB      42              0.0000000000
      5203        42  PMPG      C211           31.5769699556        4.9384378687        8.8553013575  MEMB      42              0.0000000000
      5204        42  PMPG      H11R           32.4496018331        5.6154291900        8.9757898628  MEMB      42              0.0000000000
      5205        42  PMPG      H11S           31.6382254198        4.2360508393        9.7139166513  MEMB      42              0.0000000000
      5206        42  PMPG      C212           31.7171430766        4.3073571164        7.4925916557  MEMB      42              0.0000000000
      5207        42  PMPG      H12R           30.9471134383        3.5268972615        7.3129870575  MEMB      42              0.0000000000
      5208        42  PMPG      H12S           32.6567773441        3.7154790777        7.4595928879  MEMB      42              0.0000000000
      5209        42  PMPG      C213           31.7347735572        5.3069189692        6.3249588332  MEMB      42              0.0000000000
      5210        42  PMPG      H13R           32.3645565523        6.1896507644        6.5667833442  MEMB      42              0.0000000000
      5211        42  PMPG      H13S           30.6981959645        5.5582060669        6.0140203317  MEMB      42              0.0000000000
      5212        42  PMPG      C214           32.4334495753        4.7265666485        5.0431154074  MEMB      42              0.0000000000
      5213        42  PMPG      H14R           31.8428310890        3.7903694984        4.9481122677  MEMB      42              0.0000000000
      5214        42  PMPG      H14S           33.5089521604        4.4612266335        5.1280271337  MEMB      42              0.0000000000
      5215        42  PMPG      C215           32.3119751186        5.6098320878        3.8138357898  MEMB      42              0.0000000000
      5216        42  PMPG      H15R           32.4818809856        6.6181269577        4.2483404169  MEMB      42              0.0000000000
      5217        42  PMPG      H15S           31.2307955609        5.5088471730        3.5789452203  MEMB      42              0.0000000000
      5218        42  PMPG      C216           33.1718713804        5.4628209815        2.5052622882  MEMB      42              0.0000000000
      5219        42  PMPG      H16R           32.9217921747        6.2488917709        1.7610350692  MEMB      42              0.0000000000
      5220        42  PMPG      H16S           32.8845011289        4.4484586192        2.1548219233  MEMB      42              0.0000000000
      5221        42  PMPG      H16T           34.2765896084        5.4951837547        2.6187141470  MEMB      42              0.0000000000
      5222        42  PMPG      C33            29.1099503551        2.8331026847       11.5805674390  MEMB      42              0.0000000000
      5223        42  PMPG      H3X            29.4317325417        3.4262324200       10.6979725122  MEMB      42              0.0000000000
      5224        42  PMPG      H3Y            28.4930015764        3.4196793714       12.2944463865  MEMB      42              0.0000000000
      5225        42  PMPG      C34            28.6067351287        1.5233832708       10.9498025990  MEMB      42              0.0000000000
      5226        42  PMPG      H4X            28.6427237526        0.8827084921       11.8567542285  MEMB      42              0.0000000000
      5227        42  PMPG      H4Y            29.3924375445        1.1972252377       10.2352299198  MEMB      42              0.0000000000
      5228        42  PMPG      C35            27.1891350602        1.6899209038       10.4040541194  MEMB      42              0.0000000000
      5229        42  PMPG      H5X            26.5069366071        1.7984584369       11.2741954557  MEMB      42              0.0000000000
      5230        42  PMPG      H5Y            27.0736797599        0.7392985018        9.8407528665  MEMB      42              0.0000000000
      5231        42  PMPG      C36            26.9649240414        2.8170884721        9.4041192141  MEMB      42              0.0000000000
      5232        42  PMPG      H6X            27.2160716003        3.7818090570        9.8945881862  MEMB      42              0.0000000000
      5233        42  PMPG      H6Y            25.8688833712        2.8694864163        9.2301359645  MEMB      42              0.0000000000
      5234        42  PMPG      C37            27.7336430133        2.6925376158        8.0128324596  MEMB      42              0.0000000000
      5235        42  PMPG      H7X            28.8314960547        2.6112219979        8.1625901283  MEMB      42              0.0000000000
      5236        42  PMPG      H7Y            27.6554125212        3.6132835877        7.3960433448  MEMB      42              0.0000000000
      5237        42  PMPG      C38            27.2271267035        1.6709328530        7.0761258604  MEMB      42              0.0000000000
      5238        42  PMPG      H8X            26.1613115103        1.8887821234        6.8505153171  MEMB      42              0.0000000000
      5239        42  PMPG      H8Y            27.1342660222        0.6873107218        7.5842447959  MEMB      42              0.0000000000
      5240        42  PMPG      C39            28.1627323758        1.6785239863        5.8814261399  MEMB      42              0.0000000000
      5241        42  PMPG      H9X            29.1599187201        1.3880963761        6.2758782144  MEMB      42              0.0000000000
      5242        42  PMPG      H9Y            28.1710759965        2.6848867449        5.4108038288  MEMB      42              0.0000000000
      5243        42  PMPG      C310           27.8209073926        0.5947385763        4.8252185557  MEMB      42              0.0000000000
      5244        42  PMPG      H10X           26.8886810734        0.9173473529        4.3141417996  MEMB      42              0.0000000000
      5245        42  PMPG      H10Y           27.8778823372       -0.3947468507        5.3272079291  MEMB      42              0.0000000000
      5246        42  PMPG      C311           29.0431129723        0.4011115635        3.8042494256  MEMB      42              0.0000000000
      5247        42  PMPG      H11X           28.7840326282       -0.3915958591        3.0702103154  MEMB      42              0.0000000000
      5248        42  PMPG      H11Y           29.8330436484        0.0736039995        4.5135223974  MEMB      42              0.0000000000
      5249        42  PMPG      C312           29.5258585069        1.6541077373        2.9754684491  MEMB      42              0.0000000000
      5250        42  PMPG      H12X           30.4113853031        1.2692057090        2.4259106985  MEMB      42              0.0000000000
      5251        42  PMPG      H12Y           29.7990733561        2.3922818724        3.7595432293  MEMB      42              0.0000000000
      5252        42  PMPG      C313           28.4079782329        2.3470492491        2.0975284817  MEMB      42              0.0000000000
      5253        42  PMPG      H13X           27.4194516396        2.4483509756        2.5943931521  MEMB      42              0.0000000000
      5254        42  PMPG      H13Y           28.2460771933        1.5575515881        1.3328049890  MEMB      42              0.0000000000
      5255        42  PMPG      C314           28.7522759328        3.6229056137        1.2871854250  MEMB      42              0.0000000000
      5256        42  PMPG      H14X           28.0652121692        3.6710909683        0.4154383959  MEMB      42              0.0000000000
      5257        42  PMPG      H14Y           29.8031127660        3.6579434132        0.9282497864  MEMB      42              0.0000000000
      5258        42  PMPG      C315           28.4547540698        4.8651809450        2.1190993265  MEMB      42              0.0000000000
      5259        42  PMPG      H15X           29.1733898194        5.6183713997        1.7310423251  MEMB      42              0.0000000000
      5260        42  PMPG      H15Y           28.7976945984        4.5641889322        3.1320732967  MEMB      42              0.0000000000
      5261        42  PMPG      C316           27.0215175723        5.3710151361        2.0985967922  MEMB      42              0.0000000000
      5262        42  PMPG      H16X           26.8091582182        5.4642947487        1.0120774280  MEMB      42              0.0000000000
      5263        42  PMPG      H16Y           26.8141294176        6.3728329384        2.5318077015  MEMB      42              0.0000000000
      5264        42  PMPG      H16Z           26.3813897459        4.5573101805        2.5016371735  MEMB      42              0.0000000000
      5265        43  PMPE      N              20.6772270151      -19.5874174656       21.0861274826  MEMB      43              0.0000000000
      5266        43  PMPE      HN1            20.1078885382      -18.9882324814       20.4549135812  MEMB      43              0.0000000000
      5267        43  PMPE      HN2            20.8859487897      -20.5395959632       20.7236481470  MEMB      43              0.0000000000
      5268        43  PMPE      HN3            20.3950374445      -19.6411739576       22.0856669354  MEMB      43              0.0000000000
      5269        43  PMPE      C12            22.0704297733      -19.0089603275       21.1022409373  MEMB      43              0.0000000000
      5270        43  PMPE      H12A           22.7732642585      -19.8569383780       21.2481104855  MEMB      43              0.0000000000
      5271        43  PMPE      H12B           22.0880535660      -18.1912791846       21.8541770162  MEMB      43              0.0000000000
      5272        43  PMPE      C11            22.3887371542      -18.2007769554       19.7759179718  MEMB      43              0.0000000000
      5273        43  PMPE      H11A           23.4966430625      -18.1233749654       19.8054868575  MEMB      43              0.0000000000
      5274        43  PMPE      H11B           21.8011286075      -17.2606287214       19.8477421936  MEMB      43              0.0000000000
      5275        43  PMPE      P              22.8777955221      -20.0526641542       18.0613171724  MEMB      43              0.0000000000
      5276        43  PMPE      O13            22.4651907986      -21.2225012150       18.8882667778  MEMB      43              0.0000000000
      5277        43  PMPE      O14            24.3025643197      -19.6867943893       17.9231716889  MEMB      43              0.0000000000
      5278        43  PMPE      O11            22.3981659442      -20.2248939782       16.6129742926  MEMB      43              0.0000000000
      5279        43  PMPE      O12            22.0314926845      -18.8103491063       18.5499836745  MEMB      43              0.0000000000
      5280        43  PMPE      C1             21.9544432593      -19.0834357898       15.8875784689  MEMB      43              0.0000000000
      5281        43  PMPE      HA             22.1576554996      -19.1251087672       14.7961166087  MEMB      43              0.0000000000
      5282        43  PMPE      HB             22.5158525726      -18.1932858964       16.2436312995  MEMB      43              0.0000000000
      5283        43  PMPE      C2             20.4236946478      -18.8333230385       15.9646348263  MEMB      43              0.0000000000
      5284        43  PMPE      HS             20.1544962174      -19.1588003607       16.9922135034  MEMB      43              0.0000000000
      5285        43  PMPE      O21            19.7064882332      -19.6337480275       14.9936457010  MEMB      43              0.0000000000
      5286        43  PMPE      C21            19.2104157472      -20.7952330759       15.4301902051  MEMB      43              0.0000000000
      5287        43  PMPE      O22            19.2631964584      -21.1451509655       16.6032068782  MEMB      43              0.0000000000
      5288        43  PMPE      C22            18.5426077880      -21.6270705771       14.2992311182  MEMB      43              0.0000000000
      5289        43  PMPE      H2R            17.6524698810      -21.1359584946       13.8511412442  MEMB      43              0.0000000000
      5290        43  PMPE      H2S            18.3178604135      -22.6935764751       14.5145798471  MEMB      43              0.0000000000
      5291        43  PMPE      C3             20.0228194878      -17.3066075503       15.8142629002  MEMB      43              0.0000000000
      5292        43  PMPE      HX             20.2376480785      -16.6088143658       16.6516721844  MEMB      43              0.0000000000
      5293        43  PMPE      HY             18.9129873717      -17.2690837204       15.7798262637  MEMB      43              0.0000000000
      5294        43  PMPE      O31            20.5658407714      -16.7371890391       14.6090634679  MEMB      43              0.0000000000
      5295        43  PMPE      C31            19.8207629464      -16.7229034417       13.4742550170  MEMB      43              0.0000000000
      5296        43  PMPE      O32            18.7671454071      -17.2769096632       13.3683689764  MEMB      43              0.0000000000
      5297        43  PMPE      C32            20.4719575904      -15.7976431295       12.5452952827  MEMB      43              0.0000000000
      5298        43  PMPE      H2X            21.0232600466      -15.0746714150       13.1838074649  MEMB      43              0.0000000000
      5299        43  PMPE      H2Y            19.7963972368      -15.3149872492       11.8070659533  MEMB      43              0.0000000000
      5300        43  PMPE      C23            19.4245523387      -21.6951080040       13.1066682506  MEMB      43              0.0000000000
      5301        43  PMPE      H3R            20.4027692048      -22.1707050606       13.3329869499  MEMB      43              0.0000000000
      5302        43  PMPE      H3S            19.7170655105      -20.7164475203       12.6696547172  MEMB      43              0.0000000000
      5303        43  PMPE      C24            18.7190317445      -22.4016591793       11.8766916652  MEMB      43              0.0000000000
      5304        43  PMPE      H4R            17.6750518219      -22.0789245269       11.6760203565  MEMB      43              0.0000000000
      5305        43  PMPE      H4S            18.7291526075      -23.4779061276       12.1522117608  MEMB      43              0.0000000000
      5306        43  PMPE      C25            19.5231358759      -22.2690659256       10.6152578951  MEMB      43              0.0000000000
      5307        43  PMPE      H5R            19.1211849396      -22.9531387731        9.8375683778  MEMB      43              0.0000000000
      5308        43  PMPE      H5S            20.5793531302      -22.4690634741       10.8958418538  MEMB      43              0.0000000000
      5309        43  PMPE      C26            19.6187671514      -20.7650847923        9.9403774971  MEMB      43              0.0000000000
      5310        43  PMPE      H6R            20.4401906902      -20.8576052495        9.1980675997  MEMB      43              0.0000000000
      5311        43  PMPE      H6S            19.9069246352      -19.9780635175       10.6696808955  MEMB      43              0.0000000000
      5312        43  PMPE      C27            18.2689524154      -20.4471119727        9.2109711571  MEMB      43              0.0000000000
      5313        43  PMPE      H7R            17.6728054695      -19.9313501621        9.9938631922  MEMB      43              0.0000000000
      5314        43  PMPE      H7S            17.7854196340      -21.4183258500        8.9716796070  MEMB      43              0.0000000000
      5315        43  PMPE      C28            18.3841537165      -19.4806871715        8.0587106539  MEMB      43              0.0000000000
      5316        43  PMPE      H8R            17.3930693965      -19.2819750877        7.5976396044  MEMB      43              0.0000000000
      5317        43  PMPE      H8S            18.9548453451      -20.0457808231        7.2910513759  MEMB      43              0.0000000000
      5318        43  PMPE      C29            19.0007595013      -18.0808443471        8.4706474507  MEMB      43              0.0000000000
      5319        43  PMPE      H9R            19.6607934277      -18.0690269821        9.3642562692  MEMB      43              0.0000000000
      5320        43  PMPE      C217           17.8477511822      -17.1391738203        8.8151284656  MEMB      43              0.0000000000
      5321        43  PMPE      H17R           18.0386442354      -16.4270762522        9.6084548472  MEMB      43              0.0000000000
      5322        43  PMPE      H17S           16.9293243911      -17.5033585457        8.3715629556  MEMB      43              0.0000000000
      5323        43  PMPE      C210           18.7619366210      -16.7882780706        7.5979776081  MEMB      43              0.0000000000
      5324        43  PMPE      H10R           19.4185092166      -15.9116204674        7.7842680614  MEMB      43              0.0000000000
      5325        43  PMPE      C211           18.0361299033      -16.9270764737        6.2773456799  MEMB      43              0.0000000000
      5326        43  PMPE      H11R           17.7458908873      -15.9680868546        5.7973242791  MEMB      43              0.0000000000
      5327        43  PMPE      H11S           17.1486434686      -17.5948665529        6.3046423380  MEMB      43              0.0000000000
      5328        43  PMPE      C212           18.9907703153      -17.5742130899        5.1743352108  MEMB      43              0.0000000000
      5329        43  PMPE      H12R           18.3041671000      -18.0840649736        4.4651469616  MEMB      43              0.0000000000
      5330        43  PMPE      H12S           19.4784764144      -18.4230426678        5.6996465035  MEMB      43              0.0000000000
      5331        43  PMPE      C213           19.9984682164      -16.6382804307        4.4796302685  MEMB      43              0.0000000000
      5332        43  PMPE      H13R           20.8113618910      -16.2997367022        5.1570609724  MEMB      43              0.0000000000
      5333        43  PMPE      H13S           19.4209169642      -15.7542632391        4.1342752535  MEMB      43              0.0000000000
      5334        43  PMPE      C214           20.5874446919      -17.1601513298        3.1834577048  MEMB      43              0.0000000000
      5335        43  PMPE      H14R           21.1168367582      -16.4352508262        2.5287943049  MEMB      43              0.0000000000
      5336        43  PMPE      H14S           19.7281242945      -17.4391066273        2.5368720860  MEMB      43              0.0000000000
      5337        43  PMPE      C215           21.5173935193      -18.4702588823        3.2559682901  MEMB      43              0.0000000000
      5338        43  PMPE      H15R           21.0709680596      -19.1280939244        4.0320346768  MEMB      43              0.0000000000
      5339        43  PMPE      H15S           22.5193706910      -18.0672579650        3.5166476345  MEMB      43              0.0000000000
      5340        43  PMPE      C216           21.5965061040      -19.2641610639        1.9213485280  MEMB      43              0.0000000000
      5341        43  PMPE      H16R           21.9923914386      -20.2754502265        2.1556340940  MEMB      43              0.0000000000
      5342        43  PMPE      H16S           20.5067679353      -19.3491569541        1.7224321762  MEMB      43              0.0000000000
      5343        43  PMPE      H16T           22.2723608452      -18.6652399385        1.2741740558  MEMB      43              0.0000000000
      5344        43  PMPE      C33            21.5494120782      -16.6797642513       11.7325354190  MEMB      43              0.0000000000
      5345        43  PMPE      H3X            21.1325276092      -17.6015066569       11.2732762449  MEMB      43              0.0000000000
      5346        43  PMPE      H3Y            22.2924531665      -17.0280933816       12.4814534395  MEMB      43              0.0000000000
      5347        43  PMPE      C34            22.0944466391      -15.9449196291       10.4784740467  MEMB      43              0.0000000000
      5348        43  PMPE      H4X            22.6166028953      -15.0384774048       10.8526876914  MEMB      43              0.0000000000
      5349        43  PMPE      H4Y            21.1817555177      -15.6686831771        9.9083777517  MEMB      43              0.0000000000
      5350        43  PMPE      C35            23.1579707890      -16.7164622274        9.6506609192  MEMB      43              0.0000000000
      5351        43  PMPE      H5X            24.0363111694      -17.0672494909       10.2335731939  MEMB      43              0.0000000000
      5352        43  PMPE      H5Y            23.5826917795      -15.9169610977        9.0066639230  MEMB      43              0.0000000000
      5353        43  PMPE      C36            22.6726684378      -17.8810683585        8.7817585064  MEMB      43              0.0000000000
      5354        43  PMPE      H6X            21.9444131800      -17.5009430516        8.0337809201  MEMB      43              0.0000000000
      5355        43  PMPE      H6Y            22.0925352855      -18.5964335836        9.4030627714  MEMB      43              0.0000000000
      5356        43  PMPE      C37            23.7182082492      -18.7298597906        8.0804999907  MEMB      43              0.0000000000
      5357        43  PMPE      H7X            24.4596442236      -18.9147992900        8.8869683034  MEMB      43              0.0000000000
      5358        43  PMPE      H7Y            24.3161008572      -18.1184842529        7.3712289191  MEMB      43              0.0000000000
      5359        43  PMPE      C38            23.2993527026      -20.0430033514        7.4569546794  MEMB      43              0.0000000000
      5360        43  PMPE      H8X            23.1727433735      -20.7704933679        8.2870449060  MEMB      43              0.0000000000
      5361        43  PMPE      H8Y            24.1718940432      -20.2494578550        6.8009296800  MEMB      43              0.0000000000
      5362        43  PMPE      C39            22.1099161663      -19.9534024629        6.5991241856  MEMB      43              0.0000000000
      5363        43  PMPE      H9X            22.1149728871      -19.1608427008        5.8205721229  MEMB      43              0.0000000000
      5364        43  PMPE      H9Y            21.3087880073      -19.5533207673        7.2567336444  MEMB      43              0.0000000000
      5365        43  PMPE      C310           21.6118674613      -21.3008284332        6.1253673714  MEMB      43              0.0000000000
      5366        43  PMPE      H10X           20.5166741239      -21.4763723694        6.0616717036  MEMB      43              0.0000000000
      5367        43  PMPE      H10Y           21.8074539155      -21.9911318678        6.9736292702  MEMB      43              0.0000000000
      5368        43  PMPE      C311           22.2937275930      -21.9398917785        4.9048324404  MEMB      43              0.0000000000
      5369        43  PMPE      H11X           23.4038455512      -21.9833606839        4.9131783926  MEMB      43              0.0000000000
      5370        43  PMPE      H11Y           22.0064389231      -21.3995237118        3.9775850429  MEMB      43              0.0000000000
      5371        43  PMPE      C312           21.8835181251      -23.2953916603        4.5294094271  MEMB      43              0.0000000000
      5372        43  PMPE      H12X           21.8921670101      -23.8781035871        5.4752920250  MEMB      43              0.0000000000
      5373        43  PMPE      H12Y           22.5926774396      -23.6602624938        3.7559220603  MEMB      43              0.0000000000
      5374        43  PMPE      C313           20.5044608189      -23.3529955667        3.8146290320  MEMB      43              0.0000000000
      5375        43  PMPE      H13X           20.3467666693      -22.5283582036        3.0870119873  MEMB      43              0.0000000000
      5376        43  PMPE      H13Y           19.7921069397      -23.1664446615        4.6465371663  MEMB      43              0.0000000000
      5377        43  PMPE      C314           20.0702206972      -24.6744395669        3.0805210643  MEMB      43              0.0000000000
      5378        43  PMPE      H14X           18.9721454637      -24.5944374779        2.9316851994  MEMB      43              0.0000000000
      5379        43  PMPE      H14Y           20.1794077887      -25.5286047407        3.7825175251  MEMB      43              0.0000000000
      5380        43  PMPE      C315           20.7022003937      -24.8562816100        1.7634271479  MEMB      43              0.0000000000
      5381        43  PMPE      H15X           21.8097525123      -24.7729042677        1.7370191612  MEMB      43              0.0000000000
      5382        43  PMPE      H15Y           20.4087800451      -24.0773317690        1.0275849034  MEMB      43              0.0000000000
      5383        43  PMPE      C316           20.2078790730      -26.1989555131        1.1095932258  MEMB      43              0.0000000000
      5384        43  PMPE      H16X           20.4856752156      -27.0613884393        1.7525239719  MEMB      43              0.0000000000
      5385        43  PMPE      H16Y           20.5845227272      -26.3296022087        0.0725822617  MEMB      43              0.0000000000
      5386        43  PMPE      H16Z           19.1076101155      -26.1698603766        0.9583236990  MEMB      43              0.0000000000
      5387        44  QMPE      N              -1.0807721576       28.2079928389       20.8716177505  MEMB      44              0.0000000000
      5388        44  QMPE      HN1            -1.5723035448       29.0975347574       21.0923258819  MEMB      44              0.0000000000
      5389        44  QMPE      HN2            -1.7463092236       27.4827343098       21.2072665753  MEMB      44              0.0000000000
      5390        44  QMPE      HN3            -0.1860733686       28.1830671061       21.4012334122  MEMB      44              0.0000000000
      5391        44  QMPE      C12            -0.9139601649       27.9979923596       19.3478290402  MEMB      44              0.0000000000
      5392        44  QMPE      H12A           -1.8034247954       28.4226521215       18.8351520617  MEMB      44              0.0000000000
      5393        44  QMPE      H12B           -0.8389470847       26.8972513118       19.2172028400  MEMB      44              0.0000000000
      5394        44  QMPE      C11             0.4064548052       28.5755421356       18.8231542488  MEMB      44              0.0000000000
      5395        44  QMPE      H11A            0.2804008189       28.4077161941       17.7321612429  MEMB      44              0.0000000000
      5396        44  QMPE      H11B            1.2009858126       27.9827102913       19.3247437228  MEMB      44              0.0000000000
      5397        44  QMPE      P               1.7313528630       30.7947752114       18.5396067160  MEMB      44              0.0000000000
      5398        44  QMPE      O13             2.1731714045       31.7531447334       19.5934666381  MEMB      44              0.0000000000
      5399        44  QMPE      O14             1.2430981428       31.2710520652       17.2450755799  MEMB      44              0.0000000000
      5400        44  QMPE      O11             2.9248364149       29.7261679333       18.3307546939  MEMB      44              0.0000000000
      5401        44  QMPE      O12             0.5989884641       29.8483855067       19.2484953291  MEMB      44              0.0000000000
      5402        44  QMPE      C1              3.9311084364       30.1237708621       17.3637274693  MEMB      44              0.0000000000
      5403        44  QMPE      HA              4.9065954423       29.6989104371       17.6834765895  MEMB      44              0.0000000000
      5404        44  QMPE      HB              4.0853670342       31.2179901624       17.2487943677  MEMB      44              0.0000000000
      5405        44  QMPE      C2              3.6588051476       29.5512380423       15.9444767135  MEMB      44              0.0000000000
      5406        44  QMPE      HS              2.9362031247       30.2480899282       15.4684884259  MEMB      44              0.0000000000
      5407        44  QMPE      O21             3.1064379103       28.1968814543       16.0231316111  MEMB      44              0.0000000000
      5408        44  QMPE      C21             2.4507430326       27.8367079166       14.9903531348  MEMB      44              0.0000000000
      5409        44  QMPE      O22             2.2393920891       28.4805743247       13.9860389674  MEMB      44              0.0000000000
      5410        44  QMPE      C22             1.7669632332       26.5257967383       15.2358050197  MEMB      44              0.0000000000
      5411        44  QMPE      H2R             0.7708609358       26.4580449807       14.7484538149  MEMB      44              0.0000000000
      5412        44  QMPE      H2S             1.5855539944       26.5315656233       16.3318789453  MEMB      44              0.0000000000
      5413        44  QMPE      C3              5.0185733206       29.6414311300       15.1754943599  MEMB      44              0.0000000000
      5414        44  QMPE      HX              5.7175770703       28.8617938493       15.5468170735  MEMB      44              0.0000000000
      5415        44  QMPE      HY              5.5120324559       30.6282704342       15.3057524020  MEMB      44              0.0000000000
      5416        44  QMPE      O31             4.8875039157       29.3101374888       13.7533603547  MEMB      44              0.0000000000
      5417        44  QMPE      C31             5.8341918873       29.6837816307       12.9106936592  MEMB      44              0.0000000000
      5418        44  QMPE      O32             6.8718269200       30.2613765988       13.1857688517  MEMB      44              0.0000000000
      5419        44  QMPE      C32             5.3311040365       29.2248374667       11.5027727808  MEMB      44              0.0000000000
      5420        44  QMPE      H2X             6.2372403674       28.7757082323       11.0428591991  MEMB      44              0.0000000000
      5421        44  QMPE      H2Y             4.6611759001       28.3387491578       11.5218727298  MEMB      44              0.0000000000
      5422        44  QMPE      C23             2.5776046732       25.3042457129       14.6486198654  MEMB      44              0.0000000000
      5423        44  QMPE      H3R             1.9342498295       24.4095746937       14.7899675818  MEMB      44              0.0000000000
      5424        44  QMPE      H3S             3.5172870213       25.1946216549       15.2311148102  MEMB      44              0.0000000000
      5425        44  QMPE      C24             3.1001088471       25.4882673364       13.1982847065  MEMB      44              0.0000000000
      5426        44  QMPE      H4R             3.8318170943       26.3225272004       13.1441134533  MEMB      44              0.0000000000
      5427        44  QMPE      H4S             2.3188666300       25.9502206087       12.5575193002  MEMB      44              0.0000000000
      5428        44  QMPE      C25             3.5845209901       24.2381585561       12.5224619735  MEMB      44              0.0000000000
      5429        44  QMPE      H5R             2.7569232918       23.7236108168       11.9889416684  MEMB      44              0.0000000000
      5430        44  QMPE      H5S             4.1663273762       23.6457332654       13.2606048120  MEMB      44              0.0000000000
      5431        44  QMPE      C26             4.5677283927       24.5247044637       11.3415682266  MEMB      44              0.0000000000
      5432        44  QMPE      H6R             4.8926126866       23.5144644133       11.0126511967  MEMB      44              0.0000000000
      5433        44  QMPE      H6S             5.5041384870       25.0404891181       11.6439308050  MEMB      44              0.0000000000
      5434        44  QMPE      C27             3.9565721571       25.2910030895       10.1842106725  MEMB      44              0.0000000000
      5435        44  QMPE      H7R             3.6455952036       26.3443520114       10.3517535958  MEMB      44              0.0000000000
      5436        44  QMPE      H7S             3.0396159592       24.8271929273        9.7618453325  MEMB      44              0.0000000000
      5437        44  QMPE      C28             4.9118264193       25.2004998420        9.0233256875  MEMB      44              0.0000000000
      5438        44  QMPE      H8R             5.0190104135       24.1102476677        8.8384389871  MEMB      44              0.0000000000
      5439        44  QMPE      H8S             5.9621333883       25.5468240845        9.1293252614  MEMB      44              0.0000000000
      5440        44  QMPE      C29             4.1832389253       25.9027541080        7.8903387677  MEMB      44              0.0000000000
      5441        44  QMPE      H9R             3.8068600336       26.9164031401        8.1456341787  MEMB      44              0.0000000000
      5442        44  QMPE      C217            3.3616404086       24.9733755067        7.0316547047  MEMB      44              0.0000000000
      5443        44  QMPE      H17R            3.4997761593       23.9611919395        7.3912271475  MEMB      44              0.0000000000
      5444        44  QMPE      H17S            2.4026247212       25.4392082348        6.8414510525  MEMB      44              0.0000000000
      5445        44  QMPE      C210            4.7098686022       25.6583743303        6.4901164097  MEMB      44              0.0000000000
      5446        44  QMPE      H10R            4.4575052227       26.4781625626        5.7840139086  MEMB      44              0.0000000000
      5447        44  QMPE      C211            5.7405089243       24.6469536788        6.0848365260  MEMB      44              0.0000000000
      5448        44  QMPE      H11R            5.6177785625       23.6656185001        6.5910381128  MEMB      44              0.0000000000
      5449        44  QMPE      H11S            5.5334973923       24.4507316949        5.0110748082  MEMB      44              0.0000000000
      5450        44  QMPE      C212            7.2009068872       25.2874741837        6.2552500710  MEMB      44              0.0000000000
      5451        44  QMPE      H12R            7.8943957586       24.4228725514        6.1787113850  MEMB      44              0.0000000000
      5452        44  QMPE      H12S            7.3519787472       25.5918348169        7.3130129610  MEMB      44              0.0000000000
      5453        44  QMPE      C213            7.6779673005       26.3534937175        5.3103947078  MEMB      44              0.0000000000
      5454        44  QMPE      H13R            8.4347940807       27.0329149465        5.7575207612  MEMB      44              0.0000000000
      5455        44  QMPE      H13S            6.8267341003       27.0367039639        5.1031602266  MEMB      44              0.0000000000
      5456        44  QMPE      C214            8.0498315924       25.7363893647        3.8730908607  MEMB      44              0.0000000000
      5457        44  QMPE      H14R            7.3482002894       24.8912971282        3.7061976516  MEMB      44              0.0000000000
      5458        44  QMPE      H14S            9.0604812258       25.2895020457        3.9879835539  MEMB      44              0.0000000000
      5459        44  QMPE      C215            7.9684523800       26.5963975216        2.5597624910  MEMB      44              0.0000000000
      5460        44  QMPE      H15R            6.9384164799       27.0028359539        2.6500657529  MEMB      44              0.0000000000
      5461        44  QMPE      H15S            8.0395561382       26.0112990407        1.6179959699  MEMB      44              0.0000000000
      5462        44  QMPE      C216            8.9546066011       27.7636276742        2.5875941418  MEMB      44              0.0000000000
      5463        44  QMPE      H16R            9.8300922015       27.4104219623        3.1733340714  MEMB      44              0.0000000000
      5464        44  QMPE      H16S            8.6638280920       28.6590343086        3.1775230401  MEMB      44              0.0000000000
      5465        44  QMPE      H16T            9.1321673955       28.1610370733        1.5654105510  MEMB      44              0.0000000000
      5466        44  QMPE      C33             4.6912407455       30.3720702315       10.6362793460  MEMB      44              0.0000000000
      5467        44  QMPE      H3X             4.5525954949       30.0431226755        9.5841897799  MEMB      44              0.0000000000
      5468        44  QMPE      H3Y             5.3431011128       31.2495051624       10.4375156514  MEMB      44              0.0000000000
      5469        44  QMPE      C34             3.3177042897       30.6232873139       11.2521079815  MEMB      44              0.0000000000
      5470        44  QMPE      H4X             3.5532012675       31.0732445747       12.2402378751  MEMB      44              0.0000000000
      5471        44  QMPE      H4Y             2.7538040780       29.6991539917       11.5017382240  MEMB      44              0.0000000000
      5472        44  QMPE      C35             2.4852806263       31.6077149282       10.5672441646  MEMB      44              0.0000000000
      5473        44  QMPE      H5X             3.0511714979       32.4470905603       10.1094912328  MEMB      44              0.0000000000
      5474        44  QMPE      H5Y             1.8571314410       32.1470993068       11.3080635502  MEMB      44              0.0000000000
      5475        44  QMPE      C36             1.7403971680       30.9957431161        9.3269383666  MEMB      44              0.0000000000
      5476        44  QMPE      H6X             2.4422029779       30.4777744318        8.6388264410  MEMB      44              0.0000000000
      5477        44  QMPE      H6Y             1.2084655150       31.7837412714        8.7521097323  MEMB      44              0.0000000000
      5478        44  QMPE      C37             0.7054769082       29.9844904389        9.7829821733  MEMB      44              0.0000000000
      5479        44  QMPE      H7X             1.2177205880       29.1482224076       10.3050773556  MEMB      44              0.0000000000
      5480        44  QMPE      H7Y             0.0578850096       30.3440364847       10.6110355031  MEMB      44              0.0000000000
      5481        44  QMPE      C38            -0.1940483389       29.4738883654        8.6362039207  MEMB      44              0.0000000000
      5482        44  QMPE      H8X            -0.9972580386       28.9391769037        9.1868938625  MEMB      44              0.0000000000
      5483        44  QMPE      H8Y            -0.6121271027       30.3743393043        8.1374865971  MEMB      44              0.0000000000
      5484        44  QMPE      C39             0.3786358548       28.5614737496        7.5469800470  MEMB      44              0.0000000000
      5485        44  QMPE      H9X             0.7050344144       27.5705082853        7.9287816912  MEMB      44              0.0000000000
      5486        44  QMPE      H9Y             1.1121746862       29.0527062379        6.8724928722  MEMB      44              0.0000000000
      5487        44  QMPE      C310           -0.8284131553       28.1002590760        6.6769884788  MEMB      44              0.0000000000
      5488        44  QMPE      H10X           -1.4211426189       29.0300615243        6.5411206784  MEMB      44              0.0000000000
      5489        44  QMPE      H10Y           -1.4528535143       27.3426533152        7.1970162960  MEMB      44              0.0000000000
      5490        44  QMPE      C311           -0.3253645546       27.4601118064        5.3010028330  MEMB      44              0.0000000000
      5491        44  QMPE      H11X           -1.1829998261       26.9181885884        4.8481218468  MEMB      44              0.0000000000
      5492        44  QMPE      H11Y            0.3485559311       26.6274561586        5.5956837574  MEMB      44              0.0000000000
      5493        44  QMPE      C312            0.4844685865       28.3816103318        4.3616375517  MEMB      44              0.0000000000
      5494        44  QMPE      H12X            1.4717971210       28.7734896540        4.6871125643  MEMB      44              0.0000000000
      5495        44  QMPE      H12Y           -0.2321696990       29.2059045025        4.1584383076  MEMB      44              0.0000000000
      5496        44  QMPE      C313            0.6509313761       27.8059848609        2.8941892882  MEMB      44              0.0000000000
      5497        44  QMPE      H13X            0.8417137191       28.7036587147        2.2680062554  MEMB      44              0.0000000000
      5498        44  QMPE      H13Y            1.4727380477       27.0663137070        2.7853729410  MEMB      44              0.0000000000
      5499        44  QMPE      C314           -0.5690149073       26.9237442137        2.3684423298  MEMB      44              0.0000000000
      5500        44  QMPE      H14X           -1.4285227002       27.5967383895        2.5749508773  MEMB      44              0.0000000000
      5501        44  QMPE      H14Y           -0.6444807826       26.0663249173        3.0709073570  MEMB      44              0.0000000000
      5502        44  QMPE      C315           -0.5259286845       26.3742659368        0.9514974000  MEMB      44              0.0000000000
      5503        44  QMPE      H15X           -1.3179751826       25.6413838321        0.6871725216  MEMB      44              0.0000000000
      5504        44  QMPE      H15Y           -0.6304296366       27.2308946040        0.2517915509  MEMB      44              0.0000000000
      5505        44  QMPE      H15Z            0.3654696905       25.7889818675        0.6397693189  MEMB      44              0.0000000000
      5506        45  PVCL2     C3            -28.0402726354       -2.1032570011       20.2199446477  MEMB      45              0.0000000000
      5507        45  PVCL2     HG31          -27.4502724967       -2.8097972577       19.5978339638  MEMB      45              0.0000000000
      5508        45  PVCL2     HG32          -27.3600284025       -1.7975387455       21.0434280997  MEMB      45              0.0000000000
      5509        45  PVCL2     P3            -29.2678950328       -4.0898019010       21.4058024524  MEMB      45              0.0000000000
      5510        45  PVCL2     OP33          -30.6955586242       -4.4584777471       21.6599304191  MEMB      45              0.0000000000
      5511        45  PVCL2     OP34          -28.4651862518       -4.0277752480       22.7036569971  MEMB      45              0.0000000000
      5512        45  PVCL2     OP31          -29.2080883376       -2.6648105663       20.7195968632  MEMB      45              0.0000000000
      5513        45  PVCL2     OP32          -28.6321856402       -5.1668006767       20.4551178020  MEMB      45              0.0000000000
      5514        45  PVCL2     C31           -29.3494658275       -5.5043695737       19.2376971383  MEMB      45              0.0000000000
      5515        45  PVCL2     H31J          -30.0473378563       -6.3480460165       19.4261268257  MEMB      45              0.0000000000
      5516        45  PVCL2     H31K          -30.0702463705       -4.7499123488       18.8561335784  MEMB      45              0.0000000000
      5517        45  PVCL2     C2            -28.4745775081       -0.8571988465       19.3513534816  MEMB      45              0.0000000000
      5518        45  PVCL2     HG22          -28.8264775238       -0.1579373662       20.1397194157  MEMB      45              0.0000000000
      5519        45  PVCL2     OG12          -27.3929055496       -0.2711974222       18.6302192681  MEMB      45              0.0000000000
      5520        45  PVCL2     HO12          -27.0758724539        0.4219153356       19.2139011868  MEMB      45              0.0000000000
      5521        45  PVCL2     C1            -29.7029822859       -1.0705887369       18.2448533186  MEMB      45              0.0000000000
      5522        45  PVCL2     HG11          -29.6366341189       -2.0867602632       17.8006524757  MEMB      45              0.0000000000
      5523        45  PVCL2     HG12          -29.4408296908       -0.2877769612       17.5013463149  MEMB      45              0.0000000000
      5524        45  PVCL2     P1            -32.2055406997       -0.8300476109       17.9431339577  MEMB      45              0.0000000000
      5525        45  PVCL2     OP13          -32.2435936774       -1.9883369458       16.9571073513  MEMB      45              0.0000000000
      5526        45  PVCL2     OP14          -33.4503658152       -0.7554859059       18.7521239263  MEMB      45              0.0000000000
      5527        45  PVCL2     OP11          -30.9731692623       -0.9066328207       18.8935633115  MEMB      45              0.0000000000
      5528        45  PVCL2     OP12          -31.9442835768        0.6116390391       17.2706979448  MEMB      45              0.0000000000
      5529        45  PVCL2     C11           -31.6868386530        1.7408683906       18.1332351023  MEMB      45              0.0000000000
      5530        45  PVCL2     H11J          -31.0887071993        1.4541428504       19.0244972992  MEMB      45              0.0000000000
      5531        45  PVCL2     H11K          -32.6417978347        2.1008006398       18.5723511924  MEMB      45              0.0000000000
      5532        45  PVCL2     C12           -31.2277302940        2.9262177415       17.2456913822  MEMB      45              0.0000000000
      5533        45  PVCL2     H12J          -31.5526360970        3.8734130311       17.7269168608  MEMB      45              0.0000000000
      5534        45  PVCL2     O12           -31.7835631487        2.8347092976       15.9958066871  MEMB      45              0.0000000000
      5535        45  PVCL2     CA1           -33.0014969818        3.4746117972       15.7874669094  MEMB      45              0.0000000000
      5536        45  PVCL2     OA1           -33.7216603568        3.9628476426       16.6457396611  MEMB      45              0.0000000000
      5537        45  PVCL2     CA2           -33.2806605426        3.6114346533       14.2998337996  MEMB      45              0.0000000000
      5538        45  PVCL2     H2A           -32.7740483215        4.5096082422       13.8863740500  MEMB      45              0.0000000000
      5539        45  PVCL2     H2B           -34.3692891334        3.7847319470       14.1613529153  MEMB      45              0.0000000000
      5540        45  PVCL2     C13           -29.7528435473        3.0800998337       17.0808296560  MEMB      45              0.0000000000
      5541        45  PVCL2     H13J          -29.2329906865        3.1277431381       18.0615457186  MEMB      45              0.0000000000
      5542        45  PVCL2     H13K          -29.5156009474        4.0592660278       16.6125660644  MEMB      45              0.0000000000
      5543        45  PVCL2     O13           -29.2187762080        1.9209788232       16.3866004888  MEMB      45              0.0000000000
      5544        45  PVCL2     CB1           -28.8441998158        2.1838340940       15.1312783057  MEMB      45              0.0000000000
      5545        45  PVCL2     OB1           -28.9596023604        3.1840207022       14.5156495423  MEMB      45              0.0000000000
      5546        45  PVCL2     CB2           -28.2346689977        0.9843765756       14.4963275620  MEMB      45              0.0000000000
      5547        45  PVCL2     H2D           -28.6883722696        0.0406308722       14.8675660868  MEMB      45              0.0000000000
      5548        45  PVCL2     H2E           -27.1936801940        1.0005864280       14.8841426195  MEMB      45              0.0000000000
      5549        45  PVCL2     C32           -28.2606346551       -5.9599862522       18.3024035063  MEMB      45              0.0000000000
      5550        45  PVCL2     H32J          -27.8743709123       -6.8778218799       18.7950482904  MEMB      45              0.0000000000
      5551        45  PVCL2     O32           -27.2371268489       -4.8826950105       18.1411364321  MEMB      45              0.0000000000
      5552        45  PVCL2     CC1           -26.0300731080       -5.3944583674       17.8047170721  MEMB      45              0.0000000000
      5553        45  PVCL2     OC1           -25.7187763110       -6.5670059674       17.8858289884  MEMB      45              0.0000000000
      5554        45  PVCL2     CC2           -25.0748780900       -4.2227565674       17.4011207569  MEMB      45              0.0000000000
      5555        45  PVCL2     H2R           -24.7405941310       -3.6665772752       18.3029188909  MEMB      45              0.0000000000
      5556        45  PVCL2     H2S           -25.5822795642       -3.4989875568       16.7280509780  MEMB      45              0.0000000000
      5557        45  PVCL2     C33           -28.8085115007       -6.2238905575       16.8880587343  MEMB      45              0.0000000000
      5558        45  PVCL2     H33J          -27.9107165720       -6.6550315807       16.3957151527  MEMB      45              0.0000000000
      5559        45  PVCL2     H33K          -29.5388961050       -7.0493290972       17.0277389878  MEMB      45              0.0000000000
      5560        45  PVCL2     O33           -29.2123472658       -5.0157755614       16.1925078379  MEMB      45              0.0000000000
      5561        45  PVCL2     CD1           -29.6814299180       -5.3131335246       15.0036491671  MEMB      45              0.0000000000
      5562        45  PVCL2     OD1           -29.8540218034       -6.4409069608       14.5413803164  MEMB      45              0.0000000000
      5563        45  PVCL2     CD2           -30.0056221060       -4.0284507211       14.2421398423  MEMB      45              0.0000000000
      5564        45  PVCL2     H2X           -29.1083017444       -3.3870867773       14.3755167336  MEMB      45              0.0000000000
      5565        45  PVCL2     H2Y           -30.9076003668       -3.5387777342       14.6675530569  MEMB      45              0.0000000000
      5566        45  PVCL2     CA3           -32.9352681406        2.3684722672       13.4303507037  MEMB      45              0.0000000000
      5567        45  PVCL2     H3A           -32.2004633167        1.6993761236       13.9270331124  MEMB      45              0.0000000000
      5568        45  PVCL2     H3B           -32.4800882302        2.7311929268       12.4840075216  MEMB      45              0.0000000000
      5569        45  PVCL2     CA4           -34.1570600746        1.4989694791       13.1704368747  MEMB      45              0.0000000000
      5570        45  PVCL2     H4A           -34.6707963660        1.3405668310       14.1427047217  MEMB      45              0.0000000000
      5571        45  PVCL2     H4B           -33.9272189380        0.5318324002       12.6743122972  MEMB      45              0.0000000000
      5572        45  PVCL2     CA5           -35.2152492247        2.2245046638       12.2727259877  MEMB      45              0.0000000000
      5573        45  PVCL2     H5A           -35.6624796481        3.1379764476       12.7198001245  MEMB      45              0.0000000000
      5574        45  PVCL2     H5B           -35.8310653959        1.3129693292       12.1171787059  MEMB      45              0.0000000000
      5575        45  PVCL2     CA6           -34.8412927276        2.6684385777       10.8604402591  MEMB      45              0.0000000000
      5576        45  PVCL2     H6A           -34.3607916096        3.6686053532       10.9161756662  MEMB      45              0.0000000000
      5577        45  PVCL2     H6B           -35.6991272821        2.9417188602       10.2094726699  MEMB      45              0.0000000000
      5578        45  PVCL2     CA7           -33.9998082117        1.6445738798       10.0266366934  MEMB      45              0.0000000000
      5579        45  PVCL2     H7A           -34.5978228436        0.7381588604       10.2613948951  MEMB      45              0.0000000000
      5580        45  PVCL2     H7B           -33.0675122411        1.3850652320       10.5723475176  MEMB      45              0.0000000000
      5581        45  PVCL2     CA8           -33.6857850979        1.7848701436        8.5315754422  MEMB      45              0.0000000000
      5582        45  PVCL2     H8A           -33.2059874569        0.8858876927        8.0889178974  MEMB      45              0.0000000000
      5583        45  PVCL2     H8B           -33.0225415505        2.6563349961        8.3445527347  MEMB      45              0.0000000000
      5584        45  PVCL2     CA9           -34.8953042305        2.1872738680        7.6447017687  MEMB      45              0.0000000000
      5585        45  PVCL2     H9A           -34.4065501334        2.3910012049        6.6680054711  MEMB      45              0.0000000000
      5586        45  PVCL2     H9B           -35.2964596582        3.1374584067        8.0576728918  MEMB      45              0.0000000000
      5587        45  PVCL2     CA10          -36.0049680930        1.1209968598        7.4572632001  MEMB      45              0.0000000000
      5588        45  PVCL2     H10A          -36.8591611941        1.6129606162        6.9447724481  MEMB      45              0.0000000000
      5589        45  PVCL2     H10B          -36.3862032693        0.8159017496        8.4552096695  MEMB      45              0.0000000000
      5590        45  PVCL2     CA11          -35.7105583489       -0.1349757015        6.6858213149  MEMB      45              0.0000000000
      5591        45  PVCL2     H11A          -36.2278243239       -1.0141405447        7.0975299986  MEMB      45              0.0000000000
      5592        45  PVCL2     CA12          -34.9873592083       -0.4774771117        5.6089543883  MEMB      45              0.0000000000
      5593        45  PVCL2     H12A          -35.0002851425       -1.5174950361        5.2509106563  MEMB      45              0.0000000000
      5594        45  PVCL2     CA13          -34.1778384453        0.5114567197        4.8416871363  MEMB      45              0.0000000000
      5595        45  PVCL2     H13A          -33.1559950523        0.6827202177        5.2427186293  MEMB      45              0.0000000000
      5596        45  PVCL2     H13B          -34.5996896390        1.5382185452        4.7956091128  MEMB      45              0.0000000000
      5597        45  PVCL2     CA14          -33.8798162325        0.2514987299        3.3589128897  MEMB      45              0.0000000000
      5598        45  PVCL2     H14A          -33.6207891294       -0.8215620221        3.2333478390  MEMB      45              0.0000000000
      5599        45  PVCL2     H14B          -33.1971578666        0.9753270911        2.8645743390  MEMB      45              0.0000000000
      5600        45  PVCL2     CA15          -35.2226975962        0.4985887957        2.5623466699  MEMB      45              0.0000000000
      5601        45  PVCL2     H15A          -35.7323659126        1.3924950601        2.9812625580  MEMB      45              0.0000000000
      5602        45  PVCL2     H15B          -35.8968421986       -0.3830778630        2.6124926586  MEMB      45              0.0000000000
      5603        45  PVCL2     CA16          -35.1153902017        0.6619286150        1.0221658590  MEMB      45              0.0000000000
      5604        45  PVCL2     H16A          -36.0679393491        0.5154624653        0.4694285803  MEMB      45              0.0000000000
      5605        45  PVCL2     H16B          -34.3560461899       -0.0703881299        0.6736985403  MEMB      45              0.0000000000
      5606        45  PVCL2     CA17          -34.7743526633        2.1622005364        0.5238667553  MEMB      45              0.0000000000
      5607        45  PVCL2     H17A          -35.6142991086        2.8132215249        0.8478774413  MEMB      45              0.0000000000
      5608        45  PVCL2     H17B          -34.8285070088        2.1090180968       -0.5845386119  MEMB      45              0.0000000000
      5609        45  PVCL2     CA18          -33.4573585388        2.8641800413        1.1170828961  MEMB      45              0.0000000000
      5610        45  PVCL2     H18A          -33.6083609901        3.1200949931        2.1876091615  MEMB      45              0.0000000000
      5611        45  PVCL2     H18B          -33.1797338017        3.8073294450        0.5996735444  MEMB      45              0.0000000000
      5612        45  PVCL2     H18C          -32.6371617815        2.1282703176        0.9755392095  MEMB      45              0.0000000000
      5613        45  PVCL2     CB3           -28.1592384527        1.0496119251       12.9497492087  MEMB      45              0.0000000000
      5614        45  PVCL2     H3D           -27.5078779636        0.2520955841       12.5325939514  MEMB      45              0.0000000000
      5615        45  PVCL2     H3E           -27.8323771529        2.0407428444       12.5687734211  MEMB      45              0.0000000000
      5616        45  PVCL2     CB4           -29.5159013912        0.6449735844       12.4059811906  MEMB      45              0.0000000000
      5617        45  PVCL2     H4D           -30.1958057977        1.5016206612       12.6014471657  MEMB      45              0.0000000000
      5618        45  PVCL2     H4E           -29.8369329510       -0.2568888498       12.9698108860  MEMB      45              0.0000000000
      5619        45  PVCL2     CB5           -29.5947482265        0.4835357411       10.8372319122  MEMB      45              0.0000000000
      5620        45  PVCL2     H5D           -30.6442265817        0.3937262453       10.4838898876  MEMB      45              0.0000000000
      5621        45  PVCL2     H5E           -29.0522962214       -0.3982576098       10.4341093063  MEMB      45              0.0000000000
      5622        45  PVCL2     CB6           -29.0985372413        1.6841423338       10.0362219945  MEMB      45              0.0000000000
      5623        45  PVCL2     H6D           -28.9744591240        1.3841665675        8.9737059717  MEMB      45              0.0000000000
      5624        45  PVCL2     H6E           -28.0932421357        2.0163603311       10.3728730034  MEMB      45              0.0000000000
      5625        45  PVCL2     CB7           -29.9455887308        2.9417145446       10.3065803370  MEMB      45              0.0000000000
      5626        45  PVCL2     H7D           -29.8645109798        3.3412857705       11.3400647835  MEMB      45              0.0000000000
      5627        45  PVCL2     H7E           -31.0302167487        2.7730971289       10.1349086088  MEMB      45              0.0000000000
      5628        45  PVCL2     CB8           -29.5558461880        4.0814299032        9.3781613567  MEMB      45              0.0000000000
      5629        45  PVCL2     H8D           -28.6408304619        4.5848523146        9.7571510057  MEMB      45              0.0000000000
      5630        45  PVCL2     H8E           -30.2903599973        4.9100931309        9.4683161746  MEMB      45              0.0000000000
      5631        45  PVCL2     CB9           -29.5298129506        3.7272172940        7.8777979717  MEMB      45              0.0000000000
      5632        45  PVCL2     H9D           -28.6838643530        3.0855604176        7.5507382220  MEMB      45              0.0000000000
      5633        45  PVCL2     H9E           -29.4181068656        4.8081957259        7.6468682287  MEMB      45              0.0000000000
      5634        45  PVCL2     CB10          -30.8460546697        3.3805550472        7.1125766973  MEMB      45              0.0000000000
      5635        45  PVCL2     H10D          -31.6570321915        3.9971722006        7.5557692971  MEMB      45              0.0000000000
      5636        45  PVCL2     H10E          -31.1272434785        2.3157869693        7.2592805850  MEMB      45              0.0000000000
      5637        45  PVCL2     CB11          -30.7308277934        3.8398972866        5.6154155797  MEMB      45              0.0000000000
      5638        45  PVCL2     H11D          -30.4862263000        4.9189082544        5.7165421011  MEMB      45              0.0000000000
      5639        45  PVCL2     H11E          -31.7582181510        3.7356399241        5.2056346673  MEMB      45              0.0000000000
      5640        45  PVCL2     CB12          -29.6333353341        3.0910555311        4.8405026989  MEMB      45              0.0000000000
      5641        45  PVCL2     H12D          -30.0981900102        2.0896285639        4.7165054553  MEMB      45              0.0000000000
      5642        45  PVCL2     H12E          -28.6980598710        3.0512985760        5.4388344795  MEMB      45              0.0000000000
      5643        45  PVCL2     CB13          -29.2584917734        3.6174801842        3.3877302435  MEMB      45              0.0000000000
      5644        45  PVCL2     H13D          -28.9128415417        4.6732842587        3.3988992863  MEMB      45              0.0000000000
      5645        45  PVCL2     H13E          -30.2412185582        3.5592403049        2.8727769669  MEMB      45              0.0000000000
      5646        45  PVCL2     CB14          -28.1763458613        2.7818808115        2.7260064085  MEMB      45              0.0000000000
      5647        45  PVCL2     H14D          -28.3861276099        2.7734732892        1.6350229256  MEMB      45              0.0000000000
      5648        45  PVCL2     H14E          -28.3893252323        1.7090489034        2.9209197853  MEMB      45              0.0000000000
      5649        45  PVCL2     CB15          -26.7762247893        3.2567440860        3.0806392693  MEMB      45              0.0000000000
      5650        45  PVCL2     H15D          -26.5515059654        2.8691793529        4.0973077352  MEMB      45              0.0000000000
      5651        45  PVCL2     H15E          -26.6965212148        4.3646280334        3.1043432361  MEMB      45              0.0000000000
      5652        45  PVCL2     CB16          -25.7889120460        2.5283249284        2.1603482191  MEMB      45              0.0000000000
      5653        45  PVCL2     H16D          -26.0400109170        2.8743166044        1.1348924850  MEMB      45              0.0000000000
      5654        45  PVCL2     H16E          -25.9621428150        1.4334572975        2.0856686966  MEMB      45              0.0000000000
      5655        45  PVCL2     H16F          -24.7090440547        2.7207374924        2.3369372962  MEMB      45              0.0000000000
      5656        45  PVCL2     CC3           -23.9105339764       -4.9053263910       16.6876921840  MEMB      45              0.0000000000
      5657        45  PVCL2     H3R           -23.4310021266       -5.7189257485       17.2728638584  MEMB      45              0.0000000000
      5658        45  PVCL2     H3S           -23.1750280520       -4.0788948347       16.5858929543  MEMB      45              0.0000000000
      5659        45  PVCL2     CC4           -24.0843106978       -5.5557396244       15.2515981967  MEMB      45              0.0000000000
      5660        45  PVCL2     H4R           -24.6611404193       -6.5002883749       15.3486359188  MEMB      45              0.0000000000
      5661        45  PVCL2     H4S           -23.1971268942       -6.0175003841       14.7678599568  MEMB      45              0.0000000000
      5662        45  PVCL2     CC5           -24.8485339438       -4.6785523309       14.2673562684  MEMB      45              0.0000000000
      5663        45  PVCL2     H5R           -25.7527073679       -4.3734119221       14.8362856783  MEMB      45              0.0000000000
      5664        45  PVCL2     H5S           -25.2176922379       -5.3266289178       13.4439245116  MEMB      45              0.0000000000
      5665        45  PVCL2     CC6           -24.0908140341       -3.4114663140       13.8307347394  MEMB      45              0.0000000000
      5666        45  PVCL2     H6R           -23.5792515046       -3.1466974615       14.7807464608  MEMB      45              0.0000000000
      5667        45  PVCL2     H6S           -24.7391771971       -2.5216283425       13.6819593856  MEMB      45              0.0000000000
      5668        45  PVCL2     CC7           -23.1015731376       -3.7069736597       12.7076920160  MEMB      45              0.0000000000
      5669        45  PVCL2     H7R           -22.5731546296       -4.6491653589       12.9672492448  MEMB      45              0.0000000000
      5670        45  PVCL2     H7S           -22.4687156778       -2.7947526730       12.6668844052  MEMB      45              0.0000000000
      5671        45  PVCL2     CC8           -23.7922115838       -3.9498986573       11.3762066003  MEMB      45              0.0000000000
      5672        45  PVCL2     H8R           -24.1980438415       -4.9831233701       11.4216785892  MEMB      45              0.0000000000
      5673        45  PVCL2     H8S           -22.8956857968       -3.8161989204       10.7337991887  MEMB      45              0.0000000000
      5674        45  PVCL2     CC9           -24.7981422628       -2.9496553912       11.0323040067  MEMB      45              0.0000000000
      5675        45  PVCL2     H9R           -24.5136997386       -1.8924145586       11.2211292332  MEMB      45              0.0000000000
      5676        45  PVCL2     H9S           -25.6514836011       -3.2022672827       11.6973726438  MEMB      45              0.0000000000
      5677        45  PVCL2     CC10          -25.3099460539       -3.2199894733        9.6749903343  MEMB      45              0.0000000000
      5678        45  PVCL2     H10R          -26.2355856668       -2.6185943302        9.5491472958  MEMB      45              0.0000000000
      5679        45  PVCL2     H10S          -25.6098318424       -4.2664047642        9.4527190429  MEMB      45              0.0000000000
      5680        45  PVCL2     CC11          -24.4836423346       -2.6399182136        8.5437085956  MEMB      45              0.0000000000
      5681        45  PVCL2     H11R          -24.1461549347       -3.4671316959        7.9019765132  MEMB      45              0.0000000000
      5682        45  PVCL2     CC12          -24.2960234371       -1.3857458954        8.1969987549  MEMB      45              0.0000000000
      5683        45  PVCL2     H12R          -23.6633616864       -1.2012712285        7.3162560705  MEMB      45              0.0000000000
      5684        45  PVCL2     CC13          -24.8253224869       -0.1596238077        8.8303878995  MEMB      45              0.0000000000
      5685        45  PVCL2     H13R          -23.9717436937        0.5451599225        8.7354998165  MEMB      45              0.0000000000
      5686        45  PVCL2     H13S          -25.0973678361       -0.3657081734        9.8876678066  MEMB      45              0.0000000000
      5687        45  PVCL2     CC14          -26.0639684906        0.5783246514        8.0682778716  MEMB      45              0.0000000000
      5688        45  PVCL2     H14R          -26.5884303320        1.2089047903        8.8176966968  MEMB      45              0.0000000000
      5689        45  PVCL2     H14S          -26.7904915145       -0.1877011849        7.7223154865  MEMB      45              0.0000000000
      5690        45  PVCL2     CC15          -25.6077781426        1.3600846059        6.8860269582  MEMB      45              0.0000000000
      5691        45  PVCL2     H15R          -24.6662545212        1.8926063599        7.1395523558  MEMB      45              0.0000000000
      5692        45  PVCL2     H15S          -26.3986348046        2.1049822592        6.6536603198  MEMB      45              0.0000000000
      5693        45  PVCL2     CC16          -25.3244602706        0.6170643279        5.6388132157  MEMB      45              0.0000000000
      5694        45  PVCL2     H16R          -26.0191238286        0.7669645009        4.7848260100  MEMB      45              0.0000000000
      5695        45  PVCL2     H16S          -25.3194054067       -0.4623922700        5.9016222545  MEMB      45              0.0000000000
      5696        45  PVCL2     CC17          -23.9074145539        0.9799626007        5.0029446618  MEMB      45              0.0000000000
      5697        45  PVCL2     H17R          -23.0884160348        0.7893342384        5.7290467501  MEMB      45              0.0000000000
      5698        45  PVCL2     H17S          -23.8985581490        2.0396542490        4.6693345816  MEMB      45              0.0000000000
      5699        45  PVCL2     CC18          -23.4482126234        0.1956936239        3.7533921468  MEMB      45              0.0000000000
      5700        45  PVCL2     H18R          -22.6453032911        0.7301358054        3.2020043001  MEMB      45              0.0000000000
      5701        45  PVCL2     H18S          -24.2845276369        0.0898881393        3.0297185302  MEMB      45              0.0000000000
      5702        45  PVCL2     H18T          -23.0760886172       -0.7755509227        4.1439424379  MEMB      45              0.0000000000
      5703        45  PVCL2     CD3           -30.3805678787       -4.3781925509       12.7108303907  MEMB      45              0.0000000000
      5704        45  PVCL2     H3X           -30.9218003786       -3.5303054554       12.2391567781  MEMB      45              0.0000000000
      5705        45  PVCL2     H3Y           -31.1025524704       -5.2192976637       12.6359886156  MEMB      45              0.0000000000
      5706        45  PVCL2     CD4           -29.1158316461       -4.7670455151       11.8715541853  MEMB      45              0.0000000000
      5707        45  PVCL2     H4X           -28.7040592110       -5.7572572192       12.1618051892  MEMB      45              0.0000000000
      5708        45  PVCL2     H4Y           -28.3536308670       -3.9659331884       11.9792098751  MEMB      45              0.0000000000
      5709        45  PVCL2     CD5           -29.1851814099       -4.8422299247       10.3300042544  MEMB      45              0.0000000000
      5710        45  PVCL2     H5X           -30.1512371595       -5.2998067367       10.0272162142  MEMB      45              0.0000000000
      5711        45  PVCL2     H5Y           -28.3561986533       -5.4349319440        9.8874970193  MEMB      45              0.0000000000
      5712        45  PVCL2     CD6           -29.2513998470       -3.3902901600        9.6972675138  MEMB      45              0.0000000000
      5713        45  PVCL2     H6X           -28.5495965893       -2.6779946819       10.1814455340  MEMB      45              0.0000000000
      5714        45  PVCL2     H6Y           -30.2945422322       -3.0232836755        9.8044171475  MEMB      45              0.0000000000
      5715        45  PVCL2     CD7           -29.0978409631       -3.3457675764        8.1641407272  MEMB      45              0.0000000000
      5716        45  PVCL2     H7X           -29.8190115058       -4.0669329913        7.7235106632  MEMB      45              0.0000000000
      5717        45  PVCL2     H7Y           -28.0702096809       -3.7110448197        7.9523207462  MEMB      45              0.0000000000
      5718        45  PVCL2     CD8           -29.3005832078       -1.9589599492        7.5203217572  MEMB      45              0.0000000000
      5719        45  PVCL2     H8X           -28.4526204401       -1.3144074590        7.8362840782  MEMB      45              0.0000000000
      5720        45  PVCL2     H8Y           -30.1558384049       -1.4437762483        8.0076043946  MEMB      45              0.0000000000
      5721        45  PVCL2     CD9           -29.1843984828       -1.8165160457        5.9579648486  MEMB      45              0.0000000000
      5722        45  PVCL2     H9X           -29.0761973857       -0.7463728827        5.6797429844  MEMB      45              0.0000000000
      5723        45  PVCL2     H9Y           -30.0363595389       -2.2788077391        5.4150378199  MEMB      45              0.0000000000
      5724        45  PVCL2     CD10          -27.9496302837       -2.5265854155        5.4323556776  MEMB      45              0.0000000000
      5725        45  PVCL2     H10X          -27.9594708697       -3.6371084243        5.4013229252  MEMB      45              0.0000000000
      5726        45  PVCL2     H10Y          -26.9829477152       -2.2000483787        5.8719226488  MEMB      45              0.0000000000
      5727        45  PVCL2     CD11          -27.6336249917       -2.1777330409        3.9804877805  MEMB      45              0.0000000000
      5728        45  PVCL2     H11X          -26.7207362074       -2.7243128384        3.6607909690  MEMB      45              0.0000000000
      5729        45  PVCL2     H11Y          -27.5254613005       -1.0737145601        3.9191270249  MEMB      45              0.0000000000
      5730        45  PVCL2     CD12          -28.7314712806       -2.4956324250        2.9802683649  MEMB      45              0.0000000000
      5731        45  PVCL2     H12X          -29.5136748529       -1.7080653740        3.0273498587  MEMB      45              0.0000000000
      5732        45  PVCL2     H12Y          -29.1753872885       -3.4959040714        3.1718834934  MEMB      45              0.0000000000
      5733        45  PVCL2     CD13          -28.2804734250       -2.4204346819        1.4776228145  MEMB      45              0.0000000000
      5734        45  PVCL2     H13X          -27.5965169289       -3.2892433977        1.3694754825  MEMB      45              0.0000000000
      5735        45  PVCL2     H13Y          -27.6998477647       -1.4838764089        1.3360142576  MEMB      45              0.0000000000
      5736        45  PVCL2     CD14          -29.3982349282       -2.5549309682        0.4595172144  MEMB      45              0.0000000000
      5737        45  PVCL2     H14X          -29.9588504517       -3.4523320751        0.7981932166  MEMB      45              0.0000000000
      5738        45  PVCL2     H14Y          -28.8777529194       -2.8288199750       -0.4830348923  MEMB      45              0.0000000000
      5739        45  PVCL2     CD15          -30.2227434184       -1.2255691415        0.3109229616  MEMB      45              0.0000000000
      5740        45  PVCL2     H15X          -30.8225637651       -1.1468938217        1.2427747133  MEMB      45              0.0000000000
      5741        45  PVCL2     H15Y          -30.9700903006       -1.3109645780       -0.5066971135  MEMB      45              0.0000000000
      5742        45  PVCL2     CD16          -29.6274490180        0.1573997607        0.1010284881  MEMB      45              0.0000000000
      5743        45  PVCL2     H16X          -28.8885757550        0.3959009494        0.8957004813  MEMB      45              0.0000000000
      5744        45  PVCL2     H16Y          -30.5037383117        0.8389701805        0.1446146451  MEMB      45              0.0000000000
      5745        45  PVCL2     H16Z          -29.1450091393        0.2513145843       -0.8953421976  MEMB      45              0.0000000000
      5746        46  PMPE      N              -5.8590414293       30.6347231752       20.8488725943  MEMB      46              0.0000000000
      5747        46  PMPE      HN1            -5.5039377549       31.1482061137       21.6806397930  MEMB      46              0.0000000000
      5748        46  PMPE      HN2            -5.2615014048       29.8590309158       20.4983765143  MEMB      46              0.0000000000
      5749        46  PMPE      HN3            -5.8830939993       31.3329285920       20.0784630654  MEMB      46              0.0000000000
      5750        46  PMPE      C12            -7.2470110148       30.4785781502       21.2412465637  MEMB      46              0.0000000000
      5751        46  PMPE      H12A           -7.6748238941       31.4828813139       21.0346736277  MEMB      46              0.0000000000
      5752        46  PMPE      H12B           -7.3276331816       30.3288874392       22.3391599870  MEMB      46              0.0000000000
      5753        46  PMPE      C11            -7.9369660378       29.3750098901       20.3361671145  MEMB      46              0.0000000000
      5754        46  PMPE      H11A           -8.9908924445       29.6248412839       20.5834410751  MEMB      46              0.0000000000
      5755        46  PMPE      H11B           -7.5021516959       28.4157352774       20.6897907471  MEMB      46              0.0000000000
      5756        46  PMPE      P              -8.7438020670       29.0545349007       17.8455514948  MEMB      46              0.0000000000
      5757        46  PMPE      O13            -8.0720090187       28.7210990670       16.5487019589  MEMB      46              0.0000000000
      5758        46  PMPE      O14            -9.8029473067       30.0362049466       17.8208227337  MEMB      46              0.0000000000
      5759        46  PMPE      O11            -9.3286804225       27.6444416655       18.4625130848  MEMB      46              0.0000000000
      5760        46  PMPE      O12            -7.6117815478       29.5227154678       18.8961244593  MEMB      46              0.0000000000
      5761        46  PMPE      C1             -8.6459119675       26.4605473084       18.5008099018  MEMB      46              0.0000000000
      5762        46  PMPE      HA             -8.7336720958       26.0468171794       19.5281591629  MEMB      46              0.0000000000
      5763        46  PMPE      HB             -7.5645960022       26.6303817622       18.3104602297  MEMB      46              0.0000000000
      5764        46  PMPE      C2             -9.3178843093       25.3928173067       17.5992632347  MEMB      46              0.0000000000
      5765        46  PMPE      HS             -9.0480727835       24.3792607572       17.9656309358  MEMB      46              0.0000000000
      5766        46  PMPE      O21            -8.8953276052       25.5274413717       16.2544014798  MEMB      46              0.0000000000
      5767        46  PMPE      C21            -7.6752031382       25.1437755045       15.9455877590  MEMB      46              0.0000000000
      5768        46  PMPE      O22            -6.9318799726       24.5400310306       16.8031746186  MEMB      46              0.0000000000
      5769        46  PMPE      C22            -7.2640854463       25.3496101218       14.5408914259  MEMB      46              0.0000000000
      5770        46  PMPE      H2R            -6.9502789295       24.3650242246       14.1329247143  MEMB      46              0.0000000000
      5771        46  PMPE      H2S            -6.3410709341       25.9666269472       14.5002036083  MEMB      46              0.0000000000
      5772        46  PMPE      C3            -10.8493690081       25.3227648550       17.6872767776  MEMB      46              0.0000000000
      5773        46  PMPE      HX            -11.1969971853       25.0652892260       18.7105959122  MEMB      46              0.0000000000
      5774        46  PMPE      HY            -11.3789993027       24.5348542493       17.1102071386  MEMB      46              0.0000000000
      5775        46  PMPE      O31           -11.6032238804       26.5080229123       17.3753377768  MEMB      46              0.0000000000
      5776        46  PMPE      C31           -12.0135624162       26.7368081315       16.1174748455  MEMB      46              0.0000000000
      5777        46  PMPE      O32           -11.7425239180       26.1056449478       15.1110550784  MEMB      46              0.0000000000
      5778        46  PMPE      C32           -12.7014942685       28.0920590615       16.0480019924  MEMB      46              0.0000000000
      5779        46  PMPE      H2X           -12.3326031104       28.8886764304       16.7289139331  MEMB      46              0.0000000000
      5780        46  PMPE      H2Y           -13.7869297365       27.9857974735       16.2598020025  MEMB      46              0.0000000000
      5781        46  PMPE      C23            -8.4213695061       25.9253292754       13.7152217356  MEMB      46              0.0000000000
      5782        46  PMPE      H3R            -8.8024459304       26.7677203320       14.3312403940  MEMB      46              0.0000000000
      5783        46  PMPE      H3S            -9.2252281795       25.1594002492       13.6766893619  MEMB      46              0.0000000000
      5784        46  PMPE      C24            -8.0920122935       26.6178107198       12.3669383183  MEMB      46              0.0000000000
      5785        46  PMPE      H4R            -9.1141757993       26.8109764167       11.9768232623  MEMB      46              0.0000000000
      5786        46  PMPE      H4S            -7.5480808793       25.9148450148       11.7003808162  MEMB      46              0.0000000000
      5787        46  PMPE      C25            -7.4707990909       28.0437979840       12.3241669398  MEMB      46              0.0000000000
      5788        46  PMPE      H5R            -6.5210724956       28.0512530318       12.9006081479  MEMB      46              0.0000000000
      5789        46  PMPE      H5S            -8.1882023411       28.6553273748       12.9121168783  MEMB      46              0.0000000000
      5790        46  PMPE      C26            -7.4607378492       28.5631703870       10.8721557336  MEMB      46              0.0000000000
      5791        46  PMPE      H6R            -8.4681440940       28.5802735129       10.4040088358  MEMB      46              0.0000000000
      5792        46  PMPE      H6S            -6.8768014976       27.7684381085       10.3605503250  MEMB      46              0.0000000000
      5793        46  PMPE      C27            -6.7555570787       29.9072552501       10.7757805651  MEMB      46              0.0000000000
      5794        46  PMPE      H7R            -5.9764589308       30.1310093931       11.5355577250  MEMB      46              0.0000000000
      5795        46  PMPE      H7S            -7.6068961104       30.5906229886       10.9820607338  MEMB      46              0.0000000000
      5796        46  PMPE      C28            -6.1292945229       30.1944480312        9.3702864795  MEMB      46              0.0000000000
      5797        46  PMPE      H8R            -6.1380532855       31.2699883119        9.0919746147  MEMB      46              0.0000000000
      5798        46  PMPE      H8S            -6.8543410536       29.6809357054        8.7032538432  MEMB      46              0.0000000000
      5799        46  PMPE      C29            -4.6840756366       29.6822314659        9.1773718322  MEMB      46              0.0000000000
      5800        46  PMPE      H9R            -4.5209558180       28.6276344789        9.4864642932  MEMB      46              0.0000000000
      5801        46  PMPE      C217           -3.5575163992       30.6198408378        9.3591438216  MEMB      46              0.0000000000
      5802        46  PMPE      H17R           -2.7277523658       30.2106872897        9.9221480276  MEMB      46              0.0000000000
      5803        46  PMPE      H17S           -3.9401613254       31.6318722092        9.3115584522  MEMB      46              0.0000000000
      5804        46  PMPE      C210           -3.8154115401       29.9432740885        7.9863923786  MEMB      46              0.0000000000
      5805        46  PMPE      H10R           -3.1391571749       29.0868834105        7.7775953462  MEMB      46              0.0000000000
      5806        46  PMPE      C211           -4.2444148354       30.7910858847        6.8092981510  MEMB      46              0.0000000000
      5807        46  PMPE      H11R           -3.3470804306       30.8580414648        6.1576633518  MEMB      46              0.0000000000
      5808        46  PMPE      H11S           -4.4608910367       31.8417038889        7.0985406595  MEMB      46              0.0000000000
      5809        46  PMPE      C212           -5.4057532928       30.2586620619        5.9820836674  MEMB      46              0.0000000000
      5810        46  PMPE      H12R           -5.8624345647       31.1080046636        5.4303774922  MEMB      46              0.0000000000
      5811        46  PMPE      H12S           -6.2499593993       29.9765589191        6.6469560356  MEMB      46              0.0000000000
      5812        46  PMPE      C213           -5.1653965002       29.0306740256        5.1653114624  MEMB      46              0.0000000000
      5813        46  PMPE      H13R           -6.1303491970       28.4803875977        5.1460158966  MEMB      46              0.0000000000
      5814        46  PMPE      H13S           -4.4629746988       28.2855749971        5.5963014116  MEMB      46              0.0000000000
      5815        46  PMPE      C214           -4.5018167492       29.3744555272        3.7666217267  MEMB      46              0.0000000000
      5816        46  PMPE      H14R           -3.5734721681       29.8926314913        4.0890978654  MEMB      46              0.0000000000
      5817        46  PMPE      H14S           -5.0970609123       30.2014378846        3.3237837166  MEMB      46              0.0000000000
      5818        46  PMPE      C215           -4.2401330364       28.1812518013        2.8278829057  MEMB      46              0.0000000000
      5819        46  PMPE      H15R           -3.5526354886       27.4511545068        3.3060318220  MEMB      46              0.0000000000
      5820        46  PMPE      H15S           -3.7996741531       28.4367144482        1.8404334850  MEMB      46              0.0000000000
      5821        46  PMPE      C216           -5.5092901080       27.3729274581        2.4404542420  MEMB      46              0.0000000000
      5822        46  PMPE      H16R           -5.1555171961       26.4345608416        1.9622972782  MEMB      46              0.0000000000
      5823        46  PMPE      H16S           -5.9962466797       27.1163134325        3.4055153323  MEMB      46              0.0000000000
      5824        46  PMPE      H16T           -6.1709396751       27.9444139151        1.7549297533  MEMB      46              0.0000000000
      5825        46  PMPE      C33           -12.5407719772       28.6893189021       14.6189681024  MEMB      46              0.0000000000
      5826        46  PMPE      H3X           -13.2975777054       29.5011783760       14.6684683823  MEMB      46              0.0000000000
      5827        46  PMPE      H3Y           -12.7953538528       27.8693629438       13.9138570416  MEMB      46              0.0000000000
      5828        46  PMPE      C34           -11.2191405115       29.3182064693       14.3043815763  MEMB      46              0.0000000000
      5829        46  PMPE      H4X           -10.4286809853       28.5452379788       14.1947706711  MEMB      46              0.0000000000
      5830        46  PMPE      H4Y           -10.9125547682       29.9636432435       15.1551088926  MEMB      46              0.0000000000
      5831        46  PMPE      C35           -11.2451670224       29.9977409020       12.9055102135  MEMB      46              0.0000000000
      5832        46  PMPE      H5X           -10.3343315011       30.6324280823       12.8622481409  MEMB      46              0.0000000000
      5833        46  PMPE      H5Y           -12.1315269282       30.6429621949       12.7255736544  MEMB      46              0.0000000000
      5834        46  PMPE      C36           -11.2967487786       28.9769103464       11.7024135376  MEMB      46              0.0000000000
      5835        46  PMPE      H6X           -12.2669541174       28.4409844368       11.7786117264  MEMB      46              0.0000000000
      5836        46  PMPE      H6Y           -10.5063724615       28.2085829207       11.8413348613  MEMB      46              0.0000000000
      5837        46  PMPE      C37           -11.1579304925       29.7103428082       10.3070315789  MEMB      46              0.0000000000
      5838        46  PMPE      H7X           -10.1666625953       30.2079355656       10.2429183726  MEMB      46              0.0000000000
      5839        46  PMPE      H7Y           -11.9064448671       30.5313459219       10.3059495957  MEMB      46              0.0000000000
      5840        46  PMPE      C38           -11.2225189526       28.5860215854        9.2068465657  MEMB      46              0.0000000000
      5841        46  PMPE      H8X           -12.2832776573       28.2814053078        9.3346015220  MEMB      46              0.0000000000
      5842        46  PMPE      H8Y           -10.4725131073       27.8637401951        9.5943020659  MEMB      46              0.0000000000
      5843        46  PMPE      C39           -10.9304623931       29.0969915038        7.7808995656  MEMB      46              0.0000000000
      5844        46  PMPE      H9X           -11.4319476894       30.0802941634        7.6546092668  MEMB      46              0.0000000000
      5845        46  PMPE      H9Y           -11.4062656826       28.3876278034        7.0704519623  MEMB      46              0.0000000000
      5846        46  PMPE      C310           -9.4857783643       29.3794553033        7.4485674463  MEMB      46              0.0000000000
      5847        46  PMPE      H10X           -8.8183059308       28.5535118264        7.7750927412  MEMB      46              0.0000000000
      5848        46  PMPE      H10Y           -8.9840902358       30.2316351258        7.9549461151  MEMB      46              0.0000000000
      5849        46  PMPE      C311           -9.3026381600       29.7657513293        5.9691213004  MEMB      46              0.0000000000
      5850        46  PMPE      H11X           -8.2557893179       30.1077645882        5.8226444819  MEMB      46              0.0000000000
      5851        46  PMPE      H11Y          -10.0919266045       30.5272735801        5.7918399455  MEMB      46              0.0000000000
      5852        46  PMPE      C312           -9.3929847652       28.5134685712        4.9980353543  MEMB      46              0.0000000000
      5853        46  PMPE      H12X          -10.4681990281       28.2340269578        4.9858848400  MEMB      46              0.0000000000
      5854        46  PMPE      H12Y           -8.7184420159       27.7763514429        5.4838041563  MEMB      46              0.0000000000
      5855        46  PMPE      C313           -8.8727896705       28.7363574169        3.5630215371  MEMB      46              0.0000000000
      5856        46  PMPE      H13X           -8.9743095215       27.7578015417        3.0468399193  MEMB      46              0.0000000000
      5857        46  PMPE      H13Y           -7.8328488473       29.1268482119        3.5440203052  MEMB      46              0.0000000000
      5858        46  PMPE      C314           -9.9537443870       29.5877996753        2.8651189075  MEMB      46              0.0000000000
      5859        46  PMPE      H14X           -9.9416706325       30.6241836992        3.2652230920  MEMB      46              0.0000000000
      5860        46  PMPE      H14Y          -10.9331712775       29.1340054382        3.1280160758  MEMB      46              0.0000000000
      5861        46  PMPE      C315           -9.7187867337       29.5943666403        1.3520441622  MEMB      46              0.0000000000
      5862        46  PMPE      H15X          -10.5673527433       30.1500290879        0.8987273305  MEMB      46              0.0000000000
      5863        46  PMPE      H15Y           -9.8507222577       28.5130526543        1.1337021880  MEMB      46              0.0000000000
      5864        46  PMPE      C316           -8.4287701575       30.1948886045        0.9418889917  MEMB      46              0.0000000000
      5865        46  PMPE      H16X           -7.9115549738       29.8570594329        0.0184806829  MEMB      46              0.0000000000
      5866        46  PMPE      H16Y           -7.6971817840       29.9916644432        1.7529373852  MEMB      46              0.0000000000
      5867        46  PMPE      H16Z           -8.6218678199       31.2881126683        0.8983591363  MEMB      46              0.0000000000
      5868        47  PMPE      N              14.0081602188      -25.5940894394       20.3553585554  MEMB      47              0.0000000000
      5869        47  PMPE      HN1            13.6426036809      -25.9269432995       19.4403849203  MEMB      47              0.0000000000
      5870        47  PMPE      HN2            14.0196093693      -26.4183995622       20.9893789181  MEMB      47              0.0000000000
      5871        47  PMPE      HN3            13.2423901630      -24.9747008865       20.6893552655  MEMB      47              0.0000000000
      5872        47  PMPE      C12            15.3938829708      -25.0482445402       20.1626792075  MEMB      47              0.0000000000
      5873        47  PMPE      H12A           15.8452482081      -25.3704961749       21.1253548242  MEMB      47              0.0000000000
      5874        47  PMPE      H12B           15.3945958673      -23.9389707553       20.2245839155  MEMB      47              0.0000000000
      5875        47  PMPE      C11            16.0198777225      -25.7044930796       18.9535053017  MEMB      47              0.0000000000
      5876        47  PMPE      H11A           15.4995150990      -25.3637033312       18.0329586679  MEMB      47              0.0000000000
      5877        47  PMPE      H11B           15.8639955391      -26.7888766343       19.1382596269  MEMB      47              0.0000000000
      5878        47  PMPE      P              18.3054693289      -26.6743537287       18.5320087511  MEMB      47              0.0000000000
      5879        47  PMPE      O13            18.1950786752      -27.7222800798       19.5899316107  MEMB      47              0.0000000000
      5880        47  PMPE      O14            19.7057817771      -26.2395086040       18.3408061366  MEMB      47              0.0000000000
      5881        47  PMPE      O11            17.6972329209      -27.0641801624       17.1725422318  MEMB      47              0.0000000000
      5882        47  PMPE      O12            17.4293523656      -25.4254308005       18.8931682052  MEMB      47              0.0000000000
      5883        47  PMPE      C1             17.6053747830      -26.2440796605       16.0371562603  MEMB      47              0.0000000000
      5884        47  PMPE      HA             17.7553864902      -25.1466116245       16.1230721323  MEMB      47              0.0000000000
      5885        47  PMPE      HB             16.5998033095      -26.3166221584       15.5703750870  MEMB      47              0.0000000000
      5886        47  PMPE      C2             18.5657137936      -26.6705123934       14.9349806380  MEMB      47              0.0000000000
      5887        47  PMPE      HS             18.2995485872      -25.9597534741       14.1236241799  MEMB      47              0.0000000000
      5888        47  PMPE      O21            18.2671748260      -28.0858874461       14.5881595654  MEMB      47              0.0000000000
      5889        47  PMPE      C21            17.3011725479      -28.2236225912       13.6153839685  MEMB      47              0.0000000000
      5890        47  PMPE      O22            16.7973681072      -27.3292928680       12.9751064424  MEMB      47              0.0000000000
      5891        47  PMPE      C22            17.0565176508      -29.6988904127       13.2852355254  MEMB      47              0.0000000000
      5892        47  PMPE      H2R            16.7765860199      -30.3468491513       14.1432030449  MEMB      47              0.0000000000
      5893        47  PMPE      H2S            18.0326586877      -30.1149689655       12.9560724487  MEMB      47              0.0000000000
      5894        47  PMPE      C3             20.0269595129      -26.5910606074       15.3686308651  MEMB      47              0.0000000000
      5895        47  PMPE      HX             20.2791769006      -27.4669507576       16.0038662279  MEMB      47              0.0000000000
      5896        47  PMPE      HY             20.0963502104      -25.6515086522       15.9574836915  MEMB      47              0.0000000000
      5897        47  PMPE      O31            20.7220346395      -26.4487193144       14.1335767999  MEMB      47              0.0000000000
      5898        47  PMPE      C31            21.8918561596      -27.1497260781       14.1599757016  MEMB      47              0.0000000000
      5899        47  PMPE      O32            22.4119181692      -27.5574491542       15.1638699621  MEMB      47              0.0000000000
      5900        47  PMPE      C32            22.5869587372      -27.1201750208       12.7614514400  MEMB      47              0.0000000000
      5901        47  PMPE      H2X            23.3874944200      -27.8900011895       12.7902764264  MEMB      47              0.0000000000
      5902        47  PMPE      H2Y            23.0353991870      -26.1255142852       12.5519945455  MEMB      47              0.0000000000
      5903        47  PMPE      C23            16.0872941175      -29.8151310952       12.1916623325  MEMB      47              0.0000000000
      5904        47  PMPE      H3R            16.2193815996      -30.7986925125       11.6921816414  MEMB      47              0.0000000000
      5905        47  PMPE      H3S            16.4094303293      -29.1106119928       11.3952941424  MEMB      47              0.0000000000
      5906        47  PMPE      C24            14.5636337796      -29.6883341843       12.5325222334  MEMB      47              0.0000000000
      5907        47  PMPE      H4R            14.3371189449      -28.6679144011       12.9090271770  MEMB      47              0.0000000000
      5908        47  PMPE      H4S            14.3586081760      -30.4000833778       13.3605915846  MEMB      47              0.0000000000
      5909        47  PMPE      C25            13.7032622689      -30.0719934326       11.2943508103  MEMB      47              0.0000000000
      5910        47  PMPE      H5R            12.6820031867      -30.1319164998       11.7276633374  MEMB      47              0.0000000000
      5911        47  PMPE      H5S            13.8123892634      -31.1150071151       10.9275617325  MEMB      47              0.0000000000
      5912        47  PMPE      C26            13.8134755434      -29.1267722229       10.0877206062  MEMB      47              0.0000000000
      5913        47  PMPE      H6R            12.9812556753      -29.4819857583        9.4430844706  MEMB      47              0.0000000000
      5914        47  PMPE      H6S            14.8224409394      -29.2455645135        9.6380557898  MEMB      47              0.0000000000
      5915        47  PMPE      C27            13.7084576346      -27.6509522208       10.3642266081  MEMB      47              0.0000000000
      5916        47  PMPE      H7R            14.3616331917      -27.4692247062       11.2443727611  MEMB      47              0.0000000000
      5917        47  PMPE      H7S            12.6775514004      -27.3379787575       10.6355200549  MEMB      47              0.0000000000
      5918        47  PMPE      C28            14.3559588819      -26.7993120028        9.3201849103  MEMB      47              0.0000000000
      5919        47  PMPE      H8R            15.2902132556      -27.2545792670        8.9274752572  MEMB      47              0.0000000000
      5920        47  PMPE      H8S            14.4247215497      -25.7067888512        9.5098856336  MEMB      47              0.0000000000
      5921        47  PMPE      C29            13.2875276072      -26.9047404748        8.2529827400  MEMB      47              0.0000000000
      5922        47  PMPE      H9R            12.2075663414      -26.6877221978        8.3975774215  MEMB      47              0.0000000000
      5923        47  PMPE      C217           13.4494551951      -27.8963200746        7.0629227139  MEMB      47              0.0000000000
      5924        47  PMPE      H17R           12.4805363375      -28.1989362013        6.6854199943  MEMB      47              0.0000000000
      5925        47  PMPE      H17S           14.3482801286      -28.4139909939        7.3744031743  MEMB      47              0.0000000000
      5926        47  PMPE      C210           13.6677628115      -26.3739730505        6.8728367495  MEMB      47              0.0000000000
      5927        47  PMPE      H10R           12.8787684464      -25.7658094068        6.3809564786  MEMB      47              0.0000000000
      5928        47  PMPE      C211           15.0618018899      -25.8229229696        6.6726351342  MEMB      47              0.0000000000
      5929        47  PMPE      H11R           15.7351496349      -26.6918426657        6.8335767061  MEMB      47              0.0000000000
      5930        47  PMPE      H11S           15.2050297057      -25.1904096625        7.5747074565  MEMB      47              0.0000000000
      5931        47  PMPE      C212           15.3281811450      -25.0901141401        5.3517372352  MEMB      47              0.0000000000
      5932        47  PMPE      H12R           16.1144338516      -24.3368775999        5.5725591089  MEMB      47              0.0000000000
      5933        47  PMPE      H12S           14.4059839774      -24.5128634601        5.1266710927  MEMB      47              0.0000000000
      5934        47  PMPE      C213           15.4946865454      -25.9605141630        4.1009108371  MEMB      47              0.0000000000
      5935        47  PMPE      H13R           14.6859045083      -26.7221027579        4.1141640410  MEMB      47              0.0000000000
      5936        47  PMPE      H13S           16.4912309529      -26.4458755302        4.1760411236  MEMB      47              0.0000000000
      5937        47  PMPE      C214           15.3342344589      -25.0101776261        2.8529387571  MEMB      47              0.0000000000
      5938        47  PMPE      H14R           16.0948598151      -24.2054041914        2.9429940887  MEMB      47              0.0000000000
      5939        47  PMPE      H14S           14.3246051940      -24.5712075413        3.0021857776  MEMB      47              0.0000000000
      5940        47  PMPE      C215           15.3195577866      -25.8332305205        1.5590858100  MEMB      47              0.0000000000
      5941        47  PMPE      H15R           14.5952143324      -25.4957103081        0.7872517830  MEMB      47              0.0000000000
      5942        47  PMPE      H15S           14.8349147881      -26.7907866647        1.8463634912  MEMB      47              0.0000000000
      5943        47  PMPE      C216           16.7000552208      -25.9766411171        0.8160745350  MEMB      47              0.0000000000
      5944        47  PMPE      H16R           17.4815920047      -26.4144458478        1.4732264970  MEMB      47              0.0000000000
      5945        47  PMPE      H16S           16.5932935040      -26.6553070466       -0.0570431868  MEMB      47              0.0000000000
      5946        47  PMPE      H16T           16.9582014895      -24.9385508552        0.5159915096  MEMB      47              0.0000000000
      5947        47  PMPE      C33            21.4259789940      -27.5011311874       11.8577463169  MEMB      47              0.0000000000
      5948        47  PMPE      H3X            20.7084122759      -26.6534689184       11.8279534089  MEMB      47              0.0000000000
      5949        47  PMPE      H3Y            21.0349767787      -28.4823297286       12.2022568998  MEMB      47              0.0000000000
      5950        47  PMPE      C34            21.8286674780      -27.6973813316       10.3831675951  MEMB      47              0.0000000000
      5951        47  PMPE      H4X            22.6682397568      -28.4247591337       10.3641771676  MEMB      47              0.0000000000
      5952        47  PMPE      H4Y            22.1557471912      -26.8355873587        9.7629656425  MEMB      47              0.0000000000
      5953        47  PMPE      C35            20.6658253867      -28.2211638374        9.4681660088  MEMB      47              0.0000000000
      5954        47  PMPE      H5X            20.0727827015      -29.0073378597        9.9825118603  MEMB      47              0.0000000000
      5955        47  PMPE      H5Y            21.1388211590      -28.7486575506        8.6123932870  MEMB      47              0.0000000000
      5956        47  PMPE      C36            19.6659264554      -27.0268038294        9.1242615356  MEMB      47              0.0000000000
      5957        47  PMPE      H6X            20.2838457154      -26.1688166663        8.7831530957  MEMB      47              0.0000000000
      5958        47  PMPE      H6Y            19.1292914408      -26.7169897114       10.0464104728  MEMB      47              0.0000000000
      5959        47  PMPE      C37            18.5305147900      -27.3186661252        8.0412160128  MEMB      47              0.0000000000
      5960        47  PMPE      H7X            17.9224728578      -26.3907634270        7.9811944433  MEMB      47              0.0000000000
      5961        47  PMPE      H7Y            17.9790147494      -28.1845609852        8.4659450683  MEMB      47              0.0000000000
      5962        47  PMPE      C38            19.1600398253      -27.8645494386        6.7962919494  MEMB      47              0.0000000000
      5963        47  PMPE      H8X            19.7422091469      -28.7957821812        6.9642365484  MEMB      47              0.0000000000
      5964        47  PMPE      H8Y            19.9330295382      -27.1782450375        6.3891136251  MEMB      47              0.0000000000
      5965        47  PMPE      C39            18.0356311687      -28.1550059898        5.7669787510  MEMB      47              0.0000000000
      5966        47  PMPE      H9X            17.4692644964      -27.2102711046        5.6219761603  MEMB      47              0.0000000000
      5967        47  PMPE      H9Y            17.2672629705      -28.8444293186        6.1776208128  MEMB      47              0.0000000000
      5968        47  PMPE      C310           18.7982997900      -28.5815510464        4.4364288419  MEMB      47              0.0000000000
      5969        47  PMPE      H10X           19.5214420658      -29.3267705467        4.8314402468  MEMB      47              0.0000000000
      5970        47  PMPE      H10Y           19.3995188660      -27.7205208048        4.0738226768  MEMB      47              0.0000000000
      5971        47  PMPE      C311           17.8738392442      -28.9608860706        3.2961752192  MEMB      47              0.0000000000
      5972        47  PMPE      H11X           17.2855131542      -28.0609067582        3.0164781646  MEMB      47              0.0000000000
      5973        47  PMPE      H11Y           17.2029261011      -29.7701353610        3.6557751075  MEMB      47              0.0000000000
      5974        47  PMPE      C312           18.5371636845      -29.7459074629        2.1402054449  MEMB      47              0.0000000000
      5975        47  PMPE      H12X           18.7660988766      -30.8222804412        2.2929504203  MEMB      47              0.0000000000
      5976        47  PMPE      H12Y           19.4976134903      -29.2274582214        1.9326783619  MEMB      47              0.0000000000
      5977        47  PMPE      C313           17.7344998818      -29.6135930356        0.8359467277  MEMB      47              0.0000000000
      5978        47  PMPE      H13X           18.3483499191      -29.9864046922       -0.0117106200  MEMB      47              0.0000000000
      5979        47  PMPE      H13Y           17.7130576870      -28.5058695347        0.7534263926  MEMB      47              0.0000000000
      5980        47  PMPE      C314           16.3108318164      -30.1337544491        0.8305841943  MEMB      47              0.0000000000
      5981        47  PMPE      H14X           15.7500806566      -29.5700638770        1.6065575839  MEMB      47              0.0000000000
      5982        47  PMPE      H14Y           16.1748978647      -31.2094519776        1.0729023125  MEMB      47              0.0000000000
      5983        47  PMPE      C315           15.4132877827      -29.6647652646       -0.4379932152  MEMB      47              0.0000000000
      5984        47  PMPE      H15X           15.3944533942      -28.5607431658       -0.3151074105  MEMB      47              0.0000000000
      5985        47  PMPE      H15Y           14.4218297288      -30.1575387375       -0.3457653694  MEMB      47              0.0000000000
      5986        47  PMPE      C316           15.7902818749      -30.0423761130       -1.8779739881  MEMB      47              0.0000000000
      5987        47  PMPE      H16X           15.7264802625      -31.1430887311       -2.0146565239  MEMB      47              0.0000000000
      5988        47  PMPE      H16Y           16.8230467511      -29.7445933421       -2.1591200082  MEMB      47              0.0000000000
      5989        47  PMPE      H16Z           15.0371748710      -29.5803410573       -2.5515280737  MEMB      47              0.0000000000
      5990        48  POPE      N              -6.1078489708      -32.2802156595       20.0166437770  MEMB      48              0.0000000000
      5991        48  POPE      HN1            -6.2091181675      -31.6128745905       19.2254418016  MEMB      48              0.0000000000
      5992        48  POPE      HN2            -6.1662681479      -33.2833153526       19.7483568651  MEMB      48              0.0000000000
      5993        48  POPE      HN3            -6.8173030844      -32.1087310967       20.7574999739  MEMB      48              0.0000000000
      5994        48  POPE      C12            -4.7623863541      -32.1422153721       20.6467589656  MEMB      48              0.0000000000
      5995        48  POPE      H12A           -4.7130037185      -32.9946458809       21.3575645109  MEMB      48              0.0000000000
      5996        48  POPE      H12B           -4.7395993543      -31.2809683322       21.3482255126  MEMB      48              0.0000000000
      5997        48  POPE      C11            -3.4863069752      -32.1448700890       19.6864258902  MEMB      48              0.0000000000
      5998        48  POPE      H11A           -3.4889022094      -32.9640070275       18.9358734261  MEMB      48              0.0000000000
      5999        48  POPE      H11B           -2.6056557191      -32.1336467496       20.3636617731  MEMB      48              0.0000000000
      6000        48  POPE      P              -2.0027465280      -30.4328803879       18.3863594767  MEMB      48              0.0000000000
      6001        48  POPE      O13            -1.1839350189      -31.5162659670       17.7092116444  MEMB      48              0.0000000000
      6002        48  POPE      O14            -1.4211340878      -29.7242089156       19.5610493931  MEMB      48              0.0000000000
      6003        48  POPE      O11            -2.4022640155      -29.3866642834       17.1895011279  MEMB      48              0.0000000000
      6004        48  POPE      O12            -3.4248523707      -30.9704065263       18.8040497274  MEMB      48              0.0000000000
      6005        48  POPE      C1             -1.4023414976      -28.4722414216       16.8162073650  MEMB      48              0.0000000000
      6006        48  POPE      HA             -0.4878738688      -29.0640336332       16.5974557803  MEMB      48              0.0000000000
      6007        48  POPE      HB             -1.2500256020      -27.6156997134       17.5071901053  MEMB      48              0.0000000000
      6008        48  POPE      C2             -1.8197792411      -27.9545264929       15.3654488376  MEMB      48              0.0000000000
      6009        48  POPE      HS             -1.1125528182      -27.1230407723       15.1586074113  MEMB      48              0.0000000000
      6010        48  POPE      O21            -3.2290713126      -27.5287898404       15.3321624692  MEMB      48              0.0000000000
      6011        48  POPE      C21            -3.7192884411      -26.7628966253       16.3074690627  MEMB      48              0.0000000000
      6012        48  POPE      O22            -3.0956102055      -26.0835659384       17.0707950181  MEMB      48              0.0000000000
      6013        48  POPE      C22            -5.2891769484      -26.8717097726       16.2156114067  MEMB      48              0.0000000000
      6014        48  POPE      H2R            -5.5392874958      -26.0641084873       15.4948158903  MEMB      48              0.0000000000
      6015        48  POPE      H2S            -5.8069630437      -26.5407642070       17.1411888350  MEMB      48              0.0000000000
      6016        48  POPE      C3             -1.6328826888      -29.1444973411       14.3462544797  MEMB      48              0.0000000000
      6017        48  POPE      HX             -0.6444368475      -29.6000923609       14.5692548370  MEMB      48              0.0000000000
      6018        48  POPE      HY             -1.6752093554      -28.6743146042       13.3405421794  MEMB      48              0.0000000000
      6019        48  POPE      O31            -2.6950087925      -30.0500021598       14.5213912341  MEMB      48              0.0000000000
      6020        48  POPE      C31            -2.4535293544      -31.3685261107       14.8872211973  MEMB      48              0.0000000000
      6021        48  POPE      O32            -1.3260352727      -31.8740094268       14.8350803303  MEMB      48              0.0000000000
      6022        48  POPE      C32            -3.7313365224      -32.0486987149       15.2886524646  MEMB      48              0.0000000000
      6023        48  POPE      H2X            -4.6406955888      -31.4154246815       15.2089592952  MEMB      48              0.0000000000
      6024        48  POPE      H2Y            -3.5453801675      -32.3779131402       16.3333338413  MEMB      48              0.0000000000
      6025        48  POPE      C23            -5.8472600156      -28.1137126400       15.5550212923  MEMB      48              0.0000000000
      6026        48  POPE      H3R            -5.5659731947      -29.0569499251       16.0702898852  MEMB      48              0.0000000000
      6027        48  POPE      H3S            -5.4784023434      -28.2363576698       14.5142412163  MEMB      48              0.0000000000
      6028        48  POPE      C24            -7.3834258183      -27.9686056756       15.4912714831  MEMB      48              0.0000000000
      6029        48  POPE      H4R            -7.6118195473      -26.9724516951       15.0555712553  MEMB      48              0.0000000000
      6030        48  POPE      H4S            -7.7283575047      -27.8999874314       16.5451380868  MEMB      48              0.0000000000
      6031        48  POPE      C25            -7.9081410013      -29.2134787913       14.7142688704  MEMB      48              0.0000000000
      6032        48  POPE      H5R            -9.0056196275      -29.3238484872       14.5813026112  MEMB      48              0.0000000000
      6033        48  POPE      H5S            -7.4755000241      -30.0860413757       15.2488503691  MEMB      48              0.0000000000
      6034        48  POPE      C26            -7.3612489148      -29.4003694069       13.1892546622  MEMB      48              0.0000000000
      6035        48  POPE      H6R            -6.2851042054      -29.6268934296       13.0313921666  MEMB      48              0.0000000000
      6036        48  POPE      H6S            -7.5888641114      -28.4002707637       12.7622714499  MEMB      48              0.0000000000
      6037        48  POPE      C27            -7.9636168496      -30.5538265664       12.4937151205  MEMB      48              0.0000000000
      6038        48  POPE      H7R            -9.0234842917      -30.3410980441       12.2373003133  MEMB      48              0.0000000000
      6039        48  POPE      H7S            -7.7284651651      -31.4739902049       13.0701899699  MEMB      48              0.0000000000
      6040        48  POPE      C28            -7.2703354681      -30.7309497027       11.1173117383  MEMB      48              0.0000000000
      6041        48  POPE      H8R            -6.1789249831      -30.9383009211       11.1050722248  MEMB      48              0.0000000000
      6042        48  POPE      H8S            -7.4368611815      -29.7902334629       10.5501755705  MEMB      48              0.0000000000
      6043        48  POPE      C29            -7.8229949957      -31.9359447214       10.3703821453  MEMB      48              0.0000000000
      6044        48  POPE      H91            -8.2218394977      -32.7420788783       11.0036831777  MEMB      48              0.0000000000
      6045        48  POPE      C210           -7.8821945199      -32.1442067595        8.9879370802  MEMB      48              0.0000000000
      6046        48  POPE      H101           -8.3156628001      -33.1139825743        8.7022094513  MEMB      48              0.0000000000
      6047        48  POPE      C211           -7.4083586845      -31.2835887745        7.8549246811  MEMB      48              0.0000000000
      6048        48  POPE      H11R           -7.4504739638      -30.2157769124        8.1587750746  MEMB      48              0.0000000000
      6049        48  POPE      H11S           -8.1228858618      -31.4233304435        7.0157323657  MEMB      48              0.0000000000
      6050        48  POPE      C212           -5.9446282170      -31.6063150144        7.4192111067  MEMB      48              0.0000000000
      6051        48  POPE      H12R           -5.8598724576      -32.5679859457        6.8693688376  MEMB      48              0.0000000000
      6052        48  POPE      H12S           -5.2459349188      -31.5598589666        8.2817603171  MEMB      48              0.0000000000
      6053        48  POPE      C213           -5.4028923434      -30.5029528756        6.4834213346  MEMB      48              0.0000000000
      6054        48  POPE      H13R           -5.7949962775      -29.5480535468        6.8942042570  MEMB      48              0.0000000000
      6055        48  POPE      H13S           -5.8835890805      -30.7662272398        5.5170163053  MEMB      48              0.0000000000
      6056        48  POPE      C214           -3.9179339040      -30.5501889357        6.2426536794  MEMB      48              0.0000000000
      6057        48  POPE      H14R           -3.5232697884      -31.4925659173        5.8062058787  MEMB      48              0.0000000000
      6058        48  POPE      H14S           -3.3349958795      -30.4959546295        7.1868794113  MEMB      48              0.0000000000
      6059        48  POPE      C215           -3.3771246781      -29.3848618641        5.3405786590  MEMB      48              0.0000000000
      6060        48  POPE      H15R           -2.2693439193      -29.4658443175        5.3163957047  MEMB      48              0.0000000000
      6061        48  POPE      H15S           -3.6668848889      -28.4465782288        5.8601780234  MEMB      48              0.0000000000
      6062        48  POPE      C216           -3.8096392898      -29.6310646964        3.8492901096  MEMB      48              0.0000000000
      6063        48  POPE      H16R           -4.9200742037      -29.6585681979        3.8269532573  MEMB      48              0.0000000000
      6064        48  POPE      H16S           -3.3776439444      -30.6456310132        3.7138044799  MEMB      48              0.0000000000
      6065        48  POPE      C217           -3.4137771873      -28.5105103209        2.9408633604  MEMB      48              0.0000000000
      6066        48  POPE      H17R           -2.3364926334      -28.3142718045        3.1286622816  MEMB      48              0.0000000000
      6067        48  POPE      H17S           -3.9660764615      -27.5796473412        3.1914230144  MEMB      48              0.0000000000
      6068        48  POPE      C218           -3.8114321593      -28.7329716202        1.4600689090  MEMB      48              0.0000000000
      6069        48  POPE      H18R           -4.8485913244      -29.1302980278        1.4326169819  MEMB      48              0.0000000000
      6070        48  POPE      H18S           -3.2293624840      -29.6017570940        1.0849331029  MEMB      48              0.0000000000
      6071        48  POPE      H18T           -3.7538253696      -27.8768224621        0.7543699428  MEMB      48              0.0000000000
      6072        48  POPE      C33            -4.0123343193      -33.2403280618       14.3359269368  MEMB      48              0.0000000000
      6073        48  POPE      H3X            -4.7157427302      -33.9515629615       14.8193341829  MEMB      48              0.0000000000
      6074        48  POPE      H3Y            -3.0520418778      -33.7983880289       14.3089387449  MEMB      48              0.0000000000
      6075        48  POPE      C34            -4.5398767247      -32.8196618706       12.9129645334  MEMB      48              0.0000000000
      6076        48  POPE      H4X            -3.8609090569      -32.0584763927       12.4726004668  MEMB      48              0.0000000000
      6077        48  POPE      H4Y            -5.5537837523      -32.3658515349       12.8937415877  MEMB      48              0.0000000000
      6078        48  POPE      C35            -4.5672029035      -34.0032043945       11.9088290264  MEMB      48              0.0000000000
      6079        48  POPE      H5X            -5.4718102559      -34.6445622349       11.9771436798  MEMB      48              0.0000000000
      6080        48  POPE      H5Y            -3.6749602292      -34.5986135711       12.1981593315  MEMB      48              0.0000000000
      6081        48  POPE      C36            -4.4476410299      -33.6277367138       10.3658606613  MEMB      48              0.0000000000
      6082        48  POPE      H6X            -3.4225090605      -33.4161049627        9.9935201410  MEMB      48              0.0000000000
      6083        48  POPE      H6Y            -4.9826447529      -32.6759085094       10.1606410347  MEMB      48              0.0000000000
      6084        48  POPE      C37            -5.0029944457      -34.7428073684        9.4126071581  MEMB      48              0.0000000000
      6085        48  POPE      H7X            -4.9388606624      -34.3489341166        8.3757501947  MEMB      48              0.0000000000
      6086        48  POPE      H7Y            -6.1089442365      -34.7737071111        9.5138073962  MEMB      48              0.0000000000
      6087        48  POPE      C38            -4.4865953907      -36.1529261555        9.5504462498  MEMB      48              0.0000000000
      6088        48  POPE      H8X            -4.9563527642      -36.8418596301        8.8162672329  MEMB      48              0.0000000000
      6089        48  POPE      H8Y            -4.8183579648      -36.6673776794       10.4775892492  MEMB      48              0.0000000000
      6090        48  POPE      C39            -2.9742597040      -36.3423399050        9.2009874071  MEMB      48              0.0000000000
      6091        48  POPE      H9X            -2.7067594472      -37.4153230781        9.0938818944  MEMB      48              0.0000000000
      6092        48  POPE      H9Y            -2.3404691171      -35.9296201634       10.0148021574  MEMB      48              0.0000000000
      6093        48  POPE      C310           -2.5940050306      -35.6938783116        7.8941635964  MEMB      48              0.0000000000
      6094        48  POPE      H10X           -1.4910843444      -35.5641233116        7.8617576355  MEMB      48              0.0000000000
      6095        48  POPE      H10Y           -2.8886311049      -34.6237467910        7.8458401469  MEMB      48              0.0000000000
      6096        48  POPE      C311           -3.2009560526      -36.3499617249        6.6171682783  MEMB      48              0.0000000000
      6097        48  POPE      H11X           -4.2886773323      -36.5437587314        6.7338980845  MEMB      48              0.0000000000
      6098        48  POPE      H11Y           -2.7349709871      -37.3513723689        6.4973522858  MEMB      48              0.0000000000
      6099        48  POPE      C312           -2.7932271476      -35.5629036433        5.3781429810  MEMB      48              0.0000000000
      6100        48  POPE      H12X           -2.9072347477      -36.1399284659        4.4356114609  MEMB      48              0.0000000000
      6101        48  POPE      H12Y           -1.7362556579      -35.2338174410        5.4721345072  MEMB      48              0.0000000000
      6102        48  POPE      C313           -3.7233660690      -34.4123310770        5.2933516079  MEMB      48              0.0000000000
      6103        48  POPE      H13X           -3.3217606664      -33.5751323584        5.9033780501  MEMB      48              0.0000000000
      6104        48  POPE      H13Y           -4.7097465154      -34.7145418711        5.7057145170  MEMB      48              0.0000000000
      6105        48  POPE      C314           -3.8481895936      -33.7670891559        3.8702938691  MEMB      48              0.0000000000
      6106        48  POPE      H14X           -4.4129930539      -32.8114864337        3.9165704630  MEMB      48              0.0000000000
      6107        48  POPE      H14Y           -4.4540971527      -34.4508569201        3.2381084450  MEMB      48              0.0000000000
      6108        48  POPE      C315           -2.4651801535      -33.6110687790        3.2331151133  MEMB      48              0.0000000000
      6109        48  POPE      H15X           -1.9834967536      -34.5876790641        3.0128107955  MEMB      48              0.0000000000
      6110        48  POPE      H15Y           -1.8879199835      -33.1108794368        4.0399010073  MEMB      48              0.0000000000
      6111        48  POPE      C316           -2.3762681387      -32.7855601580        1.9645803584  MEMB      48              0.0000000000
      6112        48  POPE      H16X           -1.3685135874      -32.6115818097        1.5304336488  MEMB      48              0.0000000000
      6113        48  POPE      H16Y           -2.7838151543      -31.7609642033        2.1003355006  MEMB      48              0.0000000000
      6114        48  POPE      H16Z           -2.9824883572      -33.3207296709        1.2027334105  MEMB      48              0.0000000000
      6115        49  PMPE      N              10.1343420170       31.8515894591       20.8844930506  MEMB      49              0.0000000000
      6116        49  PMPE      HN1            10.2203082962       32.2636827470       21.8354868641  MEMB      49              0.0000000000
      6117        49  PMPE      HN2            10.0513669417       30.8169350940       20.9493423052  MEMB      49              0.0000000000
      6118        49  PMPE      HN3            11.0220943752       32.0063749934       20.3653233648  MEMB      49              0.0000000000
      6119        49  PMPE      C12             8.9303739824       32.4942529553       20.2916224928  MEMB      49              0.0000000000
      6120        49  PMPE      H12A            9.0513278323       33.5956026108       20.2096466850  MEMB      49              0.0000000000
      6121        49  PMPE      H12B            8.0876574955       32.3924683588       21.0084138226  MEMB      49              0.0000000000
      6122        49  PMPE      C11             8.5922722559       31.7323969861       18.9859024524  MEMB      49              0.0000000000
      6123        49  PMPE      H11A            9.5302028295       31.8040565954       18.3947407886  MEMB      49              0.0000000000
      6124        49  PMPE      H11B            7.7546347235       32.2701248560       18.4924116931  MEMB      49              0.0000000000
      6125        49  PMPE      P               8.8728187608       29.2421356252       18.3602383742  MEMB      49              0.0000000000
      6126        49  PMPE      O13             7.8315365525       28.1290893568       18.3308944263  MEMB      49              0.0000000000
      6127        49  PMPE      O14            10.1557164592       28.9973347662       18.9745928424  MEMB      49              0.0000000000
      6128        49  PMPE      O11             9.0391497595       29.8063473825       16.9598216772  MEMB      49              0.0000000000
      6129        49  PMPE      O12             8.2252444536       30.4567742635       19.2124346838  MEMB      49              0.0000000000
      6130        49  PMPE      C1             10.3241738208       29.7263135496       16.3113867060  MEMB      49              0.0000000000
      6131        49  PMPE      HA             10.3767638259       28.7575540018       15.7700366448  MEMB      49              0.0000000000
      6132        49  PMPE      HB             11.1242524615       29.7788792266       17.0804329425  MEMB      49              0.0000000000
      6133        49  PMPE      C2             10.4743768718       30.9623310648       15.3717983695  MEMB      49              0.0000000000
      6134        49  PMPE      HS             10.7554639421       31.8420150277       15.9894284995  MEMB      49              0.0000000000
      6135        49  PMPE      O21             9.1711417763       31.1137988886       14.7636133872  MEMB      49              0.0000000000
      6136        49  PMPE      C21             8.9987963158       31.8452247148       13.7480432427  MEMB      49              0.0000000000
      6137        49  PMPE      O22             9.7240097468       32.6430481033       13.2251801013  MEMB      49              0.0000000000
      6138        49  PMPE      C22             7.6756528008       31.3144197168       13.1548526061  MEMB      49              0.0000000000
      6139        49  PMPE      H2R             7.1558474336       30.7688388185       13.9712257290  MEMB      49              0.0000000000
      6140        49  PMPE      H2S             7.8271198042       30.7202288239       12.2283995091  MEMB      49              0.0000000000
      6141        49  PMPE      C3             11.6230243782       30.6561574225       14.3723963121  MEMB      49              0.0000000000
      6142        49  PMPE      HX             12.5231539490       30.7404624553       15.0181363487  MEMB      49              0.0000000000
      6143        49  PMPE      HY             11.7029565936       31.5515814301       13.7195965713  MEMB      49              0.0000000000
      6144        49  PMPE      O31            11.5122747880       29.4532348450       13.6648765693  MEMB      49              0.0000000000
      6145        49  PMPE      C31            12.3520456071       29.2807419568       12.5395179942  MEMB      49              0.0000000000
      6146        49  PMPE      O32            13.1630253592       30.1294690404       12.1601661624  MEMB      49              0.0000000000
      6147        49  PMPE      C32            12.2459189157       27.8521304931       12.0190986551  MEMB      49              0.0000000000
      6148        49  PMPE      H2X            13.0543319158       27.2812978443       12.5240138518  MEMB      49              0.0000000000
      6149        49  PMPE      H2Y            12.4368694912       27.7797180297       10.9270294220  MEMB      49              0.0000000000
      6150        49  PMPE      C23             6.6553207871       32.4056698728       12.7100301651  MEMB      49              0.0000000000
      6151        49  PMPE      H3R             6.7334983990       33.3596282528       13.2740982133  MEMB      49              0.0000000000
      6152        49  PMPE      H3S             5.6436212208       31.9478966697       12.7450812731  MEMB      49              0.0000000000
      6153        49  PMPE      C24             6.8471903985       32.8444281288       11.2159153892  MEMB      49              0.0000000000
      6154        49  PMPE      H4R             6.4056992487       33.8613803242       11.1437007498  MEMB      49              0.0000000000
      6155        49  PMPE      H4S             6.1393249394       32.1630892784       10.6972395765  MEMB      49              0.0000000000
      6156        49  PMPE      C25             8.2507879460       32.7906820681       10.5500242081  MEMB      49              0.0000000000
      6157        49  PMPE      H5R             8.5313032065       31.7232665648       10.4225239512  MEMB      49              0.0000000000
      6158        49  PMPE      H5S             8.9874194042       33.3390652482       11.1753013506  MEMB      49              0.0000000000
      6159        49  PMPE      C26             8.1285928922       33.5288193035        9.1622696325  MEMB      49              0.0000000000
      6160        49  PMPE      H6R             9.1860358403       33.8118299117        8.9724265391  MEMB      49              0.0000000000
      6161        49  PMPE      H6S             7.4509724713       34.3939242811        9.3258090471  MEMB      49              0.0000000000
      6162        49  PMPE      C27             7.4235788488       32.5357690263        8.1507896815  MEMB      49              0.0000000000
      6163        49  PMPE      H7R             6.4219929705       32.3620264016        8.5990756982  MEMB      49              0.0000000000
      6164        49  PMPE      H7S             7.9345549835       31.5501007284        8.1918052231  MEMB      49              0.0000000000
      6165        49  PMPE      C28             7.2589117055       33.1217739578        6.7047949547  MEMB      49              0.0000000000
      6166        49  PMPE      H8R             7.2493419904       32.2273061774        6.0458888338  MEMB      49              0.0000000000
      6167        49  PMPE      H8S             8.1964896779       33.6485150397        6.4258461445  MEMB      49              0.0000000000
      6168        49  PMPE      C29             6.0912968444       34.0573053710        6.6202427534  MEMB      49              0.0000000000
      6169        49  PMPE      H9R             6.0712899812       34.8706899553        7.3767651805  MEMB      49              0.0000000000
      6170        49  PMPE      C217            4.7688115132       33.2976686371        6.4452830638  MEMB      49              0.0000000000
      6171        49  PMPE      H17R            3.9971054386       33.6924792339        7.0945003728  MEMB      49              0.0000000000
      6172        49  PMPE      H17S            4.8569329710       32.2355863079        6.2526578719  MEMB      49              0.0000000000
      6173        49  PMPE      C210            5.2835942883       34.2034654397        5.2856473551  MEMB      49              0.0000000000
      6174        49  PMPE      H10R            4.9636223848       35.2536173345        5.1150028803  MEMB      49              0.0000000000
      6175        49  PMPE      C211            5.7903248288       33.5195614594        4.0458453802  MEMB      49              0.0000000000
      6176        49  PMPE      H11R            4.9229871748       33.5590644101        3.3526736581  MEMB      49              0.0000000000
      6177        49  PMPE      H11S            6.0529799095       32.4559806720        4.2305849937  MEMB      49              0.0000000000
      6178        49  PMPE      C212            7.0139398723       34.2027134464        3.4483959824  MEMB      49              0.0000000000
      6179        49  PMPE      H12R            7.6770747617       34.3812458188        4.3217233107  MEMB      49              0.0000000000
      6180        49  PMPE      H12S            6.5452717776       35.1096717529        3.0101058329  MEMB      49              0.0000000000
      6181        49  PMPE      C213            7.7732414113       33.3944627243        2.3590691652  MEMB      49              0.0000000000
      6182        49  PMPE      H13R            7.0677967269       32.9417192096        1.6298968183  MEMB      49              0.0000000000
      6183        49  PMPE      H13S            8.3108415114       32.5413429517        2.8254322842  MEMB      49              0.0000000000
      6184        49  PMPE      C214            8.8376245066       34.1754099842        1.6463698179  MEMB      49              0.0000000000
      6185        49  PMPE      H14R            9.3985451183       34.5750139346        2.5181537629  MEMB      49              0.0000000000
      6186        49  PMPE      H14S            8.3233836268       35.0120971296        1.1269171905  MEMB      49              0.0000000000
      6187        49  PMPE      C215            9.6639146179       33.2815612031        0.6356046439  MEMB      49              0.0000000000
      6188        49  PMPE      H15R            8.9986582485       32.8086076481       -0.1180991612  MEMB      49              0.0000000000
      6189        49  PMPE      H15S           10.2419891049       32.5191461936        1.2002959227  MEMB      49              0.0000000000
      6190        49  PMPE      C216           10.6970932659       34.1268309617       -0.1868155383  MEMB      49              0.0000000000
      6191        49  PMPE      H16R           10.1825645886       35.0012076433       -0.6396359950  MEMB      49              0.0000000000
      6192        49  PMPE      H16S           11.5062582554       34.3771124364        0.5321653533  MEMB      49              0.0000000000
      6193        49  PMPE      H16T           11.1800290860       33.5759324387       -1.0220417468  MEMB      49              0.0000000000
      6194        49  PMPE      C33            10.8972047839       27.1348555098       12.4659119455  MEMB      49              0.0000000000
      6195        49  PMPE      H3X            10.7764236891       27.1254582276       13.5702870056  MEMB      49              0.0000000000
      6196        49  PMPE      H3Y            10.9782881820       26.0427915287       12.2784469191  MEMB      49              0.0000000000
      6197        49  PMPE      C34             9.6518422622       27.8130976267       11.8722904474  MEMB      49              0.0000000000
      6198        49  PMPE      H4X             9.6643187358       28.9101769845       12.0471683080  MEMB      49              0.0000000000
      6199        49  PMPE      H4Y             8.7543752232       27.3915933464       12.3734974130  MEMB      49              0.0000000000
      6200        49  PMPE      C35             9.4757097376       27.6180914155       10.4000481151  MEMB      49              0.0000000000
      6201        49  PMPE      H5X             8.5618861996       26.9964534105       10.2868500214  MEMB      49              0.0000000000
      6202        49  PMPE      H5Y            10.2536323238       26.9247759096       10.0147274214  MEMB      49              0.0000000000
      6203        49  PMPE      C36             9.4583529974       28.8751004672        9.5664684364  MEMB      49              0.0000000000
      6204        49  PMPE      H6X            10.3274820832       29.5431156486        9.7472761867  MEMB      49              0.0000000000
      6205        49  PMPE      H6Y             8.5507717618       29.4162873626        9.9095923528  MEMB      49              0.0000000000
      6206        49  PMPE      C37             9.4259624102       28.6026592399        8.0584859219  MEMB      49              0.0000000000
      6207        49  PMPE      H7X             9.0979025102       29.5467085393        7.5732355307  MEMB      49              0.0000000000
      6208        49  PMPE      H7Y             8.6785868052       27.8025127568        7.8700280618  MEMB      49              0.0000000000
      6209        49  PMPE      C38            10.7824982119       28.1999552583        7.5304391112  MEMB      49              0.0000000000
      6210        49  PMPE      H8X            11.1783649643       27.3605030612        8.1411191117  MEMB      49              0.0000000000
      6211        49  PMPE      H8Y            11.5579287409       28.9702046144        7.7297993230  MEMB      49              0.0000000000
      6212        49  PMPE      C39            10.9164032240       27.8327935370        6.0277060821  MEMB      49              0.0000000000
      6213        49  PMPE      H9X            10.3159417615       26.9127911970        5.8622887712  MEMB      49              0.0000000000
      6214        49  PMPE      H9Y            11.9813005842       27.6682828153        5.7570558540  MEMB      49              0.0000000000
      6215        49  PMPE      C310           10.4398853642       28.9034074634        5.0702766696  MEMB      49              0.0000000000
      6216        49  PMPE      H10X           11.3008477193       29.3061829533        4.4950927471  MEMB      49              0.0000000000
      6217        49  PMPE      H10Y            9.9284157960       29.7249898138        5.6159161491  MEMB      49              0.0000000000
      6218        49  PMPE      C311            9.5319205374       28.4568171093        3.9788722141  MEMB      49              0.0000000000
      6219        49  PMPE      H11X            9.8305223273       27.4332004085        3.6668358032  MEMB      49              0.0000000000
      6220        49  PMPE      H11Y            9.4850261309       29.0030598312        3.0125693722  MEMB      49              0.0000000000
      6221        49  PMPE      C312            8.0401072426       28.6401669526        4.4411770219  MEMB      49              0.0000000000
      6222        49  PMPE      H12X            7.7158903499       29.6983300029        4.3437342554  MEMB      49              0.0000000000
      6223        49  PMPE      H12Y            7.9771781338       28.3976587727        5.5235594768  MEMB      49              0.0000000000
      6224        49  PMPE      C313            6.9509651532       27.8225721074        3.6456980301  MEMB      49              0.0000000000
      6225        49  PMPE      H13X            5.9875965608       28.1822716415        4.0662429648  MEMB      49              0.0000000000
      6226        49  PMPE      H13Y            6.9680498799       26.7654402164        3.9870208623  MEMB      49              0.0000000000
      6227        49  PMPE      C314            7.0499261142       28.0093586514        2.1252701672  MEMB      49              0.0000000000
      6228        49  PMPE      H14X            6.1949066681       27.4699589453        1.6644986186  MEMB      49              0.0000000000
      6229        49  PMPE      H14Y            8.0022007217       27.6192938588        1.7065303364  MEMB      49              0.0000000000
      6230        49  PMPE      C315            6.8276854490       29.4324507042        1.5453028762  MEMB      49              0.0000000000
      6231        49  PMPE      H15X            7.1190934871       29.3582450708        0.4757720720  MEMB      49              0.0000000000
      6232        49  PMPE      H15Y            7.5666726290       30.1376309757        1.9822684552  MEMB      49              0.0000000000
      6233        49  PMPE      C316            5.5003916212       30.0659942154        1.6499300698  MEMB      49              0.0000000000
      6234        49  PMPE      H16X            4.7542079356       29.6009889343        0.9707377379  MEMB      49              0.0000000000
      6235        49  PMPE      H16Y            5.4172078082       31.1069137753        1.2706040056  MEMB      49              0.0000000000
      6236        49  PMPE      H16Z            5.0809867744       30.0646848803        2.6787241315  MEMB      49              0.0000000000
      6237        50  POPE      N              19.7773388254       24.1040807181       20.5565815906  MEMB      50              0.0000000000
      6238        50  POPE      HN1            20.6995480623       23.8470860668       20.9628869178  MEMB      50              0.0000000000
      6239        50  POPE      HN2            19.8459830849       24.8535750859       19.8388447341  MEMB      50              0.0000000000
      6240        50  POPE      HN3            19.1132538956       24.3847977303       21.3061075575  MEMB      50              0.0000000000
      6241        50  POPE      C12            19.5330878867       22.9209018590       19.7336307998  MEMB      50              0.0000000000
      6242        50  POPE      H12A           18.5781276168       22.9992234572       19.1712809058  MEMB      50              0.0000000000
      6243        50  POPE      H12B           19.5083584415       22.0321740174       20.3998682989  MEMB      50              0.0000000000
      6244        50  POPE      C11            20.6870587986       22.8041289311       18.6957358440  MEMB      50              0.0000000000
      6245        50  POPE      H11A           20.7527958322       23.7771549220       18.1635516488  MEMB      50              0.0000000000
      6246        50  POPE      H11B           20.2871945331       21.9512880934       18.1065906617  MEMB      50              0.0000000000
      6247        50  POPE      P              23.2420695155       23.0878150487       18.6114696343  MEMB      50              0.0000000000
      6248        50  POPE      O13            24.4736011950       22.3912136778       19.1440930040  MEMB      50              0.0000000000
      6249        50  POPE      O14            23.3106029808       24.5816752159       18.7075271041  MEMB      50              0.0000000000
      6250        50  POPE      O11            23.0015262929       22.7306386408       17.1553248398  MEMB      50              0.0000000000
      6251        50  POPE      O12            21.9660353050       22.5260155092       19.3956371985  MEMB      50              0.0000000000
      6252        50  POPE      C1             24.0846726376       23.1519400376       16.2869614486  MEMB      50              0.0000000000
      6253        50  POPE      HA             24.4161095453       22.2855520376       15.6755351044  MEMB      50              0.0000000000
      6254        50  POPE      HB             25.0362842324       23.5199151564       16.7266776694  MEMB      50              0.0000000000
      6255        50  POPE      C2             23.6509053115       24.4099081661       15.5214637440  MEMB      50              0.0000000000
      6256        50  POPE      HS             23.9397569719       25.2470893780       16.1922937927  MEMB      50              0.0000000000
      6257        50  POPE      O21            22.2263113043       24.3645965778       15.1666467888  MEMB      50              0.0000000000
      6258        50  POPE      C21            21.4584801831       25.4416041203       15.3041977267  MEMB      50              0.0000000000
      6259        50  POPE      O22            21.7398172013       26.5242163229       15.7753691401  MEMB      50              0.0000000000
      6260        50  POPE      C22            20.0015093426       25.0387034596       14.9840246711  MEMB      50              0.0000000000
      6261        50  POPE      H2R            19.3970207459       25.9561950536       14.8193308720  MEMB      50              0.0000000000
      6262        50  POPE      H2S            19.5473294775       24.4006532716       15.7720181011  MEMB      50              0.0000000000
      6263        50  POPE      C3             24.5070489401       24.6116642220       14.2817625198  MEMB      50              0.0000000000
      6264        50  POPE      HX             25.5840751340       24.6669406519       14.5487456640  MEMB      50              0.0000000000
      6265        50  POPE      HY             24.4312487512       25.6112500084       13.8028016896  MEMB      50              0.0000000000
      6266        50  POPE      O31            24.1205573953       23.7234807417       13.2140084993  MEMB      50              0.0000000000
      6267        50  POPE      C31            24.9918106557       22.8915180066       12.7719390879  MEMB      50              0.0000000000
      6268        50  POPE      O32            26.1073166951       22.6454977119       13.2225555970  MEMB      50              0.0000000000
      6269        50  POPE      C32            24.3292507873       22.2270239080       11.5196094159  MEMB      50              0.0000000000
      6270        50  POPE      H2X            23.4373919952       22.8735850298       11.3751535262  MEMB      50              0.0000000000
      6271        50  POPE      H2Y            23.9933441309       21.1874088724       11.7213231376  MEMB      50              0.0000000000
      6272        50  POPE      C23            19.8275826052       24.1210153434       13.6804096385  MEMB      50              0.0000000000
      6273        50  POPE      H3R            18.8138700628       23.6700204264       13.7379568382  MEMB      50              0.0000000000
      6274        50  POPE      H3S            20.4697707322       23.2171477455       13.7506868669  MEMB      50              0.0000000000
      6275        50  POPE      C24            19.9456889527       24.8945325665       12.3842939897  MEMB      50              0.0000000000
      6276        50  POPE      H4R            21.0289759423       25.1332070367       12.3222888798  MEMB      50              0.0000000000
      6277        50  POPE      H4S            19.3242733691       25.8135304096       12.4443539931  MEMB      50              0.0000000000
      6278        50  POPE      C25            19.5914176041       24.2523341444       11.0266294974  MEMB      50              0.0000000000
      6279        50  POPE      H5R            19.6805677365       25.0900364050       10.3023172144  MEMB      50              0.0000000000
      6280        50  POPE      H5S            18.5637430282       23.8336804678       10.9724540123  MEMB      50              0.0000000000
      6281        50  POPE      C26            20.5505736519       23.1466021373       10.7019219870  MEMB      50              0.0000000000
      6282        50  POPE      H6R            20.3994914454       22.3325912424       11.4427875302  MEMB      50              0.0000000000
      6283        50  POPE      H6S            21.5725018651       23.4671343679       10.9972907658  MEMB      50              0.0000000000
      6284        50  POPE      C27            20.6464790159       22.7015266944        9.2017085805  MEMB      50              0.0000000000
      6285        50  POPE      H7R            21.0115693945       21.6566100358        9.1058997640  MEMB      50              0.0000000000
      6286        50  POPE      H7S            21.2181049168       23.4710346869        8.6400835830  MEMB      50              0.0000000000
      6287        50  POPE      C28            19.3171998766       22.5988069518        8.4984787685  MEMB      50              0.0000000000
      6288        50  POPE      H8R            19.0732767650       23.6562051968        8.2602945858  MEMB      50              0.0000000000
      6289        50  POPE      H8S            18.5515381099       22.3856963854        9.2747946618  MEMB      50              0.0000000000
      6290        50  POPE      C29            19.3268880229       21.7870001820        7.2905878677  MEMB      50              0.0000000000
      6291        50  POPE      H91            19.2756273046       20.7159385661        7.5359436615  MEMB      50              0.0000000000
      6292        50  POPE      C210           19.3908008329       22.1728924892        5.9887130491  MEMB      50              0.0000000000
      6293        50  POPE      H101           19.6871617000       21.3813498444        5.2847022861  MEMB      50              0.0000000000
      6294        50  POPE      C211           19.5494730519       23.6019464509        5.4574206086  MEMB      50              0.0000000000
      6295        50  POPE      H11R           18.8807423539       24.2802321546        6.0293021234  MEMB      50              0.0000000000
      6296        50  POPE      H11S           19.2439128251       23.6511587935        4.3904003685  MEMB      50              0.0000000000
      6297        50  POPE      C212           20.9959454511       24.0911364946        5.3657043220  MEMB      50              0.0000000000
      6298        50  POPE      H12R           21.3039219908       24.3997855467        6.3875693534  MEMB      50              0.0000000000
      6299        50  POPE      H12S           20.8976438567       25.0084068434        4.7466146186  MEMB      50              0.0000000000
      6300        50  POPE      C213           22.0493651159       23.1633406064        4.7573938048  MEMB      50              0.0000000000
      6301        50  POPE      H13R           22.0230324451       22.1989395954        5.3083552341  MEMB      50              0.0000000000
      6302        50  POPE      H13S           23.0403361257       23.6550123828        4.8601385193  MEMB      50              0.0000000000
      6303        50  POPE      C214           21.9268724937       22.8395392569        3.2494737609  MEMB      50              0.0000000000
      6304        50  POPE      H14R           21.9333056677       23.7558191712        2.6212146488  MEMB      50              0.0000000000
      6305        50  POPE      H14S           21.0076884073       22.2517400016        3.0399176800  MEMB      50              0.0000000000
      6306        50  POPE      C215           23.2147910935       22.0538577603        2.6941032169  MEMB      50              0.0000000000
      6307        50  POPE      H15R           23.2035028374       21.1317299792        3.3136796070  MEMB      50              0.0000000000
      6308        50  POPE      H15S           24.1133010730       22.6523228207        2.9564779196  MEMB      50              0.0000000000
      6309        50  POPE      C216           23.2359112263       21.8197018605        1.1925137208  MEMB      50              0.0000000000
      6310        50  POPE      H16R           23.0749010152       22.6903796123        0.5214575499  MEMB      50              0.0000000000
      6311        50  POPE      H16S           22.4738990820       21.1020578061        0.8201626654  MEMB      50              0.0000000000
      6312        50  POPE      C217           24.6287097009       21.3472670031        0.7025698607  MEMB      50              0.0000000000
      6313        50  POPE      H17R           25.0074847523       20.4648111719        1.2612490243  MEMB      50              0.0000000000
      6314        50  POPE      H17S           25.2840695505       22.2405992425        0.7849229431  MEMB      50              0.0000000000
      6315        50  POPE      C218           24.7395707478       20.9294781229       -0.7992626227  MEMB      50              0.0000000000
      6316        50  POPE      H18R           25.7124432582       20.4019198122       -0.8968422179  MEMB      50              0.0000000000
      6317        50  POPE      H18S           24.5812866471       21.7033022873       -1.5805848024  MEMB      50              0.0000000000
      6318        50  POPE      H18T           24.0223779815       20.1236065712       -1.0648302113  MEMB      50              0.0000000000
      6319        50  POPE      C33            25.2946652891       22.2254993424       10.3388219924  MEMB      50              0.0000000000
      6320        50  POPE      H3X            25.9514034609       21.3358226854       10.4460180929  MEMB      50              0.0000000000
      6321        50  POPE      H3Y            25.9611794008       23.1137198853       10.3049960565  MEMB      50              0.0000000000
      6322        50  POPE      C34            24.5595227174       22.2135334107        8.9614623005  MEMB      50              0.0000000000
      6323        50  POPE      H4X            23.8273214656       23.0396560588        8.8360683157  MEMB      50              0.0000000000
      6324        50  POPE      H4Y            23.8959495025       21.3224713061        8.9613708063  MEMB      50              0.0000000000
      6325        50  POPE      C35            25.4519551975       22.1029936882        7.7476448234  MEMB      50              0.0000000000
      6326        50  POPE      H5X            26.4256722511       21.6736191929        8.0667588299  MEMB      50              0.0000000000
      6327        50  POPE      H5Y            25.6753957720       23.1237134386        7.3701179756  MEMB      50              0.0000000000
      6328        50  POPE      C36            24.8241646093       21.2611243706        6.6799600017  MEMB      50              0.0000000000
      6329        50  POPE      H6X            25.3694301729       21.5911409268        5.7699628499  MEMB      50              0.0000000000
      6330        50  POPE      H6Y            23.7772073441       21.5367101720        6.4304530862  MEMB      50              0.0000000000
      6331        50  POPE      C37            24.8837517543       19.7425943140        6.8208419105  MEMB      50              0.0000000000
      6332        50  POPE      H7X            24.6449103132       19.4646779729        7.8696684330  MEMB      50              0.0000000000
      6333        50  POPE      H7Y            25.9216708689       19.3985226584        6.6242198977  MEMB      50              0.0000000000
      6334        50  POPE      C38            23.8944002540       19.0391146685        5.8450284829  MEMB      50              0.0000000000
      6335        50  POPE      H8X            24.3389766139       18.0607396792        5.5631513035  MEMB      50              0.0000000000
      6336        50  POPE      H8Y            23.9396569193       19.5734453790        4.8720113780  MEMB      50              0.0000000000
      6337        50  POPE      C39            22.6179179478       18.7192571402        6.6293368469  MEMB      50              0.0000000000
      6338        50  POPE      H9X            22.3079173145       19.5574570884        7.2893686481  MEMB      50              0.0000000000
      6339        50  POPE      H9Y            22.9454763285       17.8711214080        7.2678457275  MEMB      50              0.0000000000
      6340        50  POPE      C310           21.4555966150       18.1775227520        5.7168489239  MEMB      50              0.0000000000
      6341        50  POPE      H10X           20.4982524027       18.6227449678        6.0626668559  MEMB      50              0.0000000000
      6342        50  POPE      H10Y           21.4089190395       17.0675487145        5.7268430526  MEMB      50              0.0000000000
      6343        50  POPE      C311           21.5380856466       18.6284486906        4.1863360283  MEMB      50              0.0000000000
      6344        50  POPE      H11X           22.3701665499       18.1556054686        3.6220825768  MEMB      50              0.0000000000
      6345        50  POPE      H11Y           21.6971228193       19.7243366555        4.0965698869  MEMB      50              0.0000000000
      6346        50  POPE      C312           20.2436761975       18.2078794743        3.4886937067  MEMB      50              0.0000000000
      6347        50  POPE      H12X           19.4007108861       17.9419065467        4.1617379298  MEMB      50              0.0000000000
      6348        50  POPE      H12Y           20.4449970226       17.2488522225        2.9651894526  MEMB      50              0.0000000000
      6349        50  POPE      C313           19.7360124315       19.2317900190        2.4090356274  MEMB      50              0.0000000000
      6350        50  POPE      H13X           19.6525144811       20.2317862318        2.8858554523  MEMB      50              0.0000000000
      6351        50  POPE      H13Y           18.7264208492       18.8483707707        2.1481998914  MEMB      50              0.0000000000
      6352        50  POPE      C314           20.5917743781       19.2409771457        1.0648014805  MEMB      50              0.0000000000
      6353        50  POPE      H14X           20.4305468590       18.2590701961        0.5706486537  MEMB      50              0.0000000000
      6354        50  POPE      H14Y           21.6282666956       19.2427008010        1.4648023648  MEMB      50              0.0000000000
      6355        50  POPE      C315           20.1506300045       20.2405436436        0.0397308936  MEMB      50              0.0000000000
      6356        50  POPE      H15X           20.4051851402       21.3100524451        0.1999607210  MEMB      50              0.0000000000
      6357        50  POPE      H15Y           19.0528257292       20.3336385613        0.1828375666  MEMB      50              0.0000000000
      6358        50  POPE      C316           20.2932444471       19.7711292347       -1.4480235289  MEMB      50              0.0000000000
      6359        50  POPE      H16X           19.7121898933       18.8526534156       -1.6784538632  MEMB      50              0.0000000000
      6360        50  POPE      H16Y           21.3582755571       19.6818731247       -1.7514430453  MEMB      50              0.0000000000
      6361        50  POPE      H16Z           19.8447318414       20.5650697355       -2.0827020331  MEMB      50              0.0000000000
      6362        51  PMPE      N              24.3879769118       15.1706691817       18.9178770614  MEMB      51              0.0000000000
      6363        51  PMPE      HN1            23.9332178870       16.0634357943       18.6390186201  MEMB      51              0.0000000000
      6364        51  PMPE      HN2            24.0821760246       14.3300121435       18.3874229575  MEMB      51              0.0000000000
      6365        51  PMPE      HN3            24.1627844719       14.9145452646       19.9003682506  MEMB      51              0.0000000000
      6366        51  PMPE      C12            25.8522798530       15.3275976624       18.9491390270  MEMB      51              0.0000000000
      6367        51  PMPE      H12A           26.1780814746       14.7358528854       18.0670889343  MEMB      51              0.0000000000
      6368        51  PMPE      H12B           26.1948587413       14.9030501457       19.9169819541  MEMB      51              0.0000000000
      6369        51  PMPE      C11            26.3184977212       16.7741206608       18.7446294835  MEMB      51              0.0000000000
      6370        51  PMPE      H11A           25.9071284823       17.3034177259       19.6305984055  MEMB      51              0.0000000000
      6371        51  PMPE      H11B           25.9490751975       17.2201308451       17.7965140227  MEMB      51              0.0000000000
      6372        51  PMPE      P              28.5674391911       18.0106462002       19.1471653946  MEMB      51              0.0000000000
      6373        51  PMPE      O13            29.9041757396       17.5526203495       19.4501239355  MEMB      51              0.0000000000
      6374        51  PMPE      O14            27.7381256917       18.5960312802       20.2435045014  MEMB      51              0.0000000000
      6375        51  PMPE      O11            28.6867015609       18.9873997144       17.9201049849  MEMB      51              0.0000000000
      6376        51  PMPE      O12            27.6979297308       16.7283917508       18.6274556095  MEMB      51              0.0000000000
      6377        51  PMPE      C1             29.5189381669       18.7325366584       16.7547496308  MEMB      51              0.0000000000
      6378        51  PMPE      HA             29.9021401678       17.6918286444       16.6883853151  MEMB      51              0.0000000000
      6379        51  PMPE      HB             30.3299679122       19.4799158783       16.6206743409  MEMB      51              0.0000000000
      6380        51  PMPE      C2             28.5515323495       19.0910127205       15.6650451326  MEMB      51              0.0000000000
      6381        51  PMPE      HS             28.0567521090       20.0509547415       15.9258609492  MEMB      51              0.0000000000
      6382        51  PMPE      O21            27.7012973328       17.9771845918       15.4000290192  MEMB      51              0.0000000000
      6383        51  PMPE      C21            26.5685511257       18.3268675839       14.8148224176  MEMB      51              0.0000000000
      6384        51  PMPE      O22            26.0554828752       19.4879398794       14.7982401873  MEMB      51              0.0000000000
      6385        51  PMPE      C22            25.8916338051       17.0890926619       14.1312620910  MEMB      51              0.0000000000
      6386        51  PMPE      H2R            25.0528430108       17.4302411165       13.4875475126  MEMB      51              0.0000000000
      6387        51  PMPE      H2S            25.5091219511       16.4690329130       14.9700302303  MEMB      51              0.0000000000
      6388        51  PMPE      C3             29.1993414209       19.4794623900       14.2787894067  MEMB      51              0.0000000000
      6389        51  PMPE      HX             29.7595171952       20.4354771790       14.3597847655  MEMB      51              0.0000000000
      6390        51  PMPE      HY             28.3669420980       19.7409319180       13.5909917538  MEMB      51              0.0000000000
      6391        51  PMPE      O31            30.0086253943       18.3685269893       13.7541531486  MEMB      51              0.0000000000
      6392        51  PMPE      C31            31.0235758392       18.6921275790       13.0125634373  MEMB      51              0.0000000000
      6393        51  PMPE      O32            31.2903616886       19.8003732000       12.5480042294  MEMB      51              0.0000000000
      6394        51  PMPE      C32            31.8613319625       17.4085249577       12.6553155009  MEMB      51              0.0000000000
      6395        51  PMPE      H2X            31.2370411342       16.4994395247       12.7900211254  MEMB      51              0.0000000000
      6396        51  PMPE      H2Y            32.6674971647       17.4088801954       13.4197879211  MEMB      51              0.0000000000
      6397        51  PMPE      C23            26.8826726997       16.3106105337       13.2475027561  MEMB      51              0.0000000000
      6398        51  PMPE      H3R            27.8658442306       16.1988673001       13.7526838349  MEMB      51              0.0000000000
      6399        51  PMPE      H3S            27.0386980331       16.7899464637       12.2574452022  MEMB      51              0.0000000000
      6400        51  PMPE      C24            26.2657889940       14.9198098759       12.9094015075  MEMB      51              0.0000000000
      6401        51  PMPE      H4R            25.6994141327       14.4920957975       13.7641536184  MEMB      51              0.0000000000
      6402        51  PMPE      H4S            26.9842308045       14.1046813529       12.6776084100  MEMB      51              0.0000000000
      6403        51  PMPE      C25            25.2635259430       15.1858282270       11.7476590176  MEMB      51              0.0000000000
      6404        51  PMPE      H5R            24.5415639460       15.9928721396       11.9961991769  MEMB      51              0.0000000000
      6405        51  PMPE      H5S            24.6133517149       14.2850758953       11.7321829329  MEMB      51              0.0000000000
      6406        51  PMPE      C26            25.9738936544       15.2206781980       10.3622116610  MEMB      51              0.0000000000
      6407        51  PMPE      H6R            26.6134128239       14.3133285826       10.3169039831  MEMB      51              0.0000000000
      6408        51  PMPE      H6S            26.6784896601       16.0717434633       10.2457928699  MEMB      51              0.0000000000
      6409        51  PMPE      C27            25.0058846603       15.1899980141        9.2266106186  MEMB      51              0.0000000000
      6410        51  PMPE      H7R            24.4651583200       16.1605023287        9.2342067302  MEMB      51              0.0000000000
      6411        51  PMPE      H7S            24.2438339071       14.3817787299        9.2461317602  MEMB      51              0.0000000000
      6412        51  PMPE      C28            25.7540471409       15.1065805076        7.8670327129  MEMB      51              0.0000000000
      6413        51  PMPE      H8R            26.2446803111       14.1126591516        7.7914009521  MEMB      51              0.0000000000
      6414        51  PMPE      H8S            26.4670265246       15.9470328118        7.7269563770  MEMB      51              0.0000000000
      6415        51  PMPE      C29            24.7181353173       15.4446602246        6.7311502077  MEMB      51              0.0000000000
      6416        51  PMPE      H9R            23.8495019051       16.1284393396        6.8418009613  MEMB      51              0.0000000000
      6417        51  PMPE      C217           24.1504768082       14.1090644911        6.1977510373  MEMB      51              0.0000000000
      6418        51  PMPE      H17R           23.1318663875       14.0687719683        5.8321030321  MEMB      51              0.0000000000
      6419        51  PMPE      H17S           24.7117536829       13.2280456127        6.4835182109  MEMB      51              0.0000000000
      6420        51  PMPE      C210           25.0023562808       15.0338305783        5.3433347414  MEMB      51              0.0000000000
      6421        51  PMPE      H10R           24.6131848857       15.7632337354        4.6011507342  MEMB      51              0.0000000000
      6422        51  PMPE      C211           26.4651289207       14.6517850508        5.1262765261  MEMB      51              0.0000000000
      6423        51  PMPE      H11R           26.4813072841       14.2383525292        4.0951930556  MEMB      51              0.0000000000
      6424        51  PMPE      H11S           27.0369269408       13.8634071481        5.6609052327  MEMB      51              0.0000000000
      6425        51  PMPE      C212           27.3405804248       15.9648157799        5.0934659194  MEMB      51              0.0000000000
      6426        51  PMPE      H12R           27.4915963474       16.4809554020        6.0656361957  MEMB      51              0.0000000000
      6427        51  PMPE      H12S           26.8564746430       16.6341769450        4.3505544294  MEMB      51              0.0000000000
      6428        51  PMPE      C213           28.7576149253       15.7120851341        4.4394327104  MEMB      51              0.0000000000
      6429        51  PMPE      H13R           29.1293861859       14.7794248161        4.9150920019  MEMB      51              0.0000000000
      6430        51  PMPE      H13S           29.3553252933       16.5944143221        4.7533727302  MEMB      51              0.0000000000
      6431        51  PMPE      C214           28.8516970108       15.4968935048        2.8991633360  MEMB      51              0.0000000000
      6432        51  PMPE      H14R           28.0984026764       14.7076804095        2.6893726463  MEMB      51              0.0000000000
      6433        51  PMPE      H14S           29.8326029503       15.0519002545        2.6269037620  MEMB      51              0.0000000000
      6434        51  PMPE      C215           28.6687381645       16.7289871803        2.0624405684  MEMB      51              0.0000000000
      6435        51  PMPE      H15R           29.2063601630       17.5539470040        2.5769553088  MEMB      51              0.0000000000
      6436        51  PMPE      H15S           27.5669039151       16.8450574715        1.9799173258  MEMB      51              0.0000000000
      6437        51  PMPE      C216           29.2925010692       16.5325624710        0.6609527536  MEMB      51              0.0000000000
      6438        51  PMPE      H16R           30.3973423212       16.4880508911        0.7689605533  MEMB      51              0.0000000000
      6439        51  PMPE      H16S           28.8940846310       15.5744290167        0.2640067453  MEMB      51              0.0000000000
      6440        51  PMPE      H16T           29.0048013548       17.3235724693       -0.0642052576  MEMB      51              0.0000000000
      6441        51  PMPE      C33            32.2570419444       17.5361552342       11.1891250609  MEMB      51              0.0000000000
      6442        51  PMPE      H3X            32.9808259343       16.7312055103       10.9390970182  MEMB      51              0.0000000000
      6443        51  PMPE      H3Y            32.7956354359       18.4764630034       10.9440544103  MEMB      51              0.0000000000
      6444        51  PMPE      C34            31.0579597592       17.1647100152       10.2836216268  MEMB      51              0.0000000000
      6445        51  PMPE      H4X            30.1172995108       17.4189075329       10.8173463298  MEMB      51              0.0000000000
      6446        51  PMPE      H4Y            31.0133869902       16.0549975932       10.3131641072  MEMB      51              0.0000000000
      6447        51  PMPE      C35            31.1330448873       17.8745118919        8.9226289190  MEMB      51              0.0000000000
      6448        51  PMPE      H5X            32.0160302063       17.4629032197        8.3885536055  MEMB      51              0.0000000000
      6449        51  PMPE      H5Y            31.2630652797       18.9775644961        8.8963467561  MEMB      51              0.0000000000
      6450        51  PMPE      C36            29.9531091202       17.6155726707        8.0187693236  MEMB      51              0.0000000000
      6451        51  PMPE      H6X            29.9869036542       16.5501483862        7.7056394684  MEMB      51              0.0000000000
      6452        51  PMPE      H6Y            30.0015416976       18.2014591728        7.0760532706  MEMB      51              0.0000000000
      6453        51  PMPE      C37            28.5553112215       17.8321704103        8.6023524755  MEMB      51              0.0000000000
      6454        51  PMPE      H7X            28.4291212211       17.0291079834        9.3596428419  MEMB      51              0.0000000000
      6455        51  PMPE      H7Y            27.8827989582       17.5978196829        7.7496348745  MEMB      51              0.0000000000
      6456        51  PMPE      C38            28.2381912512       19.2456136151        9.1059511629  MEMB      51              0.0000000000
      6457        51  PMPE      H8X            28.6512926001       19.9313055697        8.3355649949  MEMB      51              0.0000000000
      6458        51  PMPE      H8Y            28.7656376962       19.4818051477       10.0548107149  MEMB      51              0.0000000000
      6459        51  PMPE      C39            26.8032873096       19.5695225804        9.5095797572  MEMB      51              0.0000000000
      6460        51  PMPE      H9X            26.6036219135       20.6384604352        9.7372363089  MEMB      51              0.0000000000
      6461        51  PMPE      H9Y            26.4649677143       19.0117511614       10.4088869136  MEMB      51              0.0000000000
      6462        51  PMPE      C310           25.7051111634       19.1257256216        8.4329469622  MEMB      51              0.0000000000
      6463        51  PMPE      H10X           24.7274048127       19.3487798639        8.9111290887  MEMB      51              0.0000000000
      6464        51  PMPE      H10Y           25.8093325283       18.0271438565        8.3041970200  MEMB      51              0.0000000000
      6465        51  PMPE      C311           25.7634641552       19.7940627041        7.0978362519  MEMB      51              0.0000000000
      6466        51  PMPE      H11X           26.7987218422       20.0337498131        6.7736255962  MEMB      51              0.0000000000
      6467        51  PMPE      H11Y           25.3282478845       20.8152952126        7.0532034104  MEMB      51              0.0000000000
      6468        51  PMPE      C312           25.1036848500       19.0748461827        5.8752855797  MEMB      51              0.0000000000
      6469        51  PMPE      H12X           24.0003672307       19.0773216578        6.0056878120  MEMB      51              0.0000000000
      6470        51  PMPE      H12Y           25.3454746275       17.9913622335        5.9191173384  MEMB      51              0.0000000000
      6471        51  PMPE      C313           25.4120441157       19.5921659578        4.4832996300  MEMB      51              0.0000000000
      6472        51  PMPE      H13X           26.5050169413       19.6193134650        4.2858297635  MEMB      51              0.0000000000
      6473        51  PMPE      H13Y           25.0777972954       20.6511280291        4.4486684944  MEMB      51              0.0000000000
      6474        51  PMPE      C314           24.7779880614       18.6616961301        3.4069689255  MEMB      51              0.0000000000
      6475        51  PMPE      H14X           23.8476911065       18.2668968316        3.8684904905  MEMB      51              0.0000000000
      6476        51  PMPE      H14Y           25.4370005519       17.7720667164        3.3143236865  MEMB      51              0.0000000000
      6477        51  PMPE      C315           24.6938004913       19.2841821063        1.9854378278  MEMB      51              0.0000000000
      6478        51  PMPE      H15X           25.7166995813       19.5082894695        1.6142577492  MEMB      51              0.0000000000
      6479        51  PMPE      H15Y           24.0932511282       20.2149468267        2.0711015080  MEMB      51              0.0000000000
      6480        51  PMPE      C316           24.0688759709       18.3563020254        0.9103420929  MEMB      51              0.0000000000
      6481        51  PMPE      H16X           24.7068541521       17.4469075125        0.8928485005  MEMB      51              0.0000000000
      6482        51  PMPE      H16Y           24.0712710744       18.7863154271       -0.1140624198  MEMB      51              0.0000000000
      6483        51  PMPE      H16Z           22.9796456758       18.1456662546        0.9697680674  MEMB      51              0.0000000000
      6484        52  QMPE      N               4.8629338543      -33.6406402569       21.9686550465  MEMB      52              0.0000000000
      6485        52  QMPE      HN1             5.1760713730      -33.1793251455       22.8465692632  MEMB      52              0.0000000000
      6486        52  QMPE      HN2             4.0484751694      -33.0682739475       21.6675672261  MEMB      52              0.0000000000
      6487        52  QMPE      HN3             4.6655742480      -34.6262396681       22.2355687073  MEMB      52              0.0000000000
      6488        52  QMPE      C12             5.9806848745      -33.6979252962       20.9436901261  MEMB      52              0.0000000000
      6489        52  QMPE      H12A            5.9806013656      -34.6803979952       20.4249721325  MEMB      52              0.0000000000
      6490        52  QMPE      H12B            6.8955245386      -33.6114370082       21.5681171182  MEMB      52              0.0000000000
      6491        52  QMPE      C11             6.0830754689      -32.4800152577       19.9533134384  MEMB      52              0.0000000000
      6492        52  QMPE      H11A            7.0563938901      -32.6236390659       19.4372277050  MEMB      52              0.0000000000
      6493        52  QMPE      H11B            6.0802262743      -31.5955370480       20.6256311734  MEMB      52              0.0000000000
      6494        52  QMPE      P               5.1845142160      -31.2939989818       17.8425705001  MEMB      52              0.0000000000
      6495        52  QMPE      O13             6.5742878462      -31.0284530289       17.5816247626  MEMB      52              0.0000000000
      6496        52  QMPE      O14             4.3794290370      -30.0466684563       18.0742987040  MEMB      52              0.0000000000
      6497        52  QMPE      O11             4.5812244827      -32.1321800217       16.5987394001  MEMB      52              0.0000000000
      6498        52  QMPE      O12             5.0013723796      -32.2734643042       19.0371080128  MEMB      52              0.0000000000
      6499        52  QMPE      C1              5.4470942079      -33.0094643815       15.8524173948  MEMB      52              0.0000000000
      6500        52  QMPE      HA              4.9221968935      -33.9852061331       15.9344649714  MEMB      52              0.0000000000
      6501        52  QMPE      HB              6.3989641337      -33.2383496205       16.3776565763  MEMB      52              0.0000000000
      6502        52  QMPE      C2              5.6663940305      -32.6149330974       14.3499828744  MEMB      52              0.0000000000
      6503        52  QMPE      HS              6.6239724639      -33.0813543892       14.0340470106  MEMB      52              0.0000000000
      6504        52  QMPE      O21             5.6628193485      -31.1906962080       14.1369006394  MEMB      52              0.0000000000
      6505        52  QMPE      C21             6.8698446665      -30.5733937263       14.5069753592  MEMB      52              0.0000000000
      6506        52  QMPE      O22             7.8174098291      -31.0906047450       15.0225872796  MEMB      52              0.0000000000
      6507        52  QMPE      C22             6.9369779644      -29.0846151651       13.9616798025  MEMB      52              0.0000000000
      6508        52  QMPE      H2R             7.6158887796      -29.0680017135       13.0824047578  MEMB      52              0.0000000000
      6509        52  QMPE      H2S             7.4107220317      -28.5013449176       14.7800219276  MEMB      52              0.0000000000
      6510        52  QMPE      C3              4.4960383642      -33.2348888289       13.4859047680  MEMB      52              0.0000000000
      6511        52  QMPE      HX              3.5325327748      -32.7391472272       13.7312987317  MEMB      52              0.0000000000
      6512        52  QMPE      HY              4.2696666701      -34.3100785355       13.6503545723  MEMB      52              0.0000000000
      6513        52  QMPE      O31             4.7040139376      -32.9688550497       12.0876823361  MEMB      52              0.0000000000
      6514        52  QMPE      C31             5.3410516501      -33.9410293733       11.4296579309  MEMB      52              0.0000000000
      6515        52  QMPE      O32             5.5013907872      -35.0684662638       11.7795961985  MEMB      52              0.0000000000
      6516        52  QMPE      C32             5.6902426149      -33.4222860189        9.9674342983  MEMB      52              0.0000000000
      6517        52  QMPE      H2X             6.0209330497      -32.3624087763       10.0077460264  MEMB      52              0.0000000000
      6518        52  QMPE      H2Y             6.5594669047      -34.0291177310        9.6349807953  MEMB      52              0.0000000000
      6519        52  QMPE      C23             5.6041105997      -28.5183747558       13.4855127361  MEMB      52              0.0000000000
      6520        52  QMPE      H3R             4.9142316313      -28.5819377286       14.3540448655  MEMB      52              0.0000000000
      6521        52  QMPE      H3S             5.1994428282      -29.2064461841       12.7127755905  MEMB      52              0.0000000000
      6522        52  QMPE      C24             5.6688770253      -27.1261863328       12.8477533496  MEMB      52              0.0000000000
      6523        52  QMPE      H4R             6.2196760967      -27.3062872129       11.8998582030  MEMB      52              0.0000000000
      6524        52  QMPE      H4S             6.1096371825      -26.5041504374       13.6559134257  MEMB      52              0.0000000000
      6525        52  QMPE      C25             4.2946613375      -26.5144738912       12.4836327455  MEMB      52              0.0000000000
      6526        52  QMPE      H5R             4.3514032705      -25.6254110670       11.8198044453  MEMB      52              0.0000000000
      6527        52  QMPE      H5S             3.6405668313      -26.2641848819       13.3460924166  MEMB      52              0.0000000000
      6528        52  QMPE      C26             3.5663211431      -27.4665463134       11.6141824691  MEMB      52              0.0000000000
      6529        52  QMPE      H6R             2.6192237896      -27.0047751569       11.2619117209  MEMB      52              0.0000000000
      6530        52  QMPE      H6S             3.2797511983      -28.4053926993       12.1345349177  MEMB      52              0.0000000000
      6531        52  QMPE      C27             4.2588258701      -27.7995549496       10.2765785988  MEMB      52              0.0000000000
      6532        52  QMPE      H7R             5.1085894334      -28.5068869746       10.3856861239  MEMB      52              0.0000000000
      6533        52  QMPE      H7S             4.6514045601      -26.8571223051        9.8383735629  MEMB      52              0.0000000000
      6534        52  QMPE      C28             3.2770174813      -28.5385042987        9.3082314071  MEMB      52              0.0000000000
      6535        52  QMPE      H8R             2.5092706955      -27.9149822437        8.8021617737  MEMB      52              0.0000000000
      6536        52  QMPE      H8S             2.6429565428      -29.2582064989        9.8688706197  MEMB      52              0.0000000000
      6537        52  QMPE      C29             3.9311299353      -29.4390989104        8.3581501932  MEMB      52              0.0000000000
      6538        52  QMPE      H9R             4.4262651264      -30.3234613571        8.8131948845  MEMB      52              0.0000000000
      6539        52  QMPE      C217            4.6847622685      -28.6828616204        7.2792748047  MEMB      52              0.0000000000
      6540        52  QMPE      H17R            4.4519989412      -27.6295135666        7.1835253376  MEMB      52              0.0000000000
      6541        52  QMPE      H17S            5.5207856779      -29.1037622556        6.7344844193  MEMB      52              0.0000000000
      6542        52  QMPE      C210            3.3979025820      -29.5427262222        6.9827410395  MEMB      52              0.0000000000
      6543        52  QMPE      H10R            3.4773783093      -30.6152917389        6.7041594606  MEMB      52              0.0000000000
      6544        52  QMPE      C211            2.3303651708      -28.7200795745        6.2968418674  MEMB      52              0.0000000000
      6545        52  QMPE      H11R            1.3252362281      -28.9130019764        6.7290665172  MEMB      52              0.0000000000
      6546        52  QMPE      H11S            2.5089250862      -27.6321546811        6.4341615075  MEMB      52              0.0000000000
      6547        52  QMPE      C212            2.3404062232      -29.1360554966        4.7749674687  MEMB      52              0.0000000000
      6548        52  QMPE      H12R            1.5020410456      -28.6935041220        4.1956463044  MEMB      52              0.0000000000
      6549        52  QMPE      H12S            2.1420685345      -30.2287836824        4.7444989971  MEMB      52              0.0000000000
      6550        52  QMPE      C213            3.6533998129      -28.9046638092        3.9415278391  MEMB      52              0.0000000000
      6551        52  QMPE      H13R            4.3676172459      -29.6752315187        4.3026923405  MEMB      52              0.0000000000
      6552        52  QMPE      H13S            4.0394283791      -27.8782487136        4.1197828983  MEMB      52              0.0000000000
      6553        52  QMPE      C214            3.3147983351      -29.1229161039        2.4706606000  MEMB      52              0.0000000000
      6554        52  QMPE      H14R            2.3024261854      -28.7254742037        2.2438047352  MEMB      52              0.0000000000
      6555        52  QMPE      H14S            3.3463517957      -30.1691538763        2.0982199177  MEMB      52              0.0000000000
      6556        52  QMPE      C215            4.2782562187      -28.3118938007        1.5314976966  MEMB      52              0.0000000000
      6557        52  QMPE      H15R            4.2800057605      -27.2635937211        1.8994444052  MEMB      52              0.0000000000
      6558        52  QMPE      H15S            3.9423062559      -28.4243972335        0.4785011849  MEMB      52              0.0000000000
      6559        52  QMPE      C216            5.8014503752      -28.6596288975        1.6707177315  MEMB      52              0.0000000000
      6560        52  QMPE      H16R            6.0110659631      -28.9219882417        2.7297520545  MEMB      52              0.0000000000
      6561        52  QMPE      H16S            6.5579167049      -27.9144228408        1.3439960971  MEMB      52              0.0000000000
      6562        52  QMPE      H16T            6.0560564718      -29.5256001813        1.0229610786  MEMB      52              0.0000000000
      6563        52  QMPE      C33             4.3442716091      -33.6168482319        9.1955585812  MEMB      52              0.0000000000
      6564        52  QMPE      H3X             3.7532415700      -32.8159197677        9.6890339061  MEMB      52              0.0000000000
      6565        52  QMPE      H3Y             3.7933186734      -34.5563395004        9.4149391059  MEMB      52              0.0000000000
      6566        52  QMPE      C34             4.3255697195      -33.3506443920        7.6419717830  MEMB      52              0.0000000000
      6567        52  QMPE      H4X             4.6948572912      -32.3239851735        7.4324033455  MEMB      52              0.0000000000
      6568        52  QMPE      H4Y             3.2752096317      -33.3548882433        7.2799684894  MEMB      52              0.0000000000
      6569        52  QMPE      C35             5.0812076933      -34.3902219636        6.7598444465  MEMB      52              0.0000000000
      6570        52  QMPE      H5X             4.7587526065      -35.3567677548        7.2027139275  MEMB      52              0.0000000000
      6571        52  QMPE      H5Y             6.1681966271      -34.2428834918        6.9361041096  MEMB      52              0.0000000000
      6572        52  QMPE      C36             4.7588967930      -34.4970694128        5.2800568533  MEMB      52              0.0000000000
      6573        52  QMPE      H6X             3.7603042666      -34.9418469308        5.0817966890  MEMB      52              0.0000000000
      6574        52  QMPE      H6Y             5.4868806282      -35.1687571045        4.7768707983  MEMB      52              0.0000000000
      6575        52  QMPE      C37             4.9408555885      -33.1455483051        4.5105009252  MEMB      52              0.0000000000
      6576        52  QMPE      H7X             3.8855582823      -32.8213339514        4.6352143925  MEMB      52              0.0000000000
      6577        52  QMPE      H7Y             5.6537111510      -32.5073012520        5.0751229316  MEMB      52              0.0000000000
      6578        52  QMPE      C38             5.3087399194      -33.1217829863        3.0490730603  MEMB      52              0.0000000000
      6579        52  QMPE      H8X             5.3063023300      -32.0432128315        2.7826109221  MEMB      52              0.0000000000
      6580        52  QMPE      H8Y             6.3480853260      -33.4722289004        2.8722399064  MEMB      52              0.0000000000
      6581        52  QMPE      C39             4.2875228688      -33.7804042786        2.0921013494  MEMB      52              0.0000000000
      6582        52  QMPE      H9X             3.3103824058      -33.2919865241        2.2944994357  MEMB      52              0.0000000000
      6583        52  QMPE      H9Y             4.0583880470      -34.8413461404        2.3292075484  MEMB      52              0.0000000000
      6584        52  QMPE      C310            4.7054080779      -33.7499731477        0.6175450308  MEMB      52              0.0000000000
      6585        52  QMPE      H10X            3.8820756251      -34.2622251534        0.0752880906  MEMB      52              0.0000000000
      6586        52  QMPE      H10Y            5.6055867742      -34.3818020954        0.4600924210  MEMB      52              0.0000000000
      6587        52  QMPE      C311            4.9296107154      -32.3926978909        0.0122585688  MEMB      52              0.0000000000
      6588        52  QMPE      H11X            5.8421149535      -32.0431496429        0.5409115838  MEMB      52              0.0000000000
      6589        52  QMPE      H11Y            4.1218637878      -31.6500580408        0.1864781930  MEMB      52              0.0000000000
      6590        52  QMPE      C312            5.1924300059      -32.3459537675       -1.5121129060  MEMB      52              0.0000000000
      6591        52  QMPE      H12X            4.7371451961      -33.2829816769       -1.8981372645  MEMB      52              0.0000000000
      6592        52  QMPE      H12Y            6.2617855887      -32.5388201494       -1.7436332973  MEMB      52              0.0000000000
      6593        52  QMPE      C313            4.5759033878      -31.1867372464       -2.3746645380  MEMB      52              0.0000000000
      6594        52  QMPE      H13X            4.6296291429      -31.5953996896       -3.4063774767  MEMB      52              0.0000000000
      6595        52  QMPE      H13Y            3.4821695706      -31.0668549803       -2.2207316003  MEMB      52              0.0000000000
      6596        52  QMPE      C314            5.1940429598      -29.7795538602       -2.2988858235  MEMB      52              0.0000000000
      6597        52  QMPE      H14X            4.8196271190      -29.2646102945       -1.3884100950  MEMB      52              0.0000000000
      6598        52  QMPE      H14Y            4.7476371388      -29.1092671955       -3.0642334203  MEMB      52              0.0000000000
      6599        52  QMPE      C315            6.6784110368      -29.7286332772       -2.2445334027  MEMB      52              0.0000000000
      6600        52  QMPE      H15X            6.9603197401      -30.1962650828       -1.2769741775  MEMB      52              0.0000000000
      6601        52  QMPE      H15Y            7.0351045111      -30.3501909071       -3.0935079775  MEMB      52              0.0000000000
      6602        52  QMPE      H15Z            7.0145560699      -28.6726397669       -2.3233061524  MEMB      52              0.0000000000
      6603        53  POPE      N              -9.7584950086      -29.8203341869       20.2052936990  MEMB      53              0.0000000000
      6604        53  POPE      HN1            -9.4221995899      -30.1197968824       19.2678357553  MEMB      53              0.0000000000
      6605        53  POPE      HN2            -9.2848125544      -28.8995372483       20.3020301660  MEMB      53              0.0000000000
      6606        53  POPE      HN3            -9.4052728932      -30.4762597428       20.9309628004  MEMB      53              0.0000000000
      6607        53  POPE      C12           -11.1740104230      -29.5639192938       20.2321095003  MEMB      53              0.0000000000
      6608        53  POPE      H12A          -11.5547847364      -29.1322007241       19.2818721375  MEMB      53              0.0000000000
      6609        53  POPE      H12B          -11.3311969926      -28.7580380855       20.9805539538  MEMB      53              0.0000000000
      6610        53  POPE      C11           -12.0317864204      -30.8424699777       20.5270438697  MEMB      53              0.0000000000
      6611        53  POPE      H11A          -13.1059767277      -30.6323447598       20.3365607514  MEMB      53              0.0000000000
      6612        53  POPE      H11B          -12.0367809910      -31.1299222598       21.6002014015  MEMB      53              0.0000000000
      6613        53  POPE      P             -11.8683599256      -32.0523186705       18.1447948364  MEMB      53              0.0000000000
      6614        53  POPE      O13           -12.0762602691      -33.4483443975       17.7511119753  MEMB      53              0.0000000000
      6615        53  POPE      O14           -10.7086213320      -31.3519475256       17.5058441181  MEMB      53              0.0000000000
      6616        53  POPE      O11           -13.2444839550      -31.2991288511       17.9023495944  MEMB      53              0.0000000000
      6617        53  POPE      O12           -11.7010746351      -31.9618186812       19.7314524041  MEMB      53              0.0000000000
      6618        53  POPE      C1            -14.3284029204      -31.7664482746       17.1510131318  MEMB      53              0.0000000000
      6619        53  POPE      HA            -15.2265121654      -31.2665775564       17.5727357347  MEMB      53              0.0000000000
      6620        53  POPE      HB            -14.4926876549      -32.8650641636       17.1703745468  MEMB      53              0.0000000000
      6621        53  POPE      C2            -14.1171835016      -31.2204211908       15.7473941654  MEMB      53              0.0000000000
      6622        53  POPE      HS            -13.0719790768      -31.3811980782       15.4067777742  MEMB      53              0.0000000000
      6623        53  POPE      O21           -14.3691964792      -29.7458505910       15.7778057264  MEMB      53              0.0000000000
      6624        53  POPE      C21           -13.6106363766      -29.0069278006       14.9901957447  MEMB      53              0.0000000000
      6625        53  POPE      O22           -12.7717098317      -29.4072552397       14.1808314252  MEMB      53              0.0000000000
      6626        53  POPE      C22           -14.0964369726      -27.5431693706       15.1442230975  MEMB      53              0.0000000000
      6627        53  POPE      H2R           -13.7738828634      -27.2467621426       16.1652141250  MEMB      53              0.0000000000
      6628        53  POPE      H2S           -15.2041450774      -27.5632191951       15.0611469449  MEMB      53              0.0000000000
      6629        53  POPE      C3            -15.0562499828      -32.0177614738       14.7682661506  MEMB      53              0.0000000000
      6630        53  POPE      HX            -16.0930183353      -31.9462467314       15.1610995403  MEMB      53              0.0000000000
      6631        53  POPE      HY            -14.5330920802      -32.9907633096       14.8861402261  MEMB      53              0.0000000000
      6632        53  POPE      O31           -15.0143330999      -31.3398071034       13.5326721241  MEMB      53              0.0000000000
      6633        53  POPE      C31           -14.5414659663      -32.1145692583       12.5713122196  MEMB      53              0.0000000000
      6634        53  POPE      O32           -14.1599520635      -33.2586980154       12.6943102427  MEMB      53              0.0000000000
      6635        53  POPE      C32           -14.6108003333      -31.3389191801       11.2864633075  MEMB      53              0.0000000000
      6636        53  POPE      H2X           -14.2725416884      -31.9113901228       10.3964183855  MEMB      53              0.0000000000
      6637        53  POPE      H2Y           -14.0547084754      -30.4021722904       11.5046099787  MEMB      53              0.0000000000
      6638        53  POPE      C23           -13.3597799481      -26.7955745110       14.0610384830  MEMB      53              0.0000000000
      6639        53  POPE      H3R           -12.2583162984      -26.9387089641       14.0363166378  MEMB      53              0.0000000000
      6640        53  POPE      H3S           -13.3299174975      -25.7507998698       14.4377017492  MEMB      53              0.0000000000
      6641        53  POPE      C24           -14.0693088346      -26.9214425303       12.6634541816  MEMB      53              0.0000000000
      6642        53  POPE      H4R           -15.1363949276      -26.6579664894       12.8254070309  MEMB      53              0.0000000000
      6643        53  POPE      H4S           -14.0604538425      -28.0137017942       12.4604462414  MEMB      53              0.0000000000
      6644        53  POPE      C25           -13.3113510392      -26.1596403221       11.5320824224  MEMB      53              0.0000000000
      6645        53  POPE      H5R           -12.9047146147      -25.2182985331       11.9596844655  MEMB      53              0.0000000000
      6646        53  POPE      H5S           -14.0561088370      -25.8810967251       10.7561509196  MEMB      53              0.0000000000
      6647        53  POPE      C26           -11.9559218212      -26.8788364735       11.1950511811  MEMB      53              0.0000000000
      6648        53  POPE      H6R           -11.4215519189      -27.1302402617       12.1360960117  MEMB      53              0.0000000000
      6649        53  POPE      H6S           -11.2975763936      -26.2798114375       10.5301662533  MEMB      53              0.0000000000
      6650        53  POPE      C27           -12.1121329246      -28.2515025958       10.5664193935  MEMB      53              0.0000000000
      6651        53  POPE      H7R           -12.8870998798      -28.1280874878        9.7799605488  MEMB      53              0.0000000000
      6652        53  POPE      H7S           -12.5096970728      -28.9246079794       11.3558447345  MEMB      53              0.0000000000
      6653        53  POPE      C28           -10.7479750322      -28.8012366018       10.0857170834  MEMB      53              0.0000000000
      6654        53  POPE      H8R           -10.1332580574      -28.9202075843       11.0034804064  MEMB      53              0.0000000000
      6655        53  POPE      H8S           -10.2662141917      -28.0056147906        9.4780882685  MEMB      53              0.0000000000
      6656        53  POPE      C29           -11.0837351927      -30.0755252953        9.3198018624  MEMB      53              0.0000000000
      6657        53  POPE      H91           -11.3189399220      -30.9674272179        9.9191265326  MEMB      53              0.0000000000
      6658        53  POPE      C210          -11.0911523226      -30.2708506982        7.9928038786  MEMB      53              0.0000000000
      6659        53  POPE      H101          -11.3838653293      -31.2576569168        7.6048184613  MEMB      53              0.0000000000
      6660        53  POPE      C211          -10.7767267966      -29.1729205427        6.9977193130  MEMB      53              0.0000000000
      6661        53  POPE      H11R           -9.9806936803      -29.6124877401        6.3594145187  MEMB      53              0.0000000000
      6662        53  POPE      H11S          -10.2905651726      -28.2999777859        7.4834555552  MEMB      53              0.0000000000
      6663        53  POPE      C212          -12.0430639545      -28.7989632754        6.1270750855  MEMB      53              0.0000000000
      6664        53  POPE      H12R          -11.8091060818      -27.9843025506        5.4088052611  MEMB      53              0.0000000000
      6665        53  POPE      H12S          -12.8875884839      -28.6097836113        6.8237176534  MEMB      53              0.0000000000
      6666        53  POPE      C213          -12.4916695322      -29.9604205467        5.2932035780  MEMB      53              0.0000000000
      6667        53  POPE      H13R          -13.4204516124      -29.6881702930        4.7477083111  MEMB      53              0.0000000000
      6668        53  POPE      H13S          -12.7991844561      -30.7643792309        5.9956319812  MEMB      53              0.0000000000
      6669        53  POPE      C214          -11.5663637917      -30.4250994117        4.0869318172  MEMB      53              0.0000000000
      6670        53  POPE      H14R          -10.5202372341      -30.6675863753        4.3717831791  MEMB      53              0.0000000000
      6671        53  POPE      H14S          -11.5665211054      -29.5082706634        3.4594399302  MEMB      53              0.0000000000
      6672        53  POPE      C215          -12.0820343657      -31.6311769319        3.2509965704  MEMB      53              0.0000000000
      6673        53  POPE      H15R          -12.2134032245      -32.5474460857        3.8654191050  MEMB      53              0.0000000000
      6674        53  POPE      H15S          -11.4288341487      -31.9565735009        2.4132806990  MEMB      53              0.0000000000
      6675        53  POPE      C216          -13.3989542289      -31.3130899606        2.6365572133  MEMB      53              0.0000000000
      6676        53  POPE      H16R          -14.2563534585      -30.9823961603        3.2609205503  MEMB      53              0.0000000000
      6677        53  POPE      H16S          -13.8145305695      -32.2032720658        2.1177197219  MEMB      53              0.0000000000
      6678        53  POPE      C217          -13.3137493192      -30.3036141244        1.4961744824  MEMB      53              0.0000000000
      6679        53  POPE      H17R          -12.5397813442      -30.4575106948        0.7141182327  MEMB      53              0.0000000000
      6680        53  POPE      H17S          -13.1971200395      -29.2886069624        1.9326121493  MEMB      53              0.0000000000
      6681        53  POPE      C218          -14.6629474892      -30.0897470418        0.6685224724  MEMB      53              0.0000000000
      6682        53  POPE      H18R          -15.5185695260      -30.0713146411        1.3769662457  MEMB      53              0.0000000000
      6683        53  POPE      H18S          -14.8426462540      -30.8687394473       -0.1029703970  MEMB      53              0.0000000000
      6684        53  POPE      H18T          -14.6307142072      -29.1778821989        0.0346566312  MEMB      53              0.0000000000
      6685        53  POPE      C33           -16.0876244221      -31.0220732128       11.0217478272  MEMB      53              0.0000000000
      6686        53  POPE      H3X           -16.4570766726      -30.2491782506       11.7291797330  MEMB      53              0.0000000000
      6687        53  POPE      H3Y           -16.6545519801      -31.9701026256       10.9027764500  MEMB      53              0.0000000000
      6688        53  POPE      C34           -16.2761687365      -30.5236572244        9.5495741292  MEMB      53              0.0000000000
      6689        53  POPE      H4X           -17.2075032189      -30.7936899286        9.0073394125  MEMB      53              0.0000000000
      6690        53  POPE      H4Y           -15.5523483096      -31.0747959740        8.9118820081  MEMB      53              0.0000000000
      6691        53  POPE      C35           -16.0328369886      -29.0187137918        9.4770532132  MEMB      53              0.0000000000
      6692        53  POPE      H5X           -15.0396065249      -28.7617809821        9.9034328319  MEMB      53              0.0000000000
      6693        53  POPE      H5Y           -16.7723106404      -28.4920334460       10.1174495744  MEMB      53              0.0000000000
      6694        53  POPE      C36           -16.1368281851      -28.3766233144        8.0356450954  MEMB      53              0.0000000000
      6695        53  POPE      H6X           -17.1398297962      -28.6353940134        7.6339646069  MEMB      53              0.0000000000
      6696        53  POPE      H6Y           -15.4261496976      -28.7954272836        7.2914270682  MEMB      53              0.0000000000
      6697        53  POPE      C37           -15.9015508219      -26.8650083162        8.2037502921  MEMB      53              0.0000000000
      6698        53  POPE      H7X           -14.9371312534      -26.7530157322        8.7438185151  MEMB      53              0.0000000000
      6699        53  POPE      H7Y           -16.6909743006      -26.3238853092        8.7679469208  MEMB      53              0.0000000000
      6700        53  POPE      C38           -15.6568105360      -26.2107014858        6.9141047152  MEMB      53              0.0000000000
      6701        53  POPE      H8X           -14.7574923407      -26.5807554152        6.3768817703  MEMB      53              0.0000000000
      6702        53  POPE      H8Y           -15.2293594628      -25.1920417439        7.0321684172  MEMB      53              0.0000000000
      6703        53  POPE      C39           -16.8816652648      -26.1438957676        6.0393381667  MEMB      53              0.0000000000
      6704        53  POPE      H9X           -17.7040513803      -25.6263069740        6.5779514779  MEMB      53              0.0000000000
      6705        53  POPE      H9Y           -17.1876729874      -27.1870639972        5.8102528502  MEMB      53              0.0000000000
      6706        53  POPE      C310          -16.6636161549      -25.2561937524        4.7734985928  MEMB      53              0.0000000000
      6707        53  POPE      H10X          -16.2192835559      -24.3117478064        5.1541703217  MEMB      53              0.0000000000
      6708        53  POPE      H10Y          -17.6024515635      -25.0182014847        4.2291919462  MEMB      53              0.0000000000
      6709        53  POPE      C311          -15.6979203381      -25.9812251662        3.7258131918  MEMB      53              0.0000000000
      6710        53  POPE      H11X          -14.7364969927      -26.1236158800        4.2640610291  MEMB      53              0.0000000000
      6711        53  POPE      H11Y          -15.5788215042      -25.3058531628        2.8517374713  MEMB      53              0.0000000000
      6712        53  POPE      C312          -16.2622796716      -27.4239193108        3.2913114041  MEMB      53              0.0000000000
      6713        53  POPE      H12X          -16.0087043213      -28.1782384128        4.0665689187  MEMB      53              0.0000000000
      6714        53  POPE      H12Y          -15.5823009717      -27.6989769171        2.4568701692  MEMB      53              0.0000000000
      6715        53  POPE      C313          -17.6322295878      -27.3522221611        2.7928112756  MEMB      53              0.0000000000
      6716        53  POPE      H13X          -17.6548384852      -26.5469388094        2.0277424461  MEMB      53              0.0000000000
      6717        53  POPE      H13Y          -18.3111790562      -27.0961837618        3.6341144708  MEMB      53              0.0000000000
      6718        53  POPE      C314          -18.1914501686      -28.5794013933        2.0842496984  MEMB      53              0.0000000000
      6719        53  POPE      H14X          -17.7111172739      -28.6514591448        1.0850462424  MEMB      53              0.0000000000
      6720        53  POPE      H14Y          -19.2519894740      -28.3077372433        1.8951032262  MEMB      53              0.0000000000
      6721        53  POPE      C315          -18.0133153950      -29.9283516751        2.7764625362  MEMB      53              0.0000000000
      6722        53  POPE      H15X          -17.0875094848      -29.9265213470        3.3906283136  MEMB      53              0.0000000000
      6723        53  POPE      H15Y          -17.8046469797      -30.6320716372        1.9424607455  MEMB      53              0.0000000000
      6724        53  POPE      C316          -19.2663042478      -30.4623624253        3.4570086777  MEMB      53              0.0000000000
      6725        53  POPE      H16X          -20.0766156865      -30.5576915477        2.7029340350  MEMB      53              0.0000000000
      6726        53  POPE      H16Y          -19.5948958887      -29.7961229331        4.2831281929  MEMB      53              0.0000000000
      6727        53  POPE      H16Z          -19.2376494010      -31.4920470629        3.8732412260  MEMB      53              0.0000000000
      6728        54  QMPE      N             -13.5483387384       30.0930224215       18.0192745347  MEMB      54              0.0000000000
      6729        54  QMPE      HN1           -12.6272286868       30.4493686571       17.6934317424  MEMB      54              0.0000000000
      6730        54  QMPE      HN2           -14.1852347412       29.8774026102       17.2258821801  MEMB      54              0.0000000000
      6731        54  QMPE      HN3           -13.9631556505       30.7055393949       18.7502668353  MEMB      54              0.0000000000
      6732        54  QMPE      C12           -13.3850401908       28.8260431616       18.8112565465  MEMB      54              0.0000000000
      6733        54  QMPE      H12A          -12.9399014340       29.2644338234       19.7299437378  MEMB      54              0.0000000000
      6734        54  QMPE      H12B          -12.6572180148       28.1119846907       18.3699898454  MEMB      54              0.0000000000
      6735        54  QMPE      C11           -14.7846300523       28.2053602062       19.0891483983  MEMB      54              0.0000000000
      6736        54  QMPE      H11A          -14.6920093285       27.2177671503       19.5895505112  MEMB      54              0.0000000000
      6737        54  QMPE      H11B          -15.2768608280       27.9470961417       18.1272079720  MEMB      54              0.0000000000
      6738        54  QMPE      P             -16.7604654184       29.7812765585       19.2544604814  MEMB      54              0.0000000000
      6739        54  QMPE      O13           -16.8389045913       31.1126698892       19.8792540919  MEMB      54              0.0000000000
      6740        54  QMPE      O14           -18.0144001249       28.9887734454       19.2932263757  MEMB      54              0.0000000000
      6741        54  QMPE      O11           -16.3085390487       29.9517825479       17.7927170468  MEMB      54              0.0000000000
      6742        54  QMPE      O12           -15.5410042376       29.0445765726       19.8606625256  MEMB      54              0.0000000000
      6743        54  QMPE      C1            -17.1440887672       30.2232758146       16.6681715264  MEMB      54              0.0000000000
      6744        54  QMPE      HA            -16.5532077532       30.7761423445       15.9069098930  MEMB      54              0.0000000000
      6745        54  QMPE      HB            -17.9862094455       30.8825159877       16.9690969687  MEMB      54              0.0000000000
      6746        54  QMPE      C2            -17.6998608367       28.9257157793       16.1237976404  MEMB      54              0.0000000000
      6747        54  QMPE      HS            -18.4942911924       28.4921767995       16.7681931267  MEMB      54              0.0000000000
      6748        54  QMPE      O21           -16.6596958266       27.9614776613       15.8870084271  MEMB      54              0.0000000000
      6749        54  QMPE      C21           -17.0334123852       26.7200370371       15.7098007643  MEMB      54              0.0000000000
      6750        54  QMPE      O22           -18.1647925583       26.2937136072       15.5504668168  MEMB      54              0.0000000000
      6751        54  QMPE      C22           -15.8280806970       25.7927929120       15.6962973231  MEMB      54              0.0000000000
      6752        54  QMPE      H2R           -16.1473289456       24.9052012655       16.2833087206  MEMB      54              0.0000000000
      6753        54  QMPE      H2S           -14.9495639604       26.3360995897       16.1053782119  MEMB      54              0.0000000000
      6754        54  QMPE      C3            -18.4607748099       29.2448101344       14.7797301408  MEMB      54              0.0000000000
      6755        54  QMPE      HX            -19.1990394294       30.0607947091       14.9328813949  MEMB      54              0.0000000000
      6756        54  QMPE      HY            -18.9870436734       28.3149091703       14.4753512312  MEMB      54              0.0000000000
      6757        54  QMPE      O31           -17.5267071234       29.5423334081       13.7491904027  MEMB      54              0.0000000000
      6758        54  QMPE      C31           -17.8972445211       29.0324867763       12.5140751663  MEMB      54              0.0000000000
      6759        54  QMPE      O32           -18.8358323522       28.3423526669       12.2304483320  MEMB      54              0.0000000000
      6760        54  QMPE      C32           -16.8214300898       29.5029164167       11.5434396087  MEMB      54              0.0000000000
      6761        54  QMPE      H2X           -16.0543936350       30.0468491753       12.1351428195  MEMB      54              0.0000000000
      6762        54  QMPE      H2Y           -16.3491803740       28.5566060202       11.2031483657  MEMB      54              0.0000000000
      6763        54  QMPE      C23           -15.6544744410       25.2779884457       14.2914246774  MEMB      54              0.0000000000
      6764        54  QMPE      H3R           -16.6336480434       24.9236722772       13.9041261001  MEMB      54              0.0000000000
      6765        54  QMPE      H3S           -14.8069553929       24.5622315636       14.2303951725  MEMB      54              0.0000000000
      6766        54  QMPE      C24           -15.1478359093       26.4253173399       13.3427945513  MEMB      54              0.0000000000
      6767        54  QMPE      H4R           -14.4278757008       26.9961403501       13.9674062114  MEMB      54              0.0000000000
      6768        54  QMPE      H4S           -16.0670872644       26.9897182002       13.0768063282  MEMB      54              0.0000000000
      6769        54  QMPE      C25           -14.6749892626       25.9228220742       11.9828754317  MEMB      54              0.0000000000
      6770        54  QMPE      H5R           -13.7711067641       25.3159300459       12.2042331125  MEMB      54              0.0000000000
      6771        54  QMPE      H5S           -14.3859038386       26.8087131757       11.3779393736  MEMB      54              0.0000000000
      6772        54  QMPE      C26           -15.5847469099       24.8357932453       11.2392905788  MEMB      54              0.0000000000
      6773        54  QMPE      H6R           -16.5471468344       25.2128126499       10.8319041419  MEMB      54              0.0000000000
      6774        54  QMPE      H6S           -15.8087217649       23.9500390136       11.8714260255  MEMB      54              0.0000000000
      6775        54  QMPE      C27           -14.8495308150       24.2949874583        9.9873183387  MEMB      54              0.0000000000
      6776        54  QMPE      H7R           -15.3934529797       23.3995640222        9.6176076045  MEMB      54              0.0000000000
      6777        54  QMPE      H7S           -13.8144863993       23.9655524306       10.2207203181  MEMB      54              0.0000000000
      6778        54  QMPE      C28           -14.8975356384       25.3294541957        8.8800327591  MEMB      54              0.0000000000
      6779        54  QMPE      H8R           -14.8458480172       26.3361568443        9.3471498407  MEMB      54              0.0000000000
      6780        54  QMPE      H8S           -15.9170668267       25.2389828560        8.4479533758  MEMB      54              0.0000000000
      6781        54  QMPE      C29           -13.7368102447       25.2160642505        7.8827776582  MEMB      54              0.0000000000
      6782        54  QMPE      H9R           -12.6961153252       25.1501397387        8.2660908518  MEMB      54              0.0000000000
      6783        54  QMPE      C217          -13.7922530856       25.9573762702        6.5836384078  MEMB      54              0.0000000000
      6784        54  QMPE      H17R          -14.7212605929       26.5128758848        6.6190560146  MEMB      54              0.0000000000
      6785        54  QMPE      H17S          -12.8255814291       26.3833148516        6.3448682230  MEMB      54              0.0000000000
      6786        54  QMPE      C210          -13.8506270212       24.4557967517        6.7074086311  MEMB      54              0.0000000000
      6787        54  QMPE      H10R          -12.9799061998       23.8624167905        6.3551774622  MEMB      54              0.0000000000
      6788        54  QMPE      C211          -15.2522977453       23.9460951526        6.3644490288  MEMB      54              0.0000000000
      6789        54  QMPE      H11R          -15.5930182497       23.3894027651        7.2635182086  MEMB      54              0.0000000000
      6790        54  QMPE      H11S          -15.9945305681       24.7654229569        6.2543888625  MEMB      54              0.0000000000
      6791        54  QMPE      C212          -15.3251871140       22.8368905809        5.3521669002  MEMB      54              0.0000000000
      6792        54  QMPE      H12R          -16.3553401494       22.4452482637        5.2117297397  MEMB      54              0.0000000000
      6793        54  QMPE      H12S          -14.6014298277       22.0336837257        5.6078131235  MEMB      54              0.0000000000
      6794        54  QMPE      C213          -14.7296164249       23.1684154334        3.9800246564  MEMB      54              0.0000000000
      6795        54  QMPE      H13R          -14.8509505881       22.2573794696        3.3558356197  MEMB      54              0.0000000000
      6796        54  QMPE      H13S          -13.6468208036       23.4017440348        3.8938141243  MEMB      54              0.0000000000
      6797        54  QMPE      C214          -15.7045668032       24.1672968790        3.2224154931  MEMB      54              0.0000000000
      6798        54  QMPE      H14R          -15.9376167610       25.0505917866        3.8547102749  MEMB      54              0.0000000000
      6799        54  QMPE      H14S          -16.6900580120       23.6745769657        3.0797405037  MEMB      54              0.0000000000
      6800        54  QMPE      C215          -15.1751187466       24.6387976899        1.9302040523  MEMB      54              0.0000000000
      6801        54  QMPE      H15R          -14.9355820559       23.7270426216        1.3422871576  MEMB      54              0.0000000000
      6802        54  QMPE      H15S          -14.2342196929       25.2105893921        2.0788097786  MEMB      54              0.0000000000
      6803        54  QMPE      C216          -16.1007153262       25.5106865616        1.2342349905  MEMB      54              0.0000000000
      6804        54  QMPE      H16R          -16.3449589148       26.4775593349        1.7239523251  MEMB      54              0.0000000000
      6805        54  QMPE      H16S          -17.0256094229       24.9753465042        0.9304200125  MEMB      54              0.0000000000
      6806        54  QMPE      H16T          -15.5765041255       25.8065828541        0.3004424144  MEMB      54              0.0000000000
      6807        54  QMPE      C33           -17.4242213169       30.3886974756       10.4921019871  MEMB      54              0.0000000000
      6808        54  QMPE      H3X           -16.5198409950       30.9552318223       10.1831420791  MEMB      54              0.0000000000
      6809        54  QMPE      H3Y           -18.1928013563       31.1539349727       10.7329687146  MEMB      54              0.0000000000
      6810        54  QMPE      C34           -18.0130019055       29.6435154265        9.2500990566  MEMB      54              0.0000000000
      6811        54  QMPE      H4X           -18.9398600615       29.1060941847        9.5440938570  MEMB      54              0.0000000000
      6812        54  QMPE      H4Y           -17.2329257538       28.8821420995        9.0353594002  MEMB      54              0.0000000000
      6813        54  QMPE      C35           -18.0709855826       30.4900592289        7.9347181054  MEMB      54              0.0000000000
      6814        54  QMPE      H5X           -17.2648747234       31.2515630337        7.8667630122  MEMB      54              0.0000000000
      6815        54  QMPE      H5Y           -19.0639053241       30.9853924931        7.8792537230  MEMB      54              0.0000000000
      6816        54  QMPE      C36           -17.9873164764       29.5022495915        6.6763030384  MEMB      54              0.0000000000
      6817        54  QMPE      H6X           -18.5922739272       28.5830434726        6.8292985164  MEMB      54              0.0000000000
      6818        54  QMPE      H6Y           -16.9460365568       29.1751030849        6.4688606860  MEMB      54              0.0000000000
      6819        54  QMPE      C37           -18.6021636654       30.1497785672        5.3829933270  MEMB      54              0.0000000000
      6820        54  QMPE      H7X           -18.7232762412       29.3980888540        4.5739106707  MEMB      54              0.0000000000
      6821        54  QMPE      H7Y           -19.5311461950       30.6448005183        5.7383327068  MEMB      54              0.0000000000
      6822        54  QMPE      C38           -17.7638744842       31.3340179881        4.7004542154  MEMB      54              0.0000000000
      6823        54  QMPE      H8X           -18.3203708810       31.7608002991        3.8387759712  MEMB      54              0.0000000000
      6824        54  QMPE      H8Y           -17.5454008075       32.1589640360        5.4118282437  MEMB      54              0.0000000000
      6825        54  QMPE      C39           -16.3232715595       30.9279020352        4.2903864242  MEMB      54              0.0000000000
      6826        54  QMPE      H9X           -16.3896380073       29.8769602319        3.9362152674  MEMB      54              0.0000000000
      6827        54  QMPE      H9Y           -15.8028768489       30.8832806057        5.2709578209  MEMB      54              0.0000000000
      6828        54  QMPE      C310          -15.7181399218       31.8596553680        3.2875852758  MEMB      54              0.0000000000
      6829        54  QMPE      H10X          -15.5557018504       32.8537555304        3.7563062141  MEMB      54              0.0000000000
      6830        54  QMPE      H10Y          -16.4620566499       32.0409210852        2.4825685701  MEMB      54              0.0000000000
      6831        54  QMPE      C311          -14.4404210966       31.3620195394        2.6667260841  MEMB      54              0.0000000000
      6832        54  QMPE      H11X          -13.7090589502       31.2022771639        3.4876484577  MEMB      54              0.0000000000
      6833        54  QMPE      H11Y          -14.0356624385       32.1619060405        2.0104694269  MEMB      54              0.0000000000
      6834        54  QMPE      C312          -14.5895437446       30.0404791917        1.8613160058  MEMB      54              0.0000000000
      6835        54  QMPE      H12X          -15.3844361032       30.0667781427        1.0855738576  MEMB      54              0.0000000000
      6836        54  QMPE      H12Y          -14.8959079985       29.2963968765        2.6273468404  MEMB      54              0.0000000000
      6837        54  QMPE      C313          -13.2029781219       29.5185057774        1.3338532759  MEMB      54              0.0000000000
      6838        54  QMPE      H13X          -12.8953433433       30.0614907073        0.4146950563  MEMB      54              0.0000000000
      6839        54  QMPE      H13Y          -12.5176321299       29.7156035175        2.1857760572  MEMB      54              0.0000000000
      6840        54  QMPE      C314          -13.1609709286       28.0437089557        1.0668897404  MEMB      54              0.0000000000
      6841        54  QMPE      H14X          -13.9114909925       27.9009670935        0.2602518876  MEMB      54              0.0000000000
      6842        54  QMPE      H14Y          -13.5859978698       27.5132352516        1.9456805252  MEMB      54              0.0000000000
      6843        54  QMPE      C315          -11.8134618542       27.3745216490        0.8169109057  MEMB      54              0.0000000000
      6844        54  QMPE      H15X          -11.9728269427       26.2939722602        0.6135940797  MEMB      54              0.0000000000
      6845        54  QMPE      H15Y          -11.4349801144       27.9395583746       -0.0616141163  MEMB      54              0.0000000000
      6846        54  QMPE      H15Z          -11.1196044905       27.4853620356        1.6774910010  MEMB      54              0.0000000000
      6847        55  POPE      N             -28.0865934163      -14.4508887874       18.6224364537  MEMB      55              0.0000000000
      6848        55  POPE      HN1           -27.3830837458      -14.8574883356       19.2715519292  MEMB      55              0.0000000000
      6849        55  POPE      HN2           -27.6525534089      -14.6126332749       17.6912822876  MEMB      55              0.0000000000
      6850        55  POPE      HN3           -28.2370316412      -13.4625885746       18.9091955894  MEMB      55              0.0000000000
      6851        55  POPE      C12           -29.3681877355      -15.1673492867       18.6444925859  MEMB      55              0.0000000000
      6852        55  POPE      H12A          -30.0401587445      -14.6032530353       17.9628978638  MEMB      55              0.0000000000
      6853        55  POPE      H12B          -29.6279365459      -15.1356989781       19.7242379302  MEMB      55              0.0000000000
      6854        55  POPE      C11           -29.1693808556      -16.6448093115       18.1595099065  MEMB      55              0.0000000000
      6855        55  POPE      H11A          -28.7987595734      -16.6100838172       17.1127267570  MEMB      55              0.0000000000
      6856        55  POPE      H11B          -30.1994665722      -17.0543852763       18.2336180624  MEMB      55              0.0000000000
      6857        55  POPE      P             -28.5668682877      -18.9154515342       19.3642039761  MEMB      55              0.0000000000
      6858        55  POPE      O13           -29.7461633406      -19.0191086841       20.2263557624  MEMB      55              0.0000000000
      6859        55  POPE      O14           -27.3130206224      -19.5513256562       19.9337788793  MEMB      55              0.0000000000
      6860        55  POPE      O11           -28.9081613484      -19.6844555227       18.0456744301  MEMB      55              0.0000000000
      6861        55  POPE      O12           -28.2849507597      -17.4020064420       19.0035480063  MEMB      55              0.0000000000
      6862        55  POPE      C1            -27.9297252644      -20.4465355495       17.3346444722  MEMB      55              0.0000000000
      6863        55  POPE      HA            -27.5404716923      -21.3424859770       17.8638664792  MEMB      55              0.0000000000
      6864        55  POPE      HB            -27.0232620369      -19.8274605294       17.1632046354  MEMB      55              0.0000000000
      6865        55  POPE      C2            -28.4246674203      -20.7706865317       15.9153803164  MEMB      55              0.0000000000
      6866        55  POPE      HS            -27.4863481114      -21.0937326260       15.4158611481  MEMB      55              0.0000000000
      6867        55  POPE      O21           -29.0256216459      -19.5803613397       15.3768793413  MEMB      55              0.0000000000
      6868        55  POPE      C21           -28.7161907876      -19.3243043162       14.0898783719  MEMB      55              0.0000000000
      6869        55  POPE      O22           -28.0905664350      -20.1337801910       13.3635155723  MEMB      55              0.0000000000
      6870        55  POPE      C22           -29.2605135138      -18.0218505363       13.6804604280  MEMB      55              0.0000000000
      6871        55  POPE      H2R           -28.4380601942      -17.2972974848       13.4990362407  MEMB      55              0.0000000000
      6872        55  POPE      H2S           -29.9750556871      -17.7241377154       14.4774033028  MEMB      55              0.0000000000
      6873        55  POPE      C3            -29.3907820547      -21.9330276951       15.9698708023  MEMB      55              0.0000000000
      6874        55  POPE      HX            -30.1535642393      -21.5571746364       16.6848665473  MEMB      55              0.0000000000
      6875        55  POPE      HY            -28.9271565866      -22.8175339818       16.4567189392  MEMB      55              0.0000000000
      6876        55  POPE      O31           -29.9209294977      -22.2242163451       14.7112235301  MEMB      55              0.0000000000
      6877        55  POPE      C31           -29.2385532799      -23.0357639997       13.9750820951  MEMB      55              0.0000000000
      6878        55  POPE      O32           -28.2294266444      -23.5866557794       14.2581075352  MEMB      55              0.0000000000
      6879        55  POPE      C32           -29.9663172752      -23.1606467370       12.6052505052  MEMB      55              0.0000000000
      6880        55  POPE      H2X           -31.0730010083      -23.0655246464       12.5823638563  MEMB      55              0.0000000000
      6881        55  POPE      H2Y           -29.7104376639      -24.1305726250       12.1276635870  MEMB      55              0.0000000000
      6882        55  POPE      C23           -30.0161601709      -18.0381777133       12.2862345957  MEMB      55              0.0000000000
      6883        55  POPE      H3R           -29.3123477002      -18.5657349634       11.6075210744  MEMB      55              0.0000000000
      6884        55  POPE      H3S           -30.2472932363      -16.9835781195       12.0240924348  MEMB      55              0.0000000000
      6885        55  POPE      C24           -31.3720423044      -18.8409138298       12.4239058135  MEMB      55              0.0000000000
      6886        55  POPE      H4R           -31.8694558816      -18.1858564966       13.1707666460  MEMB      55              0.0000000000
      6887        55  POPE      H4S           -31.1521188207      -19.8507622426       12.8315343022  MEMB      55              0.0000000000
      6888        55  POPE      C25           -32.1453322890      -19.0580599585       11.0899425849  MEMB      55              0.0000000000
      6889        55  POPE      H5R           -32.7082271417      -20.0086496265       11.2076260179  MEMB      55              0.0000000000
      6890        55  POPE      H5S           -31.4168321616      -19.2344472035       10.2698839889  MEMB      55              0.0000000000
      6891        55  POPE      C26           -33.1898555626      -17.9692619343       10.6884889309  MEMB      55              0.0000000000
      6892        55  POPE      H6R           -32.7604634067      -17.0474122981       10.2411225308  MEMB      55              0.0000000000
      6893        55  POPE      H6S           -33.7009613268      -17.6987818939       11.6371362156  MEMB      55              0.0000000000
      6894        55  POPE      C27           -34.3500135741      -18.4937528518        9.7281313613  MEMB      55              0.0000000000
      6895        55  POPE      H7R           -35.1647962240      -17.7571380609        9.8950110132  MEMB      55              0.0000000000
      6896        55  POPE      H7S           -34.5958252117      -19.5534260001        9.9539422578  MEMB      55              0.0000000000
      6897        55  POPE      C28           -33.7647474947      -18.6889842723        8.3014130758  MEMB      55              0.0000000000
      6898        55  POPE      H8R           -34.6870106642      -18.9574365975        7.7431258259  MEMB      55              0.0000000000
      6899        55  POPE      H8S           -33.1016480471      -19.5785105586        8.3594041195  MEMB      55              0.0000000000
      6900        55  POPE      C29           -33.1550023173      -17.4440195077        7.7201014282  MEMB      55              0.0000000000
      6901        55  POPE      H91           -33.5319324922      -16.4997263522        8.1399039471  MEMB      55              0.0000000000
      6902        55  POPE      C210          -32.4312829466      -17.4211556378        6.6382136391  MEMB      55              0.0000000000
      6903        55  POPE      H101          -32.2891233088      -16.4225148378        6.1994582843  MEMB      55              0.0000000000
      6904        55  POPE      C211          -32.0810759563      -18.6135003986        5.7670785852  MEMB      55              0.0000000000
      6905        55  POPE      H11R          -32.2753840342      -19.5630704287        6.3101093043  MEMB      55              0.0000000000
      6906        55  POPE      H11S          -30.9714946876      -18.5757837273        5.7255103631  MEMB      55              0.0000000000
      6907        55  POPE      C212          -32.6851786779      -18.6166816728        4.3865772415  MEMB      55              0.0000000000
      6908        55  POPE      H12R          -32.6376593261      -17.6036445476        3.9329051004  MEMB      55              0.0000000000
      6909        55  POPE      H12S          -33.7876746082      -18.7300334238        4.4638754814  MEMB      55              0.0000000000
      6910        55  POPE      C213          -32.0788527515      -19.6593503989        3.4314630804  MEMB      55              0.0000000000
      6911        55  POPE      H13R          -32.4199359547      -20.6488170981        3.8042081769  MEMB      55              0.0000000000
      6912        55  POPE      H13S          -30.9710789395      -19.6989509721        3.3566983301  MEMB      55              0.0000000000
      6913        55  POPE      C214          -32.5140227618      -19.4766130265        2.0131957308  MEMB      55              0.0000000000
      6914        55  POPE      H14R          -32.0559060335      -18.5174249954        1.6900734358  MEMB      55              0.0000000000
      6915        55  POPE      H14S          -33.6138309997      -19.5470703653        1.8725584166  MEMB      55              0.0000000000
      6916        55  POPE      C215          -31.9130946912      -20.4809888164        1.0127295228  MEMB      55              0.0000000000
      6917        55  POPE      H15R          -30.8078112648      -20.3726414186        1.0432167494  MEMB      55              0.0000000000
      6918        55  POPE      H15S          -32.2762741716      -20.2915807866       -0.0200088585  MEMB      55              0.0000000000
      6919        55  POPE      C216          -32.1585000710      -21.9139494940        1.3348265500  MEMB      55              0.0000000000
      6920        55  POPE      H16R          -31.7455840443      -22.2244306501        2.3184038391  MEMB      55              0.0000000000
      6921        55  POPE      H16S          -31.6568681620      -22.6241174103        0.6431998003  MEMB      55              0.0000000000
      6922        55  POPE      C217          -33.6417822124      -22.3195213686        1.1500488306  MEMB      55              0.0000000000
      6923        55  POPE      H17R          -34.0160880860      -22.1195262177        0.1232969635  MEMB      55              0.0000000000
      6924        55  POPE      H17S          -34.3268312281      -21.8128440007        1.8630051311  MEMB      55              0.0000000000
      6925        55  POPE      C218          -34.1269614417      -23.8303546837        1.3296679123  MEMB      55              0.0000000000
      6926        55  POPE      H18R          -33.9984887052      -24.3773508697        0.3712264700  MEMB      55              0.0000000000
      6927        55  POPE      H18S          -35.1668973243      -23.8248936168        1.7205955714  MEMB      55              0.0000000000
      6928        55  POPE      H18T          -33.4487225340      -24.2459638385        2.1052853035  MEMB      55              0.0000000000
      6929        55  POPE      C33           -29.6102182620      -22.0191866366       11.5412021013  MEMB      55              0.0000000000
      6930        55  POPE      H3X           -28.5259919821      -22.0201998700       11.2987701789  MEMB      55              0.0000000000
      6931        55  POPE      H3Y           -29.9677022650      -21.0678453610       11.9900637289  MEMB      55              0.0000000000
      6932        55  POPE      C34           -30.2716713545      -22.1601076005       10.1814983783  MEMB      55              0.0000000000
      6933        55  POPE      H4X           -30.2724307668      -21.1360725415        9.7506009661  MEMB      55              0.0000000000
      6934        55  POPE      H4Y           -31.3493277980      -22.4074774544       10.2900607648  MEMB      55              0.0000000000
      6935        55  POPE      C35           -29.5238722212      -23.0862906819        9.1906491392  MEMB      55              0.0000000000
      6936        55  POPE      H5X           -29.3865773663      -24.1309375518        9.5430466008  MEMB      55              0.0000000000
      6937        55  POPE      H5Y           -28.4906138120      -22.6877950933        9.1017707398  MEMB      55              0.0000000000
      6938        55  POPE      C36           -30.1357055229      -22.9977731341        7.7614979699  MEMB      55              0.0000000000
      6939        55  POPE      H6X           -31.2155904746      -23.2549567401        7.7164838569  MEMB      55              0.0000000000
      6940        55  POPE      H6Y           -29.5314602020      -23.6958381404        7.1435061357  MEMB      55              0.0000000000
      6941        55  POPE      C37           -29.9443365279      -21.5555418211        7.1082689937  MEMB      55              0.0000000000
      6942        55  POPE      H7X           -28.9461778643      -21.1685335909        7.4052954918  MEMB      55              0.0000000000
      6943        55  POPE      H7Y           -30.6381943170      -20.9095358047        7.6875431460  MEMB      55              0.0000000000
      6944        55  POPE      C38           -30.1305485372      -21.4024164311        5.6009586321  MEMB      55              0.0000000000
      6945        55  POPE      H8X           -29.7291519940      -20.4240369659        5.2604065900  MEMB      55              0.0000000000
      6946        55  POPE      H8Y           -31.2171823997      -21.3944083826        5.3696920657  MEMB      55              0.0000000000
      6947        55  POPE      C39           -29.4933163377      -22.5590754476        4.7806108690  MEMB      55              0.0000000000
      6948        55  POPE      H9X           -29.9488660475      -22.5302394594        3.7677121722  MEMB      55              0.0000000000
      6949        55  POPE      H9Y           -29.7757821337      -23.5089454451        5.2828869191  MEMB      55              0.0000000000
      6950        55  POPE      C310          -27.9836500906      -22.3647089372        4.7326558580  MEMB      55              0.0000000000
      6951        55  POPE      H10X          -27.6113552398      -22.6472494046        5.7405693842  MEMB      55              0.0000000000
      6952        55  POPE      H10Y          -27.7792070206      -21.2839524327        4.5761638180  MEMB      55              0.0000000000
      6953        55  POPE      C311          -27.2087811685      -23.2805580034        3.7552326572  MEMB      55              0.0000000000
      6954        55  POPE      H11X          -27.5124339639      -24.3195547902        4.0054358397  MEMB      55              0.0000000000
      6955        55  POPE      H11Y          -26.1172802152      -23.1148284519        3.8796489743  MEMB      55              0.0000000000
      6956        55  POPE      C312          -27.6119672670      -23.0367542118        2.1745480933  MEMB      55              0.0000000000
      6957        55  POPE      H12X          -27.5349379799      -21.9613338398        1.9064835474  MEMB      55              0.0000000000
      6958        55  POPE      H12Y          -28.6948564451      -23.2818698426        2.1346689637  MEMB      55              0.0000000000
      6959        55  POPE      C313          -26.8195830193      -23.8507865410        1.1250921156  MEMB      55              0.0000000000
      6960        55  POPE      H13X          -26.7686922705      -24.9171795796        1.4325607060  MEMB      55              0.0000000000
      6961        55  POPE      H13Y          -25.7647368680      -23.5078405452        1.1884016349  MEMB      55              0.0000000000
      6962        55  POPE      C314          -27.4219346167      -23.8308961861       -0.3035499430  MEMB      55              0.0000000000
      6963        55  POPE      H14X          -26.6847294967      -23.8759381402       -1.1335032882  MEMB      55              0.0000000000
      6964        55  POPE      H14Y          -27.8813460977      -22.8193361519       -0.3063770380  MEMB      55              0.0000000000
      6965        55  POPE      C315          -28.2658948604      -25.0332676644       -0.7445913288  MEMB      55              0.0000000000
      6966        55  POPE      H15X          -29.0678567433      -25.2909268359       -0.0201676667  MEMB      55              0.0000000000
      6967        55  POPE      H15Y          -27.5972302218      -25.9202400851       -0.7666869768  MEMB      55              0.0000000000
      6968        55  POPE      C316          -28.8993180552      -24.8265222668       -2.0959028244  MEMB      55              0.0000000000
      6969        55  POPE      H16X          -28.0842711129      -24.5440338309       -2.7960598916  MEMB      55              0.0000000000
      6970        55  POPE      H16Y          -29.7160146665      -24.0748573815       -2.0476591448  MEMB      55              0.0000000000
      6971        55  POPE      H16Z          -29.3836606355      -25.7678395009       -2.4330309639  MEMB      55              0.0000000000
      6972        56  PMPE      N              31.2889676672      -12.4995829238       17.4317111452  MEMB      56              0.0000000000
      6973        56  PMPE      HN1            31.5018012153      -12.7512812629       16.4453289749  MEMB      56              0.0000000000
      6974        56  PMPE      HN2            32.1840828929      -12.1545469768       17.8333564050  MEMB      56              0.0000000000
      6975        56  PMPE      HN3            30.9822905494      -13.3493999313       17.9468423516  MEMB      56              0.0000000000
      6976        56  PMPE      C12            30.2238691243      -11.4062333788       17.5560439896  MEMB      56              0.0000000000
      6977        56  PMPE      H12A           29.4850653514      -11.8264245779       18.2715362779  MEMB      56              0.0000000000
      6978        56  PMPE      H12B           29.7704643593      -11.3787849510       16.5421446347  MEMB      56              0.0000000000
      6979        56  PMPE      C11            30.7417650052      -10.0695581562       18.0318099422  MEMB      56              0.0000000000
      6980        56  PMPE      H11A           29.9071062946       -9.3370233848       17.9992703730  MEMB      56              0.0000000000
      6981        56  PMPE      H11B           31.5049810205       -9.6409839190       17.3475977434  MEMB      56              0.0000000000
      6982        56  PMPE      P              32.6939428864      -10.1224585612       19.8343246861  MEMB      56              0.0000000000
      6983        56  PMPE      O13            33.3953782658      -11.2844973822       19.2226171155  MEMB      56              0.0000000000
      6984        56  PMPE      O14            32.7608207375       -9.9634725769       21.2724845014  MEMB      56              0.0000000000
      6985        56  PMPE      O11            33.4844936185       -8.8944511467       19.2352253096  MEMB      56              0.0000000000
      6986        56  PMPE      O12            31.1417890920      -10.0787083114       19.4157832993  MEMB      56              0.0000000000
      6987        56  PMPE      C1             33.5495000861       -7.6350937252       20.0290886274  MEMB      56              0.0000000000
      6988        56  PMPE      HA             34.3698232345       -7.7745781089       20.7652510445  MEMB      56              0.0000000000
      6989        56  PMPE      HB             32.6346233135       -7.4442927187       20.6298519321  MEMB      56              0.0000000000
      6990        56  PMPE      C2             33.7702414559       -6.3708086206       19.1043851787  MEMB      56              0.0000000000
      6991        56  PMPE      HS             33.7194795454       -5.5280151179       19.8264952014  MEMB      56              0.0000000000
      6992        56  PMPE      O21            32.8591052292       -6.2709801503       17.9862145532  MEMB      56              0.0000000000
      6993        56  PMPE      C21            31.4949155594       -6.2539344797       18.1970739352  MEMB      56              0.0000000000
      6994        56  PMPE      O22            30.9961836885       -5.8544655337       19.2425719897  MEMB      56              0.0000000000
      6995        56  PMPE      C22            30.7968955018       -6.2343328064       16.7831345585  MEMB      56              0.0000000000
      6996        56  PMPE      H2R            30.4709909322       -5.1989221106       16.5464240035  MEMB      56              0.0000000000
      6997        56  PMPE      H2S            29.8607328146       -6.8319364868       16.7550277682  MEMB      56              0.0000000000
      6998        56  PMPE      C3             35.2060916226       -6.3819924648       18.4629033704  MEMB      56              0.0000000000
      6999        56  PMPE      HX             35.9791817528       -6.2234119548       19.2448912854  MEMB      56              0.0000000000
      7000        56  PMPE      HY             35.2780706560       -5.4846501530       17.8118145522  MEMB      56              0.0000000000
      7001        56  PMPE      O31            35.4627212749       -7.5660984221       17.7142075122  MEMB      56              0.0000000000
      7002        56  PMPE      C31            35.2340673595       -7.5800857909       16.4476829295  MEMB      56              0.0000000000
      7003        56  PMPE      O32            34.9061411040       -6.6402893181       15.7465814193  MEMB      56              0.0000000000
      7004        56  PMPE      C32            35.4810143000       -9.0131591286       15.8734238658  MEMB      56              0.0000000000
      7005        56  PMPE      H2X            35.1555089653       -9.7111082002       16.6741948255  MEMB      56              0.0000000000
      7006        56  PMPE      H2Y            36.5828447286       -9.0372560919       15.7330294690  MEMB      56              0.0000000000
      7007        56  PMPE      C23            31.6564838828       -6.7217813415       15.6124086528  MEMB      56              0.0000000000
      7008        56  PMPE      H3R            32.4499876671       -7.3298884534       16.0970514705  MEMB      56              0.0000000000
      7009        56  PMPE      H3S            32.1752054795       -5.9076568612       15.0624534812  MEMB      56              0.0000000000
      7010        56  PMPE      C24            30.8721231234       -7.5851006658       14.5362846555  MEMB      56              0.0000000000
      7011        56  PMPE      H4R            29.8660511868       -7.1145495544       14.5094137084  MEMB      56              0.0000000000
      7012        56  PMPE      H4S            30.6553724079       -8.6443533449       14.7918696475  MEMB      56              0.0000000000
      7013        56  PMPE      C25            31.6361397852       -7.6317186170       13.1889263798  MEMB      56              0.0000000000
      7014        56  PMPE      H5R            32.0872353188       -8.6409642198       13.0782153638  MEMB      56              0.0000000000
      7015        56  PMPE      H5S            32.3689376530       -6.7966808105       13.1952682146  MEMB      56              0.0000000000
      7016        56  PMPE      C26            30.7573021067       -7.4089063867       11.9288076913  MEMB      56              0.0000000000
      7017        56  PMPE      H6R            30.0044386462       -6.6447259080       12.2178508147  MEMB      56              0.0000000000
      7018        56  PMPE      H6S            30.1151029019       -8.2915983462       11.7220322509  MEMB      56              0.0000000000
      7019        56  PMPE      C27            31.5535473249       -7.2477147146       10.6784518398  MEMB      56              0.0000000000
      7020        56  PMPE      H7R            32.4002843654       -7.9623360464       10.7601432766  MEMB      56              0.0000000000
      7021        56  PMPE      H7S            31.9835478564       -6.2359729529       10.5178300449  MEMB      56              0.0000000000
      7022        56  PMPE      C28            30.7955812094       -7.6935266239        9.3939132352  MEMB      56              0.0000000000
      7023        56  PMPE      H8R            30.6764081099       -8.7981164702        9.3944579595  MEMB      56              0.0000000000
      7024        56  PMPE      H8S            31.4729875168       -7.6054957332        8.5177333971  MEMB      56              0.0000000000
      7025        56  PMPE      C29            29.4453193669       -6.9684147981        9.0377825894  MEMB      56              0.0000000000
      7026        56  PMPE      H9R            29.2995317156       -5.8831826749        9.2257675458  MEMB      56              0.0000000000
      7027        56  PMPE      C217           28.2827823670       -7.9746152566        9.4294904228  MEMB      56              0.0000000000
      7028        56  PMPE      H17R           27.4497402330       -7.4411749914        9.8703656447  MEMB      56              0.0000000000
      7029        56  PMPE      H17S           28.4075162050       -9.0501651660        9.4066219819  MEMB      56              0.0000000000
      7030        56  PMPE      C210           28.5204594011       -7.5266200547        7.9471216291  MEMB      56              0.0000000000
      7031        56  PMPE      H10R           27.7535573292       -6.8070035164        7.5888844218  MEMB      56              0.0000000000
      7032        56  PMPE      C211           28.9863893818       -8.6738824096        7.0097627673  MEMB      56              0.0000000000
      7033        56  PMPE      H11R           28.1183124401       -9.3350800809        6.8010021756  MEMB      56              0.0000000000
      7034        56  PMPE      H11S           29.8320636606       -9.3112036331        7.3458832920  MEMB      56              0.0000000000
      7035        56  PMPE      C212           29.4741498820       -8.1421751194        5.6677913467  MEMB      56              0.0000000000
      7036        56  PMPE      H12R           30.0142402575       -8.9964420725        5.2064331367  MEMB      56              0.0000000000
      7037        56  PMPE      H12S           30.1020429886       -7.2502801950        5.8789649404  MEMB      56              0.0000000000
      7038        56  PMPE      C213           28.4359511559       -7.4769626533        4.7052428035  MEMB      56              0.0000000000
      7039        56  PMPE      H13R           27.8017272726       -6.7462870532        5.2513143351  MEMB      56              0.0000000000
      7040        56  PMPE      H13S           27.7172156879       -8.2781402500        4.4298259111  MEMB      56              0.0000000000
      7041        56  PMPE      C214           29.0567929465       -6.9054163145        3.4426305709  MEMB      56              0.0000000000
      7042        56  PMPE      H14R           29.2891167679       -7.7165172311        2.7198158618  MEMB      56              0.0000000000
      7043        56  PMPE      H14S           30.0779119026       -6.4966850732        3.5993967445  MEMB      56              0.0000000000
      7044        56  PMPE      C215           28.2921129771       -5.8218080963        2.7321165922  MEMB      56              0.0000000000
      7045        56  PMPE      H15R           27.2112111958       -6.0061334855        2.5532402075  MEMB      56              0.0000000000
      7046        56  PMPE      H15S           28.7682771882       -5.8102570854        1.7283957142  MEMB      56              0.0000000000
      7047        56  PMPE      C216           28.6053808804       -4.5364185104        3.4192694569  MEMB      56              0.0000000000
      7048        56  PMPE      H16R           28.4288064204       -4.5396441664        4.5161433572  MEMB      56              0.0000000000
      7049        56  PMPE      H16S           29.6762436358       -4.2744903960        3.2815465338  MEMB      56              0.0000000000
      7050        56  PMPE      H16T           28.1144383424       -3.6547688234        2.9545224743  MEMB      56              0.0000000000
      7051        56  PMPE      C33            34.7647598035       -9.1933138269       14.5822944490  MEMB      56              0.0000000000
      7052        56  PMPE      H3X            35.1991371144       -8.5892376497       13.7572310977  MEMB      56              0.0000000000
      7053        56  PMPE      H3Y            33.6827939091       -8.9453365161       14.6289655457  MEMB      56              0.0000000000
      7054        56  PMPE      C34            34.6398430261      -10.7037257701       14.2343910270  MEMB      56              0.0000000000
      7055        56  PMPE      H4X            34.1110810031      -11.0610703118       15.1438067403  MEMB      56              0.0000000000
      7056        56  PMPE      H4Y            35.6292934649      -11.2090024502       14.2323722635  MEMB      56              0.0000000000
      7057        56  PMPE      C35            33.8877403380      -11.0569835820       12.9680970082  MEMB      56              0.0000000000
      7058        56  PMPE      H5X            34.4109449300      -10.5485335114       12.1302087178  MEMB      56              0.0000000000
      7059        56  PMPE      H5Y            32.8862438168      -10.5771961330       13.0017102689  MEMB      56              0.0000000000
      7060        56  PMPE      C36            33.7207548116      -12.5769345594       12.8480876471  MEMB      56              0.0000000000
      7061        56  PMPE      H6X            32.9722503879      -12.8632079365       13.6175745349  MEMB      56              0.0000000000
      7062        56  PMPE      H6Y            34.6791893439      -13.1248505765       12.9726368256  MEMB      56              0.0000000000
      7063        56  PMPE      C37            33.1085856735      -13.0559813083       11.5007088504  MEMB      56              0.0000000000
      7064        56  PMPE      H7X            33.1020729508      -14.1653923119       11.5597448755  MEMB      56              0.0000000000
      7065        56  PMPE      H7Y            33.8354562638      -12.6855280887       10.7465573484  MEMB      56              0.0000000000
      7066        56  PMPE      C38            31.6725140779      -12.5652192008       11.3200466333  MEMB      56              0.0000000000
      7067        56  PMPE      H8X            31.6458416784      -11.4725988981       11.5195220986  MEMB      56              0.0000000000
      7068        56  PMPE      H8Y            30.9104814285      -12.9407168834       12.0360275901  MEMB      56              0.0000000000
      7069        56  PMPE      C39            31.1043835045      -12.9133525070        9.9370437941  MEMB      56              0.0000000000
      7070        56  PMPE      H9X            29.9973920634      -12.9718486908        9.8630902612  MEMB      56              0.0000000000
      7071        56  PMPE      H9Y            31.3673790387      -13.9855073386        9.8119897661  MEMB      56              0.0000000000
      7072        56  PMPE      C310           31.3515755429      -11.9696760102        8.7058453543  MEMB      56              0.0000000000
      7073        56  PMPE      H10X           30.7649401262      -11.0275915944        8.7573879201  MEMB      56              0.0000000000
      7074        56  PMPE      H10Y           30.8186439510      -12.6641362309        8.0217180297  MEMB      56              0.0000000000
      7075        56  PMPE      C311           32.8031530459      -11.6300984061        8.3977799471  MEMB      56              0.0000000000
      7076        56  PMPE      H11X           33.3810291645      -12.5772335454        8.4553601863  MEMB      56              0.0000000000
      7077        56  PMPE      H11Y           33.1569653397      -10.9761404938        9.2232965230  MEMB      56              0.0000000000
      7078        56  PMPE      C312           32.9990176935      -11.0153992998        6.9746171064  MEMB      56              0.0000000000
      7079        56  PMPE      H12X           34.0161651307      -11.2641407135        6.6033221878  MEMB      56              0.0000000000
      7080        56  PMPE      H12Y           32.8325174694       -9.9180162030        6.9261500006  MEMB      56              0.0000000000
      7081        56  PMPE      C313           32.1366668038      -11.5634603299        5.7750027857  MEMB      56              0.0000000000
      7082        56  PMPE      H13X           31.1007397215      -11.1680239503        5.8443309562  MEMB      56              0.0000000000
      7083        56  PMPE      H13Y           31.9782572609      -12.6605678866        5.7002889391  MEMB      56              0.0000000000
      7084        56  PMPE      C314           32.6559621406      -11.1191041346        4.3873550042  MEMB      56              0.0000000000
      7085        56  PMPE      H14X           33.7550171293      -11.2568758686        4.3012267654  MEMB      56              0.0000000000
      7086        56  PMPE      H14Y           32.5070965293      -10.0380733566        4.1787105473  MEMB      56              0.0000000000
      7087        56  PMPE      C315           31.9152421584      -11.7645219417        3.2273350214  MEMB      56              0.0000000000
      7088        56  PMPE      H15X           31.8120156602      -12.8499220147        3.4408119525  MEMB      56              0.0000000000
      7089        56  PMPE      H15Y           32.6928930566      -11.6200868521        2.4471305599  MEMB      56              0.0000000000
      7090        56  PMPE      C316           30.5635982168      -11.0284620345        2.8347616231  MEMB      56              0.0000000000
      7091        56  PMPE      H16X           30.7220676058       -9.9969343586        2.4537650235  MEMB      56              0.0000000000
      7092        56  PMPE      H16Y           29.9143940359      -11.0952906287        3.7338667324  MEMB      56              0.0000000000
      7093        56  PMPE      H16Z           30.1658195661      -11.5360197588        1.9300635748  MEMB      56              0.0000000000
      7094        57  PMPE      N             -25.1696209570      -25.8492395080       21.0816067449  MEMB      57              0.0000000000
      7095        57  PMPE      HN1           -25.7114821202      -26.7242457712       21.2311078892  MEMB      57              0.0000000000
      7096        57  PMPE      HN2           -24.3867166786      -26.1195630242       20.4526504633  MEMB      57              0.0000000000
      7097        57  PMPE      HN3           -24.7544573384      -25.4458975555       21.9456406305  MEMB      57              0.0000000000
      7098        57  PMPE      C12           -25.8776848446      -24.6918748376       20.4792754054  MEMB      57              0.0000000000
      7099        57  PMPE      H12A          -26.6156500092      -24.3023300005       21.2127489896  MEMB      57              0.0000000000
      7100        57  PMPE      H12B          -26.4126755710      -25.0146056779       19.5606074324  MEMB      57              0.0000000000
      7101        57  PMPE      C11           -24.8351790193      -23.5453382081       20.3071620647  MEMB      57              0.0000000000
      7102        57  PMPE      H11A          -24.5332012924      -23.1331001788       21.2936660419  MEMB      57              0.0000000000
      7103        57  PMPE      H11B          -25.3157343392      -22.6923856392       19.7819387356  MEMB      57              0.0000000000
      7104        57  PMPE      P             -23.6047464574      -23.9007142473       17.9822284209  MEMB      57              0.0000000000
      7105        57  PMPE      O13           -23.2589317637      -22.5932559874       17.3896080793  MEMB      57              0.0000000000
      7106        57  PMPE      O14           -24.8958811332      -24.5735353891       17.5096793842  MEMB      57              0.0000000000
      7107        57  PMPE      O11           -22.5426022609      -25.0345110400       17.6997498701  MEMB      57              0.0000000000
      7108        57  PMPE      O12           -23.6674279631      -23.8851083832       19.5506900155  MEMB      57              0.0000000000
      7109        57  PMPE      C1            -21.6905390773      -25.3189663685       18.8143075047  MEMB      57              0.0000000000
      7110        57  PMPE      HA            -22.2310904486      -25.9698617816       19.5343493790  MEMB      57              0.0000000000
      7111        57  PMPE      HB            -21.4102518848      -24.4012203843       19.3742204457  MEMB      57              0.0000000000
      7112        57  PMPE      C2            -20.5076014169      -26.2318767242       18.3342673474  MEMB      57              0.0000000000
      7113        57  PMPE      HS            -19.6947494491      -26.1632994122       19.0885151828  MEMB      57              0.0000000000
      7114        57  PMPE      O21           -20.0196016645      -25.8682423865       16.9603528444  MEMB      57              0.0000000000
      7115        57  PMPE      C21           -19.6467924855      -24.6210083224       16.8484626730  MEMB      57              0.0000000000
      7116        57  PMPE      O22           -19.2822880015      -23.8946680738       17.8214146587  MEMB      57              0.0000000000
      7117        57  PMPE      C22           -19.5386185912      -24.2650827749       15.3187677525  MEMB      57              0.0000000000
      7118        57  PMPE      H2R           -20.0894290294      -25.0564755845       14.7668380954  MEMB      57              0.0000000000
      7119        57  PMPE      H2S           -18.4920241231      -24.3590219880       14.9580233462  MEMB      57              0.0000000000
      7120        57  PMPE      C3            -20.8040144181      -27.7003069264       18.1524659392  MEMB      57              0.0000000000
      7121        57  PMPE      HX            -21.1815725198      -28.1188220124       19.1098666209  MEMB      57              0.0000000000
      7122        57  PMPE      HY            -19.8868347228      -28.2803146286       17.9143605355  MEMB      57              0.0000000000
      7123        57  PMPE      O31           -21.9011318776      -27.7775740246       17.2350798554  MEMB      57              0.0000000000
      7124        57  PMPE      C31           -21.5474794000      -28.2791275199       16.0755510210  MEMB      57              0.0000000000
      7125        57  PMPE      O32           -20.4991375158      -28.8382530939       15.8175917469  MEMB      57              0.0000000000
      7126        57  PMPE      C32           -22.7537982616      -28.1327641337       15.2127828391  MEMB      57              0.0000000000
      7127        57  PMPE      H2X           -23.1973817004      -27.1212586413       15.3328303068  MEMB      57              0.0000000000
      7128        57  PMPE      H2Y           -23.5092313313      -28.8652786161       15.5692440826  MEMB      57              0.0000000000
      7129        57  PMPE      C23           -20.0630404604      -22.8458653124       15.0290216325  MEMB      57              0.0000000000
      7130        57  PMPE      H3R           -19.1756487290      -22.2548039189       15.3412767682  MEMB      57              0.0000000000
      7131        57  PMPE      H3S           -20.9120775447      -22.5226062646       15.6685220728  MEMB      57              0.0000000000
      7132        57  PMPE      C24           -20.3319007660      -22.4395939573       13.5289687263  MEMB      57              0.0000000000
      7133        57  PMPE      H4R           -20.4970031672      -21.3411200545       13.5085431579  MEMB      57              0.0000000000
      7134        57  PMPE      H4S           -21.2771823228      -22.8738527335       13.1388619007  MEMB      57              0.0000000000
      7135        57  PMPE      C25           -19.1027463794      -22.7038043385       12.6108599899  MEMB      57              0.0000000000
      7136        57  PMPE      H5R           -18.4359617644      -23.4567018269       13.0829450360  MEMB      57              0.0000000000
      7137        57  PMPE      H5S           -18.5853094328      -21.7387250920       12.4232372081  MEMB      57              0.0000000000
      7138        57  PMPE      C26           -19.4466484097      -23.0743127432       11.1356404146  MEMB      57              0.0000000000
      7139        57  PMPE      H6R           -20.1510331146      -23.9270047719       11.0303819438  MEMB      57              0.0000000000
      7140        57  PMPE      H6S           -18.5167809594      -23.3115382381       10.5758267431  MEMB      57              0.0000000000
      7141        57  PMPE      C27           -19.8149199178      -21.8537607101       10.2513619507  MEMB      57              0.0000000000
      7142        57  PMPE      H7R           -19.0755499601      -21.0537619563       10.4696611215  MEMB      57              0.0000000000
      7143        57  PMPE      H7S           -20.7871277615      -21.4637019373       10.6214800017  MEMB      57              0.0000000000
      7144        57  PMPE      C28           -20.0156765333      -22.2216423447        8.7702531538  MEMB      57              0.0000000000
      7145        57  PMPE      H8R           -20.7995227532      -23.0058883407        8.7005082963  MEMB      57              0.0000000000
      7146        57  PMPE      H8S           -19.0788452701      -22.6223458409        8.3274156788  MEMB      57              0.0000000000
      7147        57  PMPE      C29           -20.3639853342      -20.9235349196        7.8982540026  MEMB      57              0.0000000000
      7148        57  PMPE      H9R           -19.6370362098      -20.0836719939        7.9205225673  MEMB      57              0.0000000000
      7149        57  PMPE      C217          -21.8243993509      -20.5250402079        7.9496019379  MEMB      57              0.0000000000
      7150        57  PMPE      H17R          -21.8939698734      -19.4697699435        8.1829549910  MEMB      57              0.0000000000
      7151        57  PMPE      H17S          -22.3828516174      -21.2718303522        8.5003503823  MEMB      57              0.0000000000
      7152        57  PMPE      C210          -21.1635155964      -20.9941948709        6.6517169397  MEMB      57              0.0000000000
      7153        57  PMPE      H10R          -21.0201915874      -20.0959862021        6.0137502078  MEMB      57              0.0000000000
      7154        57  PMPE      C211          -21.8133503697      -22.2290516086        6.0767900552  MEMB      57              0.0000000000
      7155        57  PMPE      H11R          -22.3913126936      -21.7963341498        5.2323753833  MEMB      57              0.0000000000
      7156        57  PMPE      H11S          -22.5538704673      -22.6764557374        6.7737701801  MEMB      57              0.0000000000
      7157        57  PMPE      C212          -20.7183856580      -23.1465158153        5.5233338920  MEMB      57              0.0000000000
      7158        57  PMPE      H12R          -21.2168082128      -23.9800432767        4.9837709916  MEMB      57              0.0000000000
      7159        57  PMPE      H12S          -20.2448728455      -23.6042589565        6.4180838907  MEMB      57              0.0000000000
      7160        57  PMPE      C213          -19.6405859625      -22.5918998819        4.5532069451  MEMB      57              0.0000000000
      7161        57  PMPE      H13R          -18.8631997829      -23.3855486950        4.5638506871  MEMB      57              0.0000000000
      7162        57  PMPE      H13S          -19.2619663853      -21.6728617395        5.0495310124  MEMB      57              0.0000000000
      7163        57  PMPE      C214          -20.2820352126      -22.3643210884        3.1846331705  MEMB      57              0.0000000000
      7164        57  PMPE      H14R          -21.0114242959      -21.5357097038        3.3099954698  MEMB      57              0.0000000000
      7165        57  PMPE      H14S          -20.8411025915      -23.2812504031        2.9000187257  MEMB      57              0.0000000000
      7166        57  PMPE      C215          -19.2022119838      -21.9472613209        2.2170501216  MEMB      57              0.0000000000
      7167        57  PMPE      H15R          -18.3786297143      -21.3907654154        2.7133815796  MEMB      57              0.0000000000
      7168        57  PMPE      H15S          -19.6699467355      -21.2118411782        1.5280636404  MEMB      57              0.0000000000
      7169        57  PMPE      C216          -18.6153100265      -23.1279913678        1.4667214116  MEMB      57              0.0000000000
      7170        57  PMPE      H16R          -17.8247125398      -22.7644997732        0.7759611492  MEMB      57              0.0000000000
      7171        57  PMPE      H16S          -18.1116695421      -23.8556181507        2.1384565334  MEMB      57              0.0000000000
      7172        57  PMPE      H16T          -19.2657471938      -23.6151542168        0.7091440344  MEMB      57              0.0000000000
      7173        57  PMPE      C33           -22.3537411917      -28.5345655248       13.7695819114  MEMB      57              0.0000000000
      7174        57  PMPE      H3X           -23.2608533895      -28.5600101924       13.1286290655  MEMB      57              0.0000000000
      7175        57  PMPE      H3Y           -21.8207471704      -29.5061692975       13.6906901163  MEMB      57              0.0000000000
      7176        57  PMPE      C34           -21.5395022383      -27.3699214171       13.0498627974  MEMB      57              0.0000000000
      7177        57  PMPE      H4X           -21.0711758291      -27.7417818672       12.1135341689  MEMB      57              0.0000000000
      7178        57  PMPE      H4Y           -20.7903286080      -27.1493967789       13.8400708778  MEMB      57              0.0000000000
      7179        57  PMPE      C35           -22.1394376228      -25.9573220676       12.9322489188  MEMB      57              0.0000000000
      7180        57  PMPE      H5X           -21.4690843641      -25.2743945808       12.3678403026  MEMB      57              0.0000000000
      7181        57  PMPE      H5Y           -22.5164338087      -25.5244965832       13.8834890204  MEMB      57              0.0000000000
      7182        57  PMPE      C36           -23.4039527610      -25.9293736507       11.9406048483  MEMB      57              0.0000000000
      7183        57  PMPE      H6X           -24.1138227927      -26.6530174817       12.3952973292  MEMB      57              0.0000000000
      7184        57  PMPE      H6Y           -23.0289703623      -26.1818117390       10.9257234819  MEMB      57              0.0000000000
      7185        57  PMPE      C37           -24.0224837747      -24.5415460046       11.9988618524  MEMB      57              0.0000000000
      7186        57  PMPE      H7X           -23.2896816866      -23.8620006853       11.5135368878  MEMB      57              0.0000000000
      7187        57  PMPE      H7Y           -24.1771930685      -24.2932571197       13.0706539905  MEMB      57              0.0000000000
      7188        57  PMPE      C38           -25.2963919451      -24.3349681063       11.2211560935  MEMB      57              0.0000000000
      7189        57  PMPE      H8X           -25.7737162607      -23.3600058763       11.4576539654  MEMB      57              0.0000000000
      7190        57  PMPE      H8Y           -26.0898729505      -25.0490383034       11.5290723213  MEMB      57              0.0000000000
      7191        57  PMPE      C39           -25.1528334307      -24.3901663356        9.6820881665  MEMB      57              0.0000000000
      7192        57  PMPE      H9X           -24.7380258252      -25.3688618725        9.3589612502  MEMB      57              0.0000000000
      7193        57  PMPE      H9Y           -24.4924762113      -23.5314591644        9.4353665615  MEMB      57              0.0000000000
      7194        57  PMPE      C310          -26.5035954702      -24.1598526304        8.9611656035  MEMB      57              0.0000000000
      7195        57  PMPE      H10X          -27.0042024397      -23.1917889416        9.1769578487  MEMB      57              0.0000000000
      7196        57  PMPE      H10Y          -27.1468198615      -24.9570159656        9.3914146276  MEMB      57              0.0000000000
      7197        57  PMPE      C311          -26.5335849793      -24.2912799444        7.3885276084  MEMB      57              0.0000000000
      7198        57  PMPE      H11X          -27.6177583146      -24.1122375416        7.2247206042  MEMB      57              0.0000000000
      7199        57  PMPE      H11Y          -26.1029657384      -25.2813468185        7.1265056528  MEMB      57              0.0000000000
      7200        57  PMPE      C312          -25.7299471800      -23.0936285981        6.8318378071  MEMB      57              0.0000000000
      7201        57  PMPE      H12X          -24.6744536914      -23.1395740122        7.1755575683  MEMB      57              0.0000000000
      7202        57  PMPE      H12Y          -26.1132507358      -22.1432789016        7.2610633074  MEMB      57              0.0000000000
      7203        57  PMPE      C313          -25.6902693917      -22.9908408224        5.2729441139  MEMB      57              0.0000000000
      7204        57  PMPE      H13X          -25.4343273784      -21.9246889758        5.0936816413  MEMB      57              0.0000000000
      7205        57  PMPE      H13Y          -26.6689073878      -23.2478606612        4.8141091129  MEMB      57              0.0000000000
      7206        57  PMPE      C314          -24.6597486349      -23.9136445712        4.5569090100  MEMB      57              0.0000000000
      7207        57  PMPE      H14X          -25.0556702410      -24.9475674058        4.4643320850  MEMB      57              0.0000000000
      7208        57  PMPE      H14Y          -23.9199781046      -24.1950929821        5.3365543577  MEMB      57              0.0000000000
      7209        57  PMPE      C315          -23.9751904406      -23.5212774517        3.2412733012  MEMB      57              0.0000000000
      7210        57  PMPE      H15X          -23.3233302282      -24.3342304376        2.8559074776  MEMB      57              0.0000000000
      7211        57  PMPE      H15Y          -23.3520843611      -22.6289716970        3.4645446922  MEMB      57              0.0000000000
      7212        57  PMPE      C316          -25.0111365128      -23.1201178180        2.1087665891  MEMB      57              0.0000000000
      7213        57  PMPE      H16X          -25.9713741389      -23.6756745613        2.1689454973  MEMB      57              0.0000000000
      7214        57  PMPE      H16Y          -24.4134376032      -23.2541861034        1.1818885102  MEMB      57              0.0000000000
      7215        57  PMPE      H16Z          -25.3320949569      -22.0930365648        2.3851910295  MEMB      57              0.0000000000
      7216        58  POPE      N              33.1295455527       13.1080682341       20.9648847096  MEMB      58              0.0000000000
      7217        58  POPE      HN1            32.6968621639       13.5041571070       20.1061070668  MEMB      58              0.0000000000
      7218        58  POPE      HN2            32.4489502615       12.6259472233       21.5861328913  MEMB      58              0.0000000000
      7219        58  POPE      HN3            33.7649590938       13.7983296009       21.4136487574  MEMB      58              0.0000000000
      7220        58  POPE      C12            34.1451589867       12.0965352492       20.6552213890  MEMB      58              0.0000000000
      7221        58  POPE      H12A           34.1220871383       11.4284564848       21.5426106922  MEMB      58              0.0000000000
      7222        58  POPE      H12B           35.1019447861       12.6460808904       20.5252939560  MEMB      58              0.0000000000
      7223        58  POPE      C11            33.7063628413       11.4149355389       19.2911739051  MEMB      58              0.0000000000
      7224        58  POPE      H11A           34.4940260336       10.6893748142       18.9954215697  MEMB      58              0.0000000000
      7225        58  POPE      H11B           33.7901321773       12.2009078947       18.5104362435  MEMB      58              0.0000000000
      7226        58  POPE      P              31.7959724051       10.0773737606       18.1972149185  MEMB      58              0.0000000000
      7227        58  POPE      O13            30.7686985067       11.0139797559       17.6446241124  MEMB      58              0.0000000000
      7228        58  POPE      O14            31.3664398606        8.7480489468       18.5809484368  MEMB      58              0.0000000000
      7229        58  POPE      O11            32.9565261515       10.0155299773       17.2164478437  MEMB      58              0.0000000000
      7230        58  POPE      O12            32.4181548978       10.7200261358       19.4494847015  MEMB      58              0.0000000000
      7231        58  POPE      C1             32.6545627170        9.7386241792       15.8006554475  MEMB      58              0.0000000000
      7232        58  POPE      HA             31.5976008437        9.7078594637       15.4597649699  MEMB      58              0.0000000000
      7233        58  POPE      HB             33.1179085715        8.7688648569       15.5192333976  MEMB      58              0.0000000000
      7234        58  POPE      C2             33.2658288512       10.7717195902       14.8198498686  MEMB      58              0.0000000000
      7235        58  POPE      HS             34.2493299307       11.0229673592       15.2714257518  MEMB      58              0.0000000000
      7236        58  POPE      O21            32.4184716659       11.9694467537       14.8037178883  MEMB      58              0.0000000000
      7237        58  POPE      C21            32.9074309541       13.1006804773       14.3786906304  MEMB      58              0.0000000000
      7238        58  POPE      O22            34.0636412884       13.3686816068       14.1838259803  MEMB      58              0.0000000000
      7239        58  POPE      C22            31.7206508465       14.1619265248       14.3944731204  MEMB      58              0.0000000000
      7240        58  POPE      H2R            32.1248172248       15.0924750657       14.8472970063  MEMB      58              0.0000000000
      7241        58  POPE      H2S            30.9369237070       13.8026166701       15.0951794276  MEMB      58              0.0000000000
      7242        58  POPE      C3             33.4135925612       10.1107135817       13.3387259327  MEMB      58              0.0000000000
      7243        58  POPE      HX             33.8614296090        9.1013770330       13.4612098513  MEMB      58              0.0000000000
      7244        58  POPE      HY             34.0743350323       10.8905467404       12.9032942933  MEMB      58              0.0000000000
      7245        58  POPE      O31            32.2041959351       10.1620136261       12.5476188728  MEMB      58              0.0000000000
      7246        58  POPE      C31            32.1110635329        9.4492457413       11.5107245050  MEMB      58              0.0000000000
      7247        58  POPE      O32            33.0036727356        8.7841599155       10.9733095275  MEMB      58              0.0000000000
      7248        58  POPE      C32            30.6710314144        9.8406682067       10.9467908485  MEMB      58              0.0000000000
      7249        58  POPE      H2X            30.4715245754       10.9271243789       11.0656650534  MEMB      58              0.0000000000
      7250        58  POPE      H2Y            29.7968038261        9.3574422339       11.4331444990  MEMB      58              0.0000000000
      7251        58  POPE      C23            31.1207472699       14.5202003674       13.0059464054  MEMB      58              0.0000000000
      7252        58  POPE      H3R            31.7942628879       14.2644633922       12.1601944498  MEMB      58              0.0000000000
      7253        58  POPE      H3S            30.9376728371       15.6049816465       12.8508502443  MEMB      58              0.0000000000
      7254        58  POPE      C24            29.8050847377       13.7949498415       12.7584350992  MEMB      58              0.0000000000
      7255        58  POPE      H4R            29.0782928139       13.9462403990       13.5849975483  MEMB      58              0.0000000000
      7256        58  POPE      H4S            30.0169444559       12.7100322361       12.6471243019  MEMB      58              0.0000000000
      7257        58  POPE      C25            29.2131758027       14.2963368400       11.4162198704  MEMB      58              0.0000000000
      7258        58  POPE      H5R            29.0069380310       15.3468026673       11.7133875410  MEMB      58              0.0000000000
      7259        58  POPE      H5S            28.3289281352       13.6701199841       11.1707008626  MEMB      58              0.0000000000
      7260        58  POPE      C26            30.0921672057       14.4336069684       10.2204697756  MEMB      58              0.0000000000
      7261        58  POPE      H6R            30.5731725678       13.4781702109        9.9203109490  MEMB      58              0.0000000000
      7262        58  POPE      H6S            30.9341261029       15.1533782844       10.3062363583  MEMB      58              0.0000000000
      7263        58  POPE      C27            29.2653367040       15.1228999124        9.1302880034  MEMB      58              0.0000000000
      7264        58  POPE      H7R            29.2606475633       16.2213428110        9.2967875844  MEMB      58              0.0000000000
      7265        58  POPE      H7S            28.2497070224       14.6761914791        9.1874576265  MEMB      58              0.0000000000
      7266        58  POPE      C28            29.8079094016       14.9682635654        7.6828945565  MEMB      58              0.0000000000
      7267        58  POPE      H8R            29.8968553005       13.8713156378        7.5308601726  MEMB      58              0.0000000000
      7268        58  POPE      H8S            30.8265100534       15.4118518493        7.6812090111  MEMB      58              0.0000000000
      7269        58  POPE      C29            28.9803996107       15.6559503951        6.5636597240  MEMB      58              0.0000000000
      7270        58  POPE      H91            28.9911333016       16.7558930316        6.5604330221  MEMB      58              0.0000000000
      7271        58  POPE      C210           28.3422789675       15.0840216992        5.5254928145  MEMB      58              0.0000000000
      7272        58  POPE      H101           27.8277990119       15.7603653575        4.8270159939  MEMB      58              0.0000000000
      7273        58  POPE      C211           28.2506466322       13.5981320347        5.2647757666  MEMB      58              0.0000000000
      7274        58  POPE      H11R           27.3048013375       13.2191273047        4.8219960772  MEMB      58              0.0000000000
      7275        58  POPE      H11S           28.3223897733       12.8773423652        6.1071740933  MEMB      58              0.0000000000
      7276        58  POPE      C212           29.3768566733       13.0895839534        4.4316295936  MEMB      58              0.0000000000
      7277        58  POPE      H12R           29.4063768523       13.5479780896        3.4200341790  MEMB      58              0.0000000000
      7278        58  POPE      H12S           28.9578648434       12.0890182923        4.1915560936  MEMB      58              0.0000000000
      7279        58  POPE      C213           30.6772546762       12.8661194047        5.0657820168  MEMB      58              0.0000000000
      7280        58  POPE      H13R           30.4935449930       12.3779736192        6.0467428498  MEMB      58              0.0000000000
      7281        58  POPE      H13S           31.2615675280       13.7247326430        5.4603483106  MEMB      58              0.0000000000
      7282        58  POPE      C214           31.7162615698       11.9105671214        4.4887508283  MEMB      58              0.0000000000
      7283        58  POPE      H14R           32.5316934106       11.6291932163        5.1889093628  MEMB      58              0.0000000000
      7284        58  POPE      H14S           32.2591152281       12.4176243791        3.6626013391  MEMB      58              0.0000000000
      7285        58  POPE      C215           31.0408172113       10.6712190428        4.0368587504  MEMB      58              0.0000000000
      7286        58  POPE      H15R           30.3962279654       10.8704270172        3.1541687301  MEMB      58              0.0000000000
      7287        58  POPE      H15S           30.4122966009       10.1335336625        4.7785980791  MEMB      58              0.0000000000
      7288        58  POPE      C216           32.1580668756        9.6619648060        3.5978127045  MEMB      58              0.0000000000
      7289        58  POPE      H16R           31.7230387199        8.6608258302        3.3909498443  MEMB      58              0.0000000000
      7290        58  POPE      H16S           32.9061055954        9.5037725348        4.4038735597  MEMB      58              0.0000000000
      7291        58  POPE      C217           32.9551371043       10.1590597461        2.3976432937  MEMB      58              0.0000000000
      7292        58  POPE      H17R           33.6282208208       11.0269410791        2.5651591865  MEMB      58              0.0000000000
      7293        58  POPE      H17S           32.2428837153       10.5645367809        1.6475732425  MEMB      58              0.0000000000
      7294        58  POPE      C218           33.8535124335        9.2427199804        1.6400721963  MEMB      58              0.0000000000
      7295        58  POPE      H18R           34.4857180684        9.8565681825        0.9634437739  MEMB      58              0.0000000000
      7296        58  POPE      H18S           33.2429384699        8.5818900865        0.9882879551  MEMB      58              0.0000000000
      7297        58  POPE      H18T           34.3787353453        8.5654744609        2.3470388088  MEMB      58              0.0000000000
      7298        58  POPE      C33            30.5897749091        9.3752591457        9.4890383611  MEMB      58              0.0000000000
      7299        58  POPE      H3X            30.8696739279        8.3010785220        9.4430633301  MEMB      58              0.0000000000
      7300        58  POPE      H3Y            31.3463062411        9.9549840308        8.9181613993  MEMB      58              0.0000000000
      7301        58  POPE      C34            29.1751789380        9.6632335652        8.9929086077  MEMB      58              0.0000000000
      7302        58  POPE      H4X            29.0043982905       10.7373832548        9.2195310044  MEMB      58              0.0000000000
      7303        58  POPE      H4Y            28.5295613510        9.0443189467        9.6520321113  MEMB      58              0.0000000000
      7304        58  POPE      C35            28.9514868413        9.4614939823        7.5681518891  MEMB      58              0.0000000000
      7305        58  POPE      H5X            29.7354531975       10.1785963602        7.2433717601  MEMB      58              0.0000000000
      7306        58  POPE      H5Y            27.9675398049        9.7783951333        7.1610359753  MEMB      58              0.0000000000
      7307        58  POPE      C36            29.2361081431        8.1135067113        6.9270519463  MEMB      58              0.0000000000
      7308        58  POPE      H6X            29.8630951227        7.4241806766        7.5320620762  MEMB      58              0.0000000000
      7309        58  POPE      H6Y            29.7310230979        8.2877573255        5.9477580068  MEMB      58              0.0000000000
      7310        58  POPE      C37            27.8831851238        7.4569687797        6.6078982953  MEMB      58              0.0000000000
      7311        58  POPE      H7X            27.3865540685        8.1339299063        5.8802980721  MEMB      58              0.0000000000
      7312        58  POPE      H7Y            27.3235401184        7.4348688938        7.5673933891  MEMB      58              0.0000000000
      7313        58  POPE      C38            28.0635659867        6.0573660976        5.9799172290  MEMB      58              0.0000000000
      7314        58  POPE      H8X            28.0283672954        5.2394907186        6.7310249963  MEMB      58              0.0000000000
      7315        58  POPE      H8Y            29.0103350633        5.9565563510        5.4073905044  MEMB      58              0.0000000000
      7316        58  POPE      C39            26.9125178906        5.7381267293        4.9589610725  MEMB      58              0.0000000000
      7317        58  POPE      H9X            25.9930057174        6.2288396192        5.3436937685  MEMB      58              0.0000000000
      7318        58  POPE      H9Y            26.7237100654        4.6550821645        4.7986887731  MEMB      58              0.0000000000
      7319        58  POPE      C310           27.3088358553        6.2701108223        3.5624326441  MEMB      58              0.0000000000
      7320        58  POPE      H10X           28.1833662139        5.6503139680        3.2702514825  MEMB      58              0.0000000000
      7321        58  POPE      H10Y           27.6384631254        7.3242178726        3.6829526327  MEMB      58              0.0000000000
      7322        58  POPE      C311           26.1987470272        6.1654041867        2.4645689664  MEMB      58              0.0000000000
      7323        58  POPE      H11X           25.2770833591        6.7061887813        2.7685586665  MEMB      58              0.0000000000
      7324        58  POPE      H11Y           25.8526798906        5.1411470404        2.2087243197  MEMB      58              0.0000000000
      7325        58  POPE      C312           26.5566285673        6.9072623440        1.1765210653  MEMB      58              0.0000000000
      7326        58  POPE      H12X           25.6192361451        6.8950110491        0.5803120701  MEMB      58              0.0000000000
      7327        58  POPE      H12Y           27.2627376207        6.2338050562        0.6453093884  MEMB      58              0.0000000000
      7328        58  POPE      C313           26.8931580571        8.3746496775        1.2932914839  MEMB      58              0.0000000000
      7329        58  POPE      H13X           27.8726782278        8.4754473764        1.8077801643  MEMB      58              0.0000000000
      7330        58  POPE      H13Y           26.1794431750        8.9497412793        1.9211462047  MEMB      58              0.0000000000
      7331        58  POPE      C314           26.8234828619        9.0228526056       -0.0730950664  MEMB      58              0.0000000000
      7332        58  POPE      H14X           25.7516061077        8.9233481646       -0.3478690663  MEMB      58              0.0000000000
      7333        58  POPE      H14Y           27.2877796917        8.3829349743       -0.8536421648  MEMB      58              0.0000000000
      7334        58  POPE      C315           27.3154478167       10.4250714999       -0.1711363926  MEMB      58              0.0000000000
      7335        58  POPE      H15X           27.5064601433       10.7930033192        0.8596212218  MEMB      58              0.0000000000
      7336        58  POPE      H15Y           26.6536254400       11.1450688821       -0.6983135451  MEMB      58              0.0000000000
      7337        58  POPE      C316           28.6850276340       10.4776316499       -0.8662405644  MEMB      58              0.0000000000
      7338        58  POPE      H16X           28.7600707272        9.9965553945       -1.8648669763  MEMB      58              0.0000000000
      7339        58  POPE      H16Y           29.5543738213       10.0368768379       -0.3330491749  MEMB      58              0.0000000000
      7340        58  POPE      H16Z           29.0522507226       11.5068435135       -1.0667177438  MEMB      58              0.0000000000
      7341        59  PMPE      N              17.0357489148       27.3068672106       18.4052948058  MEMB      59              0.0000000000
      7342        59  PMPE      HN1            17.6456291464       27.7682536074       17.7004765003  MEMB      59              0.0000000000
      7343        59  PMPE      HN2            17.5375516433       27.1612853448       19.3045167866  MEMB      59              0.0000000000
      7344        59  PMPE      HN3            16.9129308724       26.3325726982       18.0628537220  MEMB      59              0.0000000000
      7345        59  PMPE      C12            15.8307700314       28.1150162415       18.6635778786  MEMB      59              0.0000000000
      7346        59  PMPE      H12A           15.4641098396       28.0420328326       19.7097875540  MEMB      59              0.0000000000
      7347        59  PMPE      H12B           15.0820723681       27.6507002467       17.9866852522  MEMB      59              0.0000000000
      7348        59  PMPE      C11            15.9723527113       29.5661440752       18.3281158341  MEMB      59              0.0000000000
      7349        59  PMPE      H11A           14.9335057589       29.9593549679       18.3505454221  MEMB      59              0.0000000000
      7350        59  PMPE      H11B           16.3864264417       29.8154630476       17.3277639125  MEMB      59              0.0000000000
      7351        59  PMPE      P              17.6490164574       31.3834072159       19.3561878747  MEMB      59              0.0000000000
      7352        59  PMPE      O13            18.3397119970       31.5166783010       20.6158440320  MEMB      59              0.0000000000
      7353        59  PMPE      O14            16.9957940662       32.6354069537       18.8989092059  MEMB      59              0.0000000000
      7354        59  PMPE      O11            18.6538428942       30.8529164960       18.3292413314  MEMB      59              0.0000000000
      7355        59  PMPE      O12            16.7039997553       30.1556267233       19.4028290403  MEMB      59              0.0000000000
      7356        59  PMPE      C1             19.9129840562       30.3473661618       18.7311728269  MEMB      59              0.0000000000
      7357        59  PMPE      HA             19.8019280103       29.4800849536       19.4166004290  MEMB      59              0.0000000000
      7358        59  PMPE      HB             20.3621316432       31.2225647849       19.2475201776  MEMB      59              0.0000000000
      7359        59  PMPE      C2             20.8689527122       30.0499666244       17.5367133187  MEMB      59              0.0000000000
      7360        59  PMPE      HS             21.8774418638       29.7662226716       17.9065242262  MEMB      59              0.0000000000
      7361        59  PMPE      O21            20.9148646152       31.1157472365       16.6518042755  MEMB      59              0.0000000000
      7362        59  PMPE      C21            21.7545577603       31.0248938828       15.6152404113  MEMB      59              0.0000000000
      7363        59  PMPE      O22            22.7024652458       30.2769172394       15.5118854137  MEMB      59              0.0000000000
      7364        59  PMPE      C22            21.2877593084       31.9965665749       14.5036905148  MEMB      59              0.0000000000
      7365        59  PMPE      H2R            22.1465875595       32.3885834766       13.9179786384  MEMB      59              0.0000000000
      7366        59  PMPE      H2S            20.9159863921       32.9134131719       15.0091584384  MEMB      59              0.0000000000
      7367        59  PMPE      C3             20.3310970351       28.8017885441       16.7433350327  MEMB      59              0.0000000000
      7368        59  PMPE      HX             20.0464053639       27.9896883143       17.4460190010  MEMB      59              0.0000000000
      7369        59  PMPE      HY             21.1678660094       28.3867722020       16.1417539996  MEMB      59              0.0000000000
      7370        59  PMPE      O31            19.1817865290       29.2202871836       15.9656149557  MEMB      59              0.0000000000
      7371        59  PMPE      C31            18.6733523969       28.2604771752       15.3082926819  MEMB      59              0.0000000000
      7372        59  PMPE      O32            19.0149781995       27.0962724883       15.2772661130  MEMB      59              0.0000000000
      7373        59  PMPE      C32            17.5535119168       28.9379960633       14.4867905341  MEMB      59              0.0000000000
      7374        59  PMPE      H2X            17.9525048006       29.6732362804       13.7556632679  MEMB      59              0.0000000000
      7375        59  PMPE      H2Y            16.8878128472       29.4255351374       15.2307471666  MEMB      59              0.0000000000
      7376        59  PMPE      C23            20.3272848322       31.2207649822       13.5991235591  MEMB      59              0.0000000000
      7377        59  PMPE      H3R            19.4479568083       31.0046645283       14.2428658616  MEMB      59              0.0000000000
      7378        59  PMPE      H3S            20.6155361588       30.1641310337       13.4126919721  MEMB      59              0.0000000000
      7379        59  PMPE      C24            19.8424633891       32.0033008447       12.3022730339  MEMB      59              0.0000000000
      7380        59  PMPE      H4R            19.4628667698       32.9977923660       12.6204144208  MEMB      59              0.0000000000
      7381        59  PMPE      H4S            18.9522832476       31.3792099765       12.0733387157  MEMB      59              0.0000000000
      7382        59  PMPE      C25            20.9079972904       32.0324446434       11.2124546084  MEMB      59              0.0000000000
      7383        59  PMPE      H5R            21.2528287309       30.9886173531       11.0517162337  MEMB      59              0.0000000000
      7384        59  PMPE      H5S            21.8176489377       32.6409622091       11.4036648529  MEMB      59              0.0000000000
      7385        59  PMPE      C26            20.3671766249       32.6054515364        9.8051462991  MEMB      59              0.0000000000
      7386        59  PMPE      H6R            19.8466344062       33.5721371267        9.9750745270  MEMB      59              0.0000000000
      7387        59  PMPE      H6S            19.5147904872       31.9156321595        9.6265175767  MEMB      59              0.0000000000
      7388        59  PMPE      C27            21.4802651288       32.7545388301        8.7688521342  MEMB      59              0.0000000000
      7389        59  PMPE      H7R            21.9126012156       31.7327265202        8.7113550383  MEMB      59              0.0000000000
      7390        59  PMPE      H7S            22.2294394535       33.5223682255        9.0578100251  MEMB      59              0.0000000000
      7391        59  PMPE      C28            21.0081476723       33.1910342502        7.3902756208  MEMB      59              0.0000000000
      7392        59  PMPE      H8R            20.3469400438       32.4406834764        6.9064375684  MEMB      59              0.0000000000
      7393        59  PMPE      H8S            21.8953713225       33.0700529597        6.7326137706  MEMB      59              0.0000000000
      7394        59  PMPE      C29            20.6128930379       34.6894196325        7.3237294946  MEMB      59              0.0000000000
      7395        59  PMPE      H9R            21.1154826820       35.4452038106        7.9644435679  MEMB      59              0.0000000000
      7396        59  PMPE      C217           19.0758012747       34.8510516251        7.5616485760  MEMB      59              0.0000000000
      7397        59  PMPE      H17R           18.7550992031       35.7652456188        8.0456824490  MEMB      59              0.0000000000
      7398        59  PMPE      H17S           18.6481192163       33.8676573155        7.4102788731  MEMB      59              0.0000000000
      7399        59  PMPE      C210           19.7805604855       35.2528881538        6.2049310355  MEMB      59              0.0000000000
      7400        59  PMPE      H10R           19.7545442388       36.3481551457        6.0204462795  MEMB      59              0.0000000000
      7401        59  PMPE      C211           19.4153347217       34.3629706425        5.0367320580  MEMB      59              0.0000000000
      7402        59  PMPE      H11R           18.5972930397       34.8203513344        4.4401325259  MEMB      59              0.0000000000
      7403        59  PMPE      H11S           19.1206116173       33.3403406274        5.3556162262  MEMB      59              0.0000000000
      7404        59  PMPE      C212           20.6208819177       34.1860423920        4.0570779474  MEMB      59              0.0000000000
      7405        59  PMPE      H12R           21.4854738544       33.7718596733        4.6185526047  MEMB      59              0.0000000000
      7406        59  PMPE      H12S           20.8867114208       35.1605641166        3.5945152412  MEMB      59              0.0000000000
      7407        59  PMPE      C213           20.2346943169       33.2995135917        2.8517154813  MEMB      59              0.0000000000
      7408        59  PMPE      H13R           19.2603046704       33.6058826651        2.4146533309  MEMB      59              0.0000000000
      7409        59  PMPE      H13S           20.1308610578       32.2384812142        3.1643667129  MEMB      59              0.0000000000
      7410        59  PMPE      C214           21.3361134844       33.2440252202        1.8084521935  MEMB      59              0.0000000000
      7411        59  PMPE      H14R           22.3637481532       33.0864032017        2.2001695633  MEMB      59              0.0000000000
      7412        59  PMPE      H14S           21.4653314379       34.2344745579        1.3219997207  MEMB      59              0.0000000000
      7413        59  PMPE      C215           21.1052103698       32.1934887850        0.6792450488  MEMB      59              0.0000000000
      7414        59  PMPE      H15R           21.3373339077       31.1887364274        1.0926612154  MEMB      59              0.0000000000
      7415        59  PMPE      H15S           21.8574434015       32.2661180328       -0.1351204837  MEMB      59              0.0000000000
      7416        59  PMPE      C216           19.7799851246       32.3241891062       -0.0019964404  MEMB      59              0.0000000000
      7417        59  PMPE      H16R           19.8761911720       31.9855257389       -1.0557398895  MEMB      59              0.0000000000
      7418        59  PMPE      H16S           18.9993845707       31.6534309955        0.4164114195  MEMB      59              0.0000000000
      7419        59  PMPE      H16T           19.2777386080       33.3074887404        0.1212580953  MEMB      59              0.0000000000
      7420        59  PMPE      C33            16.8264040754       27.7913137180       13.8260894322  MEMB      59              0.0000000000
      7421        59  PMPE      H3X            16.4398473681       27.0675454625       14.5751249089  MEMB      59              0.0000000000
      7422        59  PMPE      H3Y            17.4961590784       27.1472274050       13.2170720837  MEMB      59              0.0000000000
      7423        59  PMPE      C34            15.6097005303       28.1723399343       12.9607707294  MEMB      59              0.0000000000
      7424        59  PMPE      H4X            14.9081899231       28.7511042968       13.5989209188  MEMB      59              0.0000000000
      7425        59  PMPE      H4Y            15.1381294544       27.2211032984       12.6335233933  MEMB      59              0.0000000000
      7426        59  PMPE      C35            15.8759530720       29.0094446267       11.7033028236  MEMB      59              0.0000000000
      7427        59  PMPE      H5X            16.0997550828       30.0648131166       11.9686911834  MEMB      59              0.0000000000
      7428        59  PMPE      H5Y            14.9104690213       28.9962913326       11.1537678374  MEMB      59              0.0000000000
      7429        59  PMPE      C36            16.8938066158       28.5426636372       10.6487875591  MEMB      59              0.0000000000
      7430        59  PMPE      H6X            16.7864172145       27.4513604064       10.4703336791  MEMB      59              0.0000000000
      7431        59  PMPE      H6Y            17.9511846119       28.6004095969       10.9848506694  MEMB      59              0.0000000000
      7432        59  PMPE      C37            16.7494326923       29.2074606060        9.2092838995  MEMB      59              0.0000000000
      7433        59  PMPE      H7X            16.6960012571       30.3170885217        9.2231358269  MEMB      59              0.0000000000
      7434        59  PMPE      H7Y            15.8021560590       28.8074150185        8.7886278456  MEMB      59              0.0000000000
      7435        59  PMPE      C38            17.8486298921       28.8700202971        8.2143532895  MEMB      59              0.0000000000
      7436        59  PMPE      H8X            17.7839644135       27.7638593896        8.1334368341  MEMB      59              0.0000000000
      7437        59  PMPE      H8Y            18.8293969220       29.1688734533        8.6422596613  MEMB      59              0.0000000000
      7438        59  PMPE      C39            17.7501956805       29.6974691045        6.8707815422  MEMB      59              0.0000000000
      7439        59  PMPE      H9X            18.4610436386       29.1670850553        6.2016706749  MEMB      59              0.0000000000
      7440        59  PMPE      H9Y            18.1543968351       30.7304889620        6.9325272403  MEMB      59              0.0000000000
      7441        59  PMPE      C310           16.3726178042       29.6435506316        6.2025167992  MEMB      59              0.0000000000
      7442        59  PMPE      H10X           15.6825618092       30.1656582940        6.8993285253  MEMB      59              0.0000000000
      7443        59  PMPE      H10Y           16.1886542063       28.5488093838        6.1575811161  MEMB      59              0.0000000000
      7444        59  PMPE      C311           16.2660970108       30.0889414945        4.7203424665  MEMB      59              0.0000000000
      7445        59  PMPE      H11X           15.3431298068       29.7255005304        4.2199787143  MEMB      59              0.0000000000
      7446        59  PMPE      H11Y           17.1915120789       29.7831995211        4.1870035729  MEMB      59              0.0000000000
      7447        59  PMPE      C312           16.2115169294       31.6774932047        4.6381419160  MEMB      59              0.0000000000
      7448        59  PMPE      H12X           16.8498945624       32.0773411753        5.4547916852  MEMB      59              0.0000000000
      7449        59  PMPE      H12Y           15.1523963472       31.9862552980        4.7694837997  MEMB      59              0.0000000000
      7450        59  PMPE      C313           16.6017035830       32.2069619656        3.2740725101  MEMB      59              0.0000000000
      7451        59  PMPE      H13X           17.6320000652       31.9632851161        2.9372762229  MEMB      59              0.0000000000
      7452        59  PMPE      H13Y           16.6397009323       33.3173100129        3.2719471870  MEMB      59              0.0000000000
      7453        59  PMPE      C314           15.7819045080       31.7506308638        2.1257277506  MEMB      59              0.0000000000
      7454        59  PMPE      H14X           15.5807303275       30.6581008334        2.1408364354  MEMB      59              0.0000000000
      7455        59  PMPE      H14Y           16.3030687395       31.9606541335        1.1672914112  MEMB      59              0.0000000000
      7456        59  PMPE      C315           14.4529746117       32.5447538787        1.9592592162  MEMB      59              0.0000000000
      7457        59  PMPE      H15X           14.0654136198       32.4826700775        2.9986165714  MEMB      59              0.0000000000
      7458        59  PMPE      H15Y           13.7458763469       31.9886973642        1.3072361810  MEMB      59              0.0000000000
      7459        59  PMPE      C316           14.7140047015       33.9487117602        1.4281393160  MEMB      59              0.0000000000
      7460        59  PMPE      H16X           13.8063143443       34.5868111218        1.4851339217  MEMB      59              0.0000000000
      7461        59  PMPE      H16Y           15.1474799826       34.0206913337        0.4077280202  MEMB      59              0.0000000000
      7462        59  PMPE      H16Z           15.4443551971       34.5293257180        2.0312956571  MEMB      59              0.0000000000
      7463        60  PMPE      N             -30.7134480392       13.7996649367       17.7688287281  MEMB      60              0.0000000000
      7464        60  PMPE      HN1           -30.2271244512       13.2615272256       17.0235120209  MEMB      60              0.0000000000
      7465        60  PMPE      HN2           -29.9637963981       14.0207431612       18.4549387604  MEMB      60              0.0000000000
      7466        60  PMPE      HN3           -31.4147304951       13.2345459583       18.2888703930  MEMB      60              0.0000000000
      7467        60  PMPE      C12           -31.4170650538       15.0748668363       17.4063546589  MEMB      60              0.0000000000
      7468        60  PMPE      H12A          -32.2424030629       14.7076086019       16.7596246334  MEMB      60              0.0000000000
      7469        60  PMPE      H12B          -30.6759698750       15.6550658693       16.8160427761  MEMB      60              0.0000000000
      7470        60  PMPE      C11           -31.8450865040       16.0367104673       18.5804890286  MEMB      60              0.0000000000
      7471        60  PMPE      H11A          -32.7466746260       15.5569325245       19.0178364100  MEMB      60              0.0000000000
      7472        60  PMPE      H11B          -32.2583107718       17.0083383187       18.2347926902  MEMB      60              0.0000000000
      7473        60  PMPE      P             -30.0804090579       17.4619562194       19.7419487876  MEMB      60              0.0000000000
      7474        60  PMPE      O13           -28.8581219316       17.3285437180       20.4987248614  MEMB      60              0.0000000000
      7475        60  PMPE      O14           -31.1191684746       18.3661826604       20.2157274051  MEMB      60              0.0000000000
      7476        60  PMPE      O11           -29.7091510652       17.8481731478       18.2243736480  MEMB      60              0.0000000000
      7477        60  PMPE      O12           -30.7568234557       16.0616164341       19.5635528824  MEMB      60              0.0000000000
      7478        60  PMPE      C1            -28.4858780574       18.4077205918       17.9575634486  MEMB      60              0.0000000000
      7479        60  PMPE      HA            -27.8218769149       17.5271922181       17.8230521828  MEMB      60              0.0000000000
      7480        60  PMPE      HB            -28.0605109351       19.0217187368       18.7799928196  MEMB      60              0.0000000000
      7481        60  PMPE      C2            -28.5079361068       19.2740553870       16.6490972497  MEMB      60              0.0000000000
      7482        60  PMPE      HS            -29.0003889224       20.2418247236       16.8841163730  MEMB      60              0.0000000000
      7483        60  PMPE      O21           -29.1118367614       18.5551868629       15.6041282362  MEMB      60              0.0000000000
      7484        60  PMPE      C21           -30.4418144008       18.5731520466       15.4648613133  MEMB      60              0.0000000000
      7485        60  PMPE      O22           -31.1961430349       19.1706693399       16.1653893981  MEMB      60              0.0000000000
      7486        60  PMPE      C22           -30.9365942022       17.6907637677       14.2600624384  MEMB      60              0.0000000000
      7487        60  PMPE      H2R           -30.9171236784       16.5830294797       14.3429278748  MEMB      60              0.0000000000
      7488        60  PMPE      H2S           -30.4252443638       17.9697717397       13.3140194646  MEMB      60              0.0000000000
      7489        60  PMPE      C3            -27.1316023025       19.7164908708       16.0970638540  MEMB      60              0.0000000000
      7490        60  PMPE      HX            -26.3629906747       18.9147701033       16.1253646559  MEMB      60              0.0000000000
      7491        60  PMPE      HY            -26.7686405165       20.4124356578       16.8833467310  MEMB      60              0.0000000000
      7492        60  PMPE      O31           -27.1926082667       20.4648317193       14.9358711891  MEMB      60              0.0000000000
      7493        60  PMPE      C31           -26.8103850638       19.8232019438       13.9172066875  MEMB      60              0.0000000000
      7494        60  PMPE      O32           -26.1063253823       18.8729472288       13.8220366432  MEMB      60              0.0000000000
      7495        60  PMPE      C32           -27.4721285277       20.4772061716       12.7534723361  MEMB      60              0.0000000000
      7496        60  PMPE      H2X           -26.7842915277       21.3081952789       12.4876565548  MEMB      60              0.0000000000
      7497        60  PMPE      H2Y           -28.4618491402       20.9604992851       12.8990819225  MEMB      60              0.0000000000
      7498        60  PMPE      C23           -32.4412951165       18.0210339997       13.9302028043  MEMB      60              0.0000000000
      7499        60  PMPE      H3R           -32.7763661560       19.0762517722       14.0227416145  MEMB      60              0.0000000000
      7500        60  PMPE      H3S           -33.1402531880       17.4548577952       14.5822941811  MEMB      60              0.0000000000
      7501        60  PMPE      C24           -32.7695231875       17.8277442909       12.4949765252  MEMB      60              0.0000000000
      7502        60  PMPE      H4R           -32.2730432426       18.6528564261       11.9408837126  MEMB      60              0.0000000000
      7503        60  PMPE      H4S           -33.8246066857       18.1035848601       12.2827693828  MEMB      60              0.0000000000
      7504        60  PMPE      C25           -32.2660670439       16.4652097368       11.9721983293  MEMB      60              0.0000000000
      7505        60  PMPE      H5R           -32.7580493478       15.7109704474       12.6228880621  MEMB      60              0.0000000000
      7506        60  PMPE      H5S           -31.1732272386       16.3970215661       12.1602741900  MEMB      60              0.0000000000
      7507        60  PMPE      C26           -32.8033781019       16.1244448581       10.5478143101  MEMB      60              0.0000000000
      7508        60  PMPE      H6R           -33.9081162115       16.2032224124       10.6353870855  MEMB      60              0.0000000000
      7509        60  PMPE      H6S           -32.5226681019       15.0973105017       10.2307685569  MEMB      60              0.0000000000
      7510        60  PMPE      C27           -32.4104637951       17.1035509779        9.4247407550  MEMB      60              0.0000000000
      7511        60  PMPE      H7R           -31.6474911889       17.8576103086        9.7138575393  MEMB      60              0.0000000000
      7512        60  PMPE      H7S           -33.1480147875       17.8926798407        9.1647113624  MEMB      60              0.0000000000
      7513        60  PMPE      C28           -31.7560269521       16.5091732164        8.1577124617  MEMB      60              0.0000000000
      7514        60  PMPE      H8R           -31.4356896823       17.2006774790        7.3493020401  MEMB      60              0.0000000000
      7515        60  PMPE      H8S           -32.5844686884       15.8972682062        7.7410858592  MEMB      60              0.0000000000
      7516        60  PMPE      C29           -30.5559560539       15.5491275356        8.3950016062  MEMB      60              0.0000000000
      7517        60  PMPE      H9R           -30.5312485448       14.9372837762        9.3220164839  MEMB      60              0.0000000000
      7518        60  PMPE      C217          -29.2958855558       16.4454219444        8.4272285078  MEMB      60              0.0000000000
      7519        60  PMPE      H17R          -28.5418132692       16.2667242437        9.1837536768  MEMB      60              0.0000000000
      7520        60  PMPE      H17S          -29.4425525021       17.4107752629        7.9587512452  MEMB      60              0.0000000000
      7521        60  PMPE      C210          -29.4165042972       15.3120262710        7.4254108392  MEMB      60              0.0000000000
      7522        60  PMPE      H10R          -29.0602784983       14.3055114767        7.7325793363  MEMB      60              0.0000000000
      7523        60  PMPE      C211          -29.7663170098       15.6346579050        5.9850749934  MEMB      60              0.0000000000
      7524        60  PMPE      H11R          -28.9795052240       15.4377024465        5.2258276552  MEMB      60              0.0000000000
      7525        60  PMPE      H11S          -30.0574583645       16.7049574002        5.9216969541  MEMB      60              0.0000000000
      7526        60  PMPE      C212          -30.9133843743       14.7303075390        5.3706139645  MEMB      60              0.0000000000
      7527        60  PMPE      H12R          -31.8493570419       14.9639609730        5.9216880529  MEMB      60              0.0000000000
      7528        60  PMPE      H12S          -30.5563672145       13.7036166096        5.6003213298  MEMB      60              0.0000000000
      7529        60  PMPE      C213          -30.9610289164       14.8789023440        3.8715807181  MEMB      60              0.0000000000
      7530        60  PMPE      H13R          -31.3526440480       13.9195786470        3.4707606157  MEMB      60              0.0000000000
      7531        60  PMPE      H13S          -29.9521804032       15.0945049814        3.4591958682  MEMB      60              0.0000000000
      7532        60  PMPE      C214          -31.9921986342       15.8777022155        3.3430036921  MEMB      60              0.0000000000
      7533        60  PMPE      H14R          -31.5827473450       16.9053232929        3.4462775798  MEMB      60              0.0000000000
      7534        60  PMPE      H14S          -32.8913369344       15.8212547295        3.9931462836  MEMB      60              0.0000000000
      7535        60  PMPE      C215          -32.5602259246       15.4289871169        1.9992091309  MEMB      60              0.0000000000
      7536        60  PMPE      H15R          -32.5677650295       14.3186649278        1.9611528648  MEMB      60              0.0000000000
      7537        60  PMPE      H15S          -31.8690622111       15.8288067120        1.2267095557  MEMB      60              0.0000000000
      7538        60  PMPE      C216          -33.9648266244       16.0253266964        1.5725359533  MEMB      60              0.0000000000
      7539        60  PMPE      H16R          -33.8674518365       17.1317882876        1.5966621420  MEMB      60              0.0000000000
      7540        60  PMPE      H16S          -34.1963398364       15.6362282114        0.5579795323  MEMB      60              0.0000000000
      7541        60  PMPE      H16T          -34.7393091416       15.6984109140        2.2989148732  MEMB      60              0.0000000000
      7542        60  PMPE      C33           -27.5766547169       19.6691856983       11.4633923883  MEMB      60              0.0000000000
      7543        60  PMPE      H3X           -28.4887056591       19.0358857404       11.5010116761  MEMB      60              0.0000000000
      7544        60  PMPE      H3Y           -26.6369039081       19.0767172963       11.4764489757  MEMB      60              0.0000000000
      7545        60  PMPE      C34           -27.5207271939       20.4300747840       10.1565664568  MEMB      60              0.0000000000
      7546        60  PMPE      H4X           -26.4677170878       20.7354613673        9.9770390633  MEMB      60              0.0000000000
      7547        60  PMPE      H4Y           -28.2213358049       21.2870570295       10.2516967875  MEMB      60              0.0000000000
      7548        60  PMPE      C35           -28.0431819879       19.6482027152        8.9317639116  MEMB      60              0.0000000000
      7549        60  PMPE      H5X           -29.0389287163       19.2297915883        9.1920353600  MEMB      60              0.0000000000
      7550        60  PMPE      H5Y           -27.4411685900       18.7229095016        8.8063314017  MEMB      60              0.0000000000
      7551        60  PMPE      C36           -28.0575631509       20.5977776350        7.6402853232  MEMB      60              0.0000000000
      7552        60  PMPE      H6X           -26.9821337086       20.7728848098        7.4232351252  MEMB      60              0.0000000000
      7553        60  PMPE      H6Y           -28.4352120963       21.5761418745        8.0070356248  MEMB      60              0.0000000000
      7554        60  PMPE      C37           -28.8750918745       20.1372691841        6.4872643021  MEMB      60              0.0000000000
      7555        60  PMPE      H7X           -29.1510429937       20.9819882041        5.8204644429  MEMB      60              0.0000000000
      7556        60  PMPE      H7Y           -29.8092672427       19.6652629729        6.8598871038  MEMB      60              0.0000000000
      7557        60  PMPE      C38           -28.0713174363       19.2034514044        5.5534454511  MEMB      60              0.0000000000
      7558        60  PMPE      H8X           -27.7596357571       18.2218632400        5.9701710387  MEMB      60              0.0000000000
      7559        60  PMPE      H8Y           -27.2760012080       19.7336043373        4.9871142434  MEMB      60              0.0000000000
      7560        60  PMPE      C39           -28.8953864437       18.8724152169        4.2900822566  MEMB      60              0.0000000000
      7561        60  PMPE      H9X           -29.3128283278       19.8493520200        3.9650314371  MEMB      60              0.0000000000
      7562        60  PMPE      H9Y           -29.7877173254       18.2448487979        4.5003841625  MEMB      60              0.0000000000
      7563        60  PMPE      C310          -28.0386644889       18.2458551851        3.2622599569  MEMB      60              0.0000000000
      7564        60  PMPE      H10X          -27.4162787744       17.4914569994        3.7893662422  MEMB      60              0.0000000000
      7565        60  PMPE      H10Y          -27.2716530651       18.9646915178        2.9026938590  MEMB      60              0.0000000000
      7566        60  PMPE      C311          -28.8133504932       17.5203512461        2.1863264578  MEMB      60              0.0000000000
      7567        60  PMPE      H11X          -29.1441745495       18.1935377483        1.3667556933  MEMB      60              0.0000000000
      7568        60  PMPE      H11Y          -29.6920696330       17.0471496638        2.6744406577  MEMB      60              0.0000000000
      7569        60  PMPE      C312          -27.9755809123       16.4209374831        1.4190348236  MEMB      60              0.0000000000
      7570        60  PMPE      H12X          -27.5486890124       15.6646351287        2.1119206952  MEMB      60              0.0000000000
      7571        60  PMPE      H12Y          -27.1329530891       16.8906272937        0.8679542505  MEMB      60              0.0000000000
      7572        60  PMPE      C313          -28.7753651687       15.5352106319        0.3149492071  MEMB      60              0.0000000000
      7573        60  PMPE      H13X          -29.2020373932       16.2203937681       -0.4484600180  MEMB      60              0.0000000000
      7574        60  PMPE      H13Y          -29.5756908363       14.9829058149        0.8523136738  MEMB      60              0.0000000000
      7575        60  PMPE      C314          -27.9328224632       14.4214630460       -0.4439654835  MEMB      60              0.0000000000
      7576        60  PMPE      H14X          -27.0294853303       14.8795890762       -0.9004998718  MEMB      60              0.0000000000
      7577        60  PMPE      H14Y          -28.5177111322       13.9619644103       -1.2692461266  MEMB      60              0.0000000000
      7578        60  PMPE      C315          -27.4963503239       13.2521630650        0.4891810405  MEMB      60              0.0000000000
      7579        60  PMPE      H15X          -26.8627439336       13.6515659327        1.3097544786  MEMB      60              0.0000000000
      7580        60  PMPE      H15Y          -26.7834037900       12.6917070714       -0.1526285201  MEMB      60              0.0000000000
      7581        60  PMPE      C316          -28.5219616531       12.2712326095        1.0095452155  MEMB      60              0.0000000000
      7582        60  PMPE      H16X          -29.3022924760       11.9828597649        0.2731721705  MEMB      60              0.0000000000
      7583        60  PMPE      H16Y          -29.0586814345       12.5279000433        1.9478291812  MEMB      60              0.0000000000
      7584        60  PMPE      H16Z          -27.9902703898       11.3541819300        1.3421765667  MEMB      60              0.0000000000
      7585        61  PMPE      N              37.1770906399       -4.8589544254       19.4735817634  MEMB      61              0.0000000000
      7586        61  PMPE      HN1            36.3463633819       -5.1755544334       20.0132640110  MEMB      61              0.0000000000
      7587        61  PMPE      HN2            37.1688868067       -5.3800666125       18.5735957943  MEMB      61              0.0000000000
      7588        61  PMPE      HN3            38.0624388385       -5.0136043189       19.9968806009  MEMB      61              0.0000000000
      7589        61  PMPE      C12            37.1098766781       -3.4140893430       19.0659857317  MEMB      61              0.0000000000
      7590        61  PMPE      H12A           37.9868731418       -3.3059854608       18.3925528945  MEMB      61              0.0000000000
      7591        61  PMPE      H12B           37.1784137199       -2.8168583034       20.0002976444  MEMB      61              0.0000000000
      7592        61  PMPE      C11            35.7273552092       -3.1284042832       18.3156601525  MEMB      61              0.0000000000
      7593        61  PMPE      H11A           35.5725779176       -3.7545792972       17.4110775076  MEMB      61              0.0000000000
      7594        61  PMPE      H11B           35.8205524155       -2.0619082027       18.0186392741  MEMB      61              0.0000000000
      7595        61  PMPE      P              33.3787880482       -2.2408571524       19.0738157308  MEMB      61              0.0000000000
      7596        61  PMPE      O13            33.9799267820       -0.9992281157       19.5973670573  MEMB      61              0.0000000000
      7597        61  PMPE      O14            32.1664452706       -2.7029619188       19.8228130999  MEMB      61              0.0000000000
      7598        61  PMPE      O11            32.9777420709       -2.1035706690       17.5417260055  MEMB      61              0.0000000000
      7599        61  PMPE      O12            34.5993129010       -3.2851154530       19.1090504609  MEMB      61              0.0000000000
      7600        61  PMPE      C1             32.7112465104       -3.3270765319       16.8288046465  MEMB      61              0.0000000000
      7601        61  PMPE      HA             31.9540345703       -3.9769896447       17.3172351944  MEMB      61              0.0000000000
      7602        61  PMPE      HB             33.6413431375       -3.9346403456       16.8184357197  MEMB      61              0.0000000000
      7603        61  PMPE      C2             32.2410397097       -3.1045006853       15.4244365127  MEMB      61              0.0000000000
      7604        61  PMPE      HS             32.1963915493       -4.0782730647       14.8914307606  MEMB      61              0.0000000000
      7605        61  PMPE      O21            33.0187290389       -2.0692434238       14.7735643194  MEMB      61              0.0000000000
      7606        61  PMPE      C21            34.3349643486       -2.4110676148       14.4827698789  MEMB      61              0.0000000000
      7607        61  PMPE      O22            34.7985754244       -3.4997123067       14.7072261583  MEMB      61              0.0000000000
      7608        61  PMPE      C22            35.0317018160       -1.1917984395       13.9759881390  MEMB      61              0.0000000000
      7609        61  PMPE      H2R            35.4185090551       -0.5187542387       14.7707914832  MEMB      61              0.0000000000
      7610        61  PMPE      H2S            34.2633434590       -0.5343958724       13.5158053487  MEMB      61              0.0000000000
      7611        61  PMPE      C3             30.7867951510       -2.5805750405       15.4416206394  MEMB      61              0.0000000000
      7612        61  PMPE      HX             30.7880848344       -1.7385037347       16.1663518243  MEMB      61              0.0000000000
      7613        61  PMPE      HY             30.0613812250       -3.2890700588       15.8956369600  MEMB      61              0.0000000000
      7614        61  PMPE      O31            30.4031194664       -2.1763157872       14.1519926773  MEMB      61              0.0000000000
      7615        61  PMPE      C31            29.9138883855       -3.0987238097       13.3193387064  MEMB      61              0.0000000000
      7616        61  PMPE      O32            29.7797495567       -4.2797134495       13.5409938988  MEMB      61              0.0000000000
      7617        61  PMPE      C32            29.7798793182       -2.3837882772       12.0064215010  MEMB      61              0.0000000000
      7618        61  PMPE      H2X            29.8279876310       -1.2960449168       12.2273759187  MEMB      61              0.0000000000
      7619        61  PMPE      H2Y            28.7452476824       -2.6034379527       11.6664033679  MEMB      61              0.0000000000
      7620        61  PMPE      C23            36.2476735354       -1.5870314068       13.1611596340  MEMB      61              0.0000000000
      7621        61  PMPE      H3R            37.0076926830       -2.0711568903       13.8110166992  MEMB      61              0.0000000000
      7622        61  PMPE      H3S            36.7487681820       -0.6713815156       12.7806202359  MEMB      61              0.0000000000
      7623        61  PMPE      C24            36.1582084906       -2.5658657481       11.9018238876  MEMB      61              0.0000000000
      7624        61  PMPE      H4R            35.2906667526       -2.3780060653       11.2336909885  MEMB      61              0.0000000000
      7625        61  PMPE      H4S            35.9623189260       -3.5545260299       12.3692624139  MEMB      61              0.0000000000
      7626        61  PMPE      C25            37.4205878233       -2.5865759343       10.9485577248  MEMB      61              0.0000000000
      7627        61  PMPE      H5R            38.1131626792       -3.3070832372       11.4338730723  MEMB      61              0.0000000000
      7628        61  PMPE      H5S            37.8042405393       -1.5564016008       10.7877080602  MEMB      61              0.0000000000
      7629        61  PMPE      C26            37.1087405021       -3.0693849632        9.5819710872  MEMB      61              0.0000000000
      7630        61  PMPE      H6R            36.4437384074       -2.3141177620        9.1111579885  MEMB      61              0.0000000000
      7631        61  PMPE      H6S            36.8413651154       -4.1477297376        9.5839683622  MEMB      61              0.0000000000
      7632        61  PMPE      C27            38.3080911484       -3.0900401971        8.5950313028  MEMB      61              0.0000000000
      7633        61  PMPE      H7R            38.9996637911       -3.9218234688        8.8483776889  MEMB      61              0.0000000000
      7634        61  PMPE      H7S            38.9409848751       -2.2111967705        8.8428232872  MEMB      61              0.0000000000
      7635        61  PMPE      C28            38.0929685768       -3.0549752375        7.0659287309  MEMB      61              0.0000000000
      7636        61  PMPE      H8R            39.1490941910       -3.3034682455        6.8268239723  MEMB      61              0.0000000000
      7637        61  PMPE      H8S            37.9034455420       -2.0018041818        6.7672099359  MEMB      61              0.0000000000
      7638        61  PMPE      C29            37.1473457214       -4.1924053611        6.5975803851  MEMB      61              0.0000000000
      7639        61  PMPE      H9R            36.1251521285       -3.9171207117        6.9347146255  MEMB      61              0.0000000000
      7640        61  PMPE      C217           37.6298704313       -5.5352607947        6.9354615631  MEMB      61              0.0000000000
      7641        61  PMPE      H17R           36.8647337658       -6.1552338097        7.3861140433  MEMB      61              0.0000000000
      7642        61  PMPE      H17S           38.6917358099       -5.6582056974        7.1092881951  MEMB      61              0.0000000000
      7643        61  PMPE      C210           37.3699008126       -5.1226214906        5.4277813014  MEMB      61              0.0000000000
      7644        61  PMPE      H10R           36.4664654275       -5.5925855146        4.9836415188  MEMB      61              0.0000000000
      7645        61  PMPE      C211           38.5200158468       -4.7224896743        4.5314880347  MEMB      61              0.0000000000
      7646        61  PMPE      H11R           38.5964105614       -5.5524700094        3.7969017803  MEMB      61              0.0000000000
      7647        61  PMPE      H11S           39.4767430329       -4.6365192918        5.0897024612  MEMB      61              0.0000000000
      7648        61  PMPE      C212           38.2290130809       -3.4039894586        3.7075660509  MEMB      61              0.0000000000
      7649        61  PMPE      H12R           39.2017472442       -2.8675630532        3.6886984111  MEMB      61              0.0000000000
      7650        61  PMPE      H12S           37.5362527974       -2.7040862308        4.2219001839  MEMB      61              0.0000000000
      7651        61  PMPE      C213           37.7206032035       -3.7400390378        2.3489197449  MEMB      61              0.0000000000
      7652        61  PMPE      H13R           36.6589735818       -4.0670849368        2.3663761094  MEMB      61              0.0000000000
      7653        61  PMPE      H13S           38.2934987205       -4.5834861799        1.9076612392  MEMB      61              0.0000000000
      7654        61  PMPE      C214           37.5730564257       -2.4651390315        1.4874972675  MEMB      61              0.0000000000
      7655        61  PMPE      H14R           38.4365506194       -1.7757682568        1.6035437853  MEMB      61              0.0000000000
      7656        61  PMPE      H14S           36.5941047008       -1.9884224499        1.7082147428  MEMB      61              0.0000000000
      7657        61  PMPE      C215           37.5967286070       -2.8987854068       -0.0296434528  MEMB      61              0.0000000000
      7658        61  PMPE      H15R           36.6332467876       -3.3996479571       -0.2645050010  MEMB      61              0.0000000000
      7659        61  PMPE      H15S           38.5067342225       -3.4268937397       -0.3864518861  MEMB      61              0.0000000000
      7660        61  PMPE      C216           37.5899722232       -1.6389182200       -0.9194375135  MEMB      61              0.0000000000
      7661        61  PMPE      H16R           38.4782494316       -1.0215551289       -0.6661628370  MEMB      61              0.0000000000
      7662        61  PMPE      H16S           37.6549845927       -1.8102098626       -2.0152261953  MEMB      61              0.0000000000
      7663        61  PMPE      H16T           36.6654786132       -1.0314917392       -0.8161646135  MEMB      61              0.0000000000
      7664        61  PMPE      C33            30.8874082505       -2.9532784891       11.1031440566  MEMB      61              0.0000000000
      7665        61  PMPE      H3X            30.6625337487       -2.6806847997       10.0498421433  MEMB      61              0.0000000000
      7666        61  PMPE      H3Y            30.8124023346       -4.0530101410       10.9642715943  MEMB      61              0.0000000000
      7667        61  PMPE      C34            32.3132214426       -2.4029321704       11.2341131173  MEMB      61              0.0000000000
      7668        61  PMPE      H4X            33.0442208482       -3.1713412868       10.9031929693  MEMB      61              0.0000000000
      7669        61  PMPE      H4Y            32.5254815509       -2.2803455322       12.3177364392  MEMB      61              0.0000000000
      7670        61  PMPE      C35            32.5147962686       -1.0852585217       10.6454050190  MEMB      61              0.0000000000
      7671        61  PMPE      H5X            33.2192058275       -0.3948073118       11.1566828397  MEMB      61              0.0000000000
      7672        61  PMPE      H5Y            31.6179673910       -0.4464191793       10.7934026615  MEMB      61              0.0000000000
      7673        61  PMPE      C36            32.9682420924       -1.2574479013        9.1812620357  MEMB      61              0.0000000000
      7674        61  PMPE      H6X            32.1550183677       -1.7344078980        8.5934710238  MEMB      61              0.0000000000
      7675        61  PMPE      H6Y            33.8587380144       -1.9153795474        9.0892613882  MEMB      61              0.0000000000
      7676        61  PMPE      C37            33.3796955120        0.1073806508        8.5514714656  MEMB      61              0.0000000000
      7677        61  PMPE      H7X            34.0811092251        0.6798237046        9.1954037112  MEMB      61              0.0000000000
      7678        61  PMPE      H7Y            32.4604324131        0.7272474531        8.4804658402  MEMB      61              0.0000000000
      7679        61  PMPE      C38            33.8986385125        0.1608515984        7.0432106788  MEMB      61              0.0000000000
      7680        61  PMPE      H8X            34.0213677296        1.2352069470        6.7882228594  MEMB      61              0.0000000000
      7681        61  PMPE      H8Y            33.1835848528       -0.3921331457        6.3972801525  MEMB      61              0.0000000000
      7682        61  PMPE      C39            35.2692108782       -0.5288637640        6.9134921201  MEMB      61              0.0000000000
      7683        61  PMPE      H9X            35.2348393427       -1.6361625934        6.9973302789  MEMB      61              0.0000000000
      7684        61  PMPE      H9Y            35.9619474614       -0.0921476182        7.6643020441  MEMB      61              0.0000000000
      7685        61  PMPE      C310           35.8717824702       -0.2494627461        5.5825198673  MEMB      61              0.0000000000
      7686        61  PMPE      H10X           36.8208471628       -0.8248749738        5.5325384537  MEMB      61              0.0000000000
      7687        61  PMPE      H10Y           36.0990056851        0.8236890552        5.4063479545  MEMB      61              0.0000000000
      7688        61  PMPE      C311           34.9908209642       -0.7926568556        4.3325544667  MEMB      61              0.0000000000
      7689        61  PMPE      H11X           35.6126349617       -0.4782354979        3.4672176553  MEMB      61              0.0000000000
      7690        61  PMPE      H11Y           34.0775063892       -0.1669336408        4.2395592994  MEMB      61              0.0000000000
      7691        61  PMPE      C312           34.6692189734       -2.3042322154        4.2909786422  MEMB      61              0.0000000000
      7692        61  PMPE      H12X           34.5375169477       -2.6373073699        5.3426612728  MEMB      61              0.0000000000
      7693        61  PMPE      H12Y           35.4740383037       -3.0026008911        3.9765461165  MEMB      61              0.0000000000
      7694        61  PMPE      C313           33.4452834090       -2.7613013345        3.4137738564  MEMB      61              0.0000000000
      7695        61  PMPE      H13X           32.5304645539       -2.4331631762        3.9520610667  MEMB      61              0.0000000000
      7696        61  PMPE      H13Y           33.5230559522       -3.8679742371        3.3542123602  MEMB      61              0.0000000000
      7697        61  PMPE      C314           33.3124010987       -2.0578844626        2.0652240387  MEMB      61              0.0000000000
      7698        61  PMPE      H14X           34.0314551883       -2.4550730689        1.3172106953  MEMB      61              0.0000000000
      7699        61  PMPE      H14Y           33.5592350993       -0.9769126163        2.1351801726  MEMB      61              0.0000000000
      7700        61  PMPE      C315           31.8788094488       -2.2467799904        1.5384410193  MEMB      61              0.0000000000
      7701        61  PMPE      H15X           31.6619339319       -1.4221509863        0.8262106057  MEMB      61              0.0000000000
      7702        61  PMPE      H15Y           31.0941995432       -2.1796839765        2.3221545403  MEMB      61              0.0000000000
      7703        61  PMPE      C316           31.6944941355       -3.5651062400        0.7669058254  MEMB      61              0.0000000000
      7704        61  PMPE      H16X           30.6459497315       -3.5828985740        0.4000819868  MEMB      61              0.0000000000
      7705        61  PMPE      H16Y           31.6933485180       -4.3876806565        1.5136926546  MEMB      61              0.0000000000
      7706        61  PMPE      H16Z           32.4367056510       -3.7646362598       -0.0353601634  MEMB      61              0.0000000000
      7707        62  PYPG      C13            13.5808868081      -31.6986125146       21.4697738068  MEMB      62              0.0000000000
      7708        62  PYPG      H13A           14.6480613726      -31.4561976562       21.6613317362  MEMB      62              0.0000000000
      7709        62  PYPG      H13B           13.1899183422      -30.7602520539       21.0215056109  MEMB      62              0.0000000000
      7710        62  PYPG      OC3            12.9731990322      -31.7852230707       22.7429722098  MEMB      62              0.0000000000
      7711        62  PYPG      HO3            12.0326843427      -31.6465434834       22.6095552863  MEMB      62              0.0000000000
      7712        62  PYPG      C12            13.5418323162      -32.8731421950       20.5403724575  MEMB      62              0.0000000000
      7713        62  PYPG      H12A           12.4986951450      -32.9568260546       20.1561317859  MEMB      62              0.0000000000
      7714        62  PYPG      OC2            13.8471690555      -34.0736223796       21.2514685776  MEMB      62              0.0000000000
      7715        62  PYPG      HO2            13.9266771318      -34.7407020398       20.5349491900  MEMB      62              0.0000000000
      7716        62  PYPG      C11            14.4827379340      -32.7844281628       19.2693954959  MEMB      62              0.0000000000
      7717        62  PYPG      H11A           14.3478866733      -33.8035261088       18.8479982729  MEMB      62              0.0000000000
      7718        62  PYPG      H11B           15.5248636296      -32.6275946758       19.6211032829  MEMB      62              0.0000000000
      7719        62  PYPG      P              14.5115239498      -31.9558357290       16.8472410644  MEMB      62              0.0000000000
      7720        62  PYPG      O13            15.9147985992      -32.3388503133       16.6641473089  MEMB      62              0.0000000000
      7721        62  PYPG      O14            14.0317301434      -30.7449040167       16.1469462807  MEMB      62              0.0000000000
      7722        62  PYPG      O11            13.5174869718      -33.1482744580       16.6601643470  MEMB      62              0.0000000000
      7723        62  PYPG      O12            14.1674812322      -31.6905290984       18.4075184474  MEMB      62              0.0000000000
      7724        62  PYPG      C1             12.2856220657      -33.0878300847       15.9822281625  MEMB      62              0.0000000000
      7725        62  PYPG      HA             11.8782363233      -32.0552929089       15.9350605245  MEMB      62              0.0000000000
      7726        62  PYPG      HB             11.6016840225      -33.7198610785       16.5881049792  MEMB      62              0.0000000000
      7727        62  PYPG      C2             12.4346891581      -33.7327146481       14.5446786970  MEMB      62              0.0000000000
      7728        62  PYPG      HS             11.5016772558      -34.3348358970       14.5091830874  MEMB      62              0.0000000000
      7729        62  PYPG      O21            13.6562860407      -34.4077398398       14.6061165843  MEMB      62              0.0000000000
      7730        62  PYPG      C21            13.8602471758      -35.5399254325       13.8660886972  MEMB      62              0.0000000000
      7731        62  PYPG      O22            12.9978998649      -36.1707009264       13.2983772721  MEMB      62              0.0000000000
      7732        62  PYPG      C22            15.3645408427      -35.8403982962       13.8015531616  MEMB      62              0.0000000000
      7733        62  PYPG      H2R            15.8473377774      -35.9809501900       14.7922462602  MEMB      62              0.0000000000
      7734        62  PYPG      H2S            15.7845680959      -34.8754942845       13.4453812058  MEMB      62              0.0000000000
      7735        62  PYPG      C3             12.4397818915      -32.7460210935       13.3325631917  MEMB      62              0.0000000000
      7736        62  PYPG      HX             11.5553181563      -32.0787823576       13.4152506423  MEMB      62              0.0000000000
      7737        62  PYPG      HY             12.3468604857      -33.4583096679       12.4850188210  MEMB      62              0.0000000000
      7738        62  PYPG      O31            13.6372091649      -32.0202490437       13.1975271672  MEMB      62              0.0000000000
      7739        62  PYPG      C31            13.5644170990      -31.0719171719       12.2137831237  MEMB      62              0.0000000000
      7740        62  PYPG      O32            12.5662907736      -30.8594372259       11.5598830624  MEMB      62              0.0000000000
      7741        62  PYPG      C32            14.7607191883      -30.1680228335       12.2391182355  MEMB      62              0.0000000000
      7742        62  PYPG      H2X            14.5121365163      -29.1190368203       12.5077373168  MEMB      62              0.0000000000
      7743        62  PYPG      H2Y            15.5808055014      -30.5501008012       12.8839407794  MEMB      62              0.0000000000
      7744        62  PYPG      C23            15.6679155132      -36.9677152127       12.7933526688  MEMB      62              0.0000000000
      7745        62  PYPG      H3R            15.0180215160      -36.8423927481       11.9010228510  MEMB      62              0.0000000000
      7746        62  PYPG      H3S            15.4296534483      -37.9913604778       13.1534952280  MEMB      62              0.0000000000
      7747        62  PYPG      C24            17.0576789822      -36.8581833542       12.2017050622  MEMB      62              0.0000000000
      7748        62  PYPG      H4R            17.7762687878      -37.3217779981       12.9109509525  MEMB      62              0.0000000000
      7749        62  PYPG      H4S            17.3396916721      -35.7865429339       12.1218493612  MEMB      62              0.0000000000
      7750        62  PYPG      C25            17.2364432161      -37.4429128468       10.8761919463  MEMB      62              0.0000000000
      7751        62  PYPG      H5R            16.7908071441      -38.4581664527       10.9468303181  MEMB      62              0.0000000000
      7752        62  PYPG      H5S            18.2365802104      -37.7139229803       10.4754408845  MEMB      62              0.0000000000
      7753        62  PYPG      C26            16.5970006914      -36.5606609381        9.7246703272  MEMB      62              0.0000000000
      7754        62  PYPG      H6R            17.2047455135      -35.6634239142        9.4798591985  MEMB      62              0.0000000000
      7755        62  PYPG      H6S            15.5915023996      -36.2507309599       10.0813737917  MEMB      62              0.0000000000
      7756        62  PYPG      C27            16.5486494089      -37.2118964102        8.3439400155  MEMB      62              0.0000000000
      7757        62  PYPG      H7R            15.8441389623      -38.0707495611        8.3250472262  MEMB      62              0.0000000000
      7758        62  PYPG      H7S            17.5727761594      -37.6151464158        8.1926958536  MEMB      62              0.0000000000
      7759        62  PYPG      C28            16.1849380681      -36.2370093983        7.1739722082  MEMB      62              0.0000000000
      7760        62  PYPG      H8R            16.3598221908      -36.7512849704        6.2048190800  MEMB      62              0.0000000000
      7761        62  PYPG      H8S            16.9889533759      -35.4706576404        7.1497766934  MEMB      62              0.0000000000
      7762        62  PYPG      C29            14.7350708791      -35.8550851327        7.4011904849  MEMB      62              0.0000000000
      7763        62  PYPG      H9R            14.2329010383      -36.2094364232        8.3134736404  MEMB      62              0.0000000000
      7764        62  PYPG      C210           14.0819321806      -34.8820931409        6.6485155075  MEMB      62              0.0000000000
      7765        62  PYPG      H10R           12.9896916494      -34.8099795069        6.7571902884  MEMB      62              0.0000000000
      7766        62  PYPG      C211           14.5890175766      -34.0270324939        5.4889431775  MEMB      62              0.0000000000
      7767        62  PYPG      H11R           15.6935402269      -33.9102531914        5.5156524598  MEMB      62              0.0000000000
      7768        62  PYPG      H11S           14.1823576043      -32.9937108629        5.5235149978  MEMB      62              0.0000000000
      7769        62  PYPG      C212           14.3138250826      -34.7411348275        4.1670432292  MEMB      62              0.0000000000
      7770        62  PYPG      H12R           14.8000471673      -35.7400255525        4.1782843430  MEMB      62              0.0000000000
      7771        62  PYPG      H12S           14.8435737318      -34.2463004989        3.3251254456  MEMB      62              0.0000000000
      7772        62  PYPG      C213           12.8210084511      -34.9783752391        3.8503748421  MEMB      62              0.0000000000
      7773        62  PYPG      H13R           12.2522513044      -34.0792203786        4.1703062040  MEMB      62              0.0000000000
      7774        62  PYPG      H13S           12.3399481782      -35.7437066003        4.4962609018  MEMB      62              0.0000000000
      7775        62  PYPG      C214           12.7703346516      -35.3675966788        2.3451799793  MEMB      62              0.0000000000
      7776        62  PYPG      H14R           13.5756207452      -36.0781631251        2.0606972533  MEMB      62              0.0000000000
      7777        62  PYPG      H14S           11.8336274453      -35.9495355862        2.2100948166  MEMB      62              0.0000000000
      7778        62  PYPG      C215           12.7542487766      -34.1227604543        1.4629925610  MEMB      62              0.0000000000
      7779        62  PYPG      H15R           12.9805269436      -33.2678577165        2.1354963498  MEMB      62              0.0000000000
      7780        62  PYPG      H15S           11.8209851093      -33.9614963652        0.8821891093  MEMB      62              0.0000000000
      7781        62  PYPG      C216           13.9401607275      -34.1343183907        0.4734259778  MEMB      62              0.0000000000
      7782        62  PYPG      H16R           14.1168220114      -33.1832531404       -0.0730048381  MEMB      62              0.0000000000
      7783        62  PYPG      H16S           13.9419580275      -35.0361132554       -0.1754825788  MEMB      62              0.0000000000
      7784        62  PYPG      H16T           14.9021025638      -34.1880999525        1.0266863012  MEMB      62              0.0000000000
      7785        62  PYPG      C33            15.5287748203      -30.2806458777       10.8590558996  MEMB      62              0.0000000000
      7786        62  PYPG      H3X            16.1990903475      -29.4125185412       10.6819877695  MEMB      62              0.0000000000
      7787        62  PYPG      H3Y            14.8267295973      -30.3136226086        9.9986108205  MEMB      62              0.0000000000
      7788        62  PYPG      C34            16.3687670865      -31.5377573221       10.8650070794  MEMB      62              0.0000000000
      7789        62  PYPG      H4X            15.6665268027      -32.3874075435       11.0038387247  MEMB      62              0.0000000000
      7790        62  PYPG      H4Y            17.0522019403      -31.7182874347       11.7221226855  MEMB      62              0.0000000000
      7791        62  PYPG      C35            17.1731522760      -31.9173836526        9.6055925355  MEMB      62              0.0000000000
      7792        62  PYPG      H5X            16.6348085863      -31.5283693493        8.7149885503  MEMB      62              0.0000000000
      7793        62  PYPG      H5Y            17.2526955635      -33.0220575474        9.5179032633  MEMB      62              0.0000000000
      7794        62  PYPG      C36            18.4734301736      -31.1811364677        9.5421101116  MEMB      62              0.0000000000
      7795        62  PYPG      H6X            18.9049354786      -31.5537150598       10.4956874633  MEMB      62              0.0000000000
      7796        62  PYPG      H6Y            18.4015774537      -30.0725718436        9.5265302525  MEMB      62              0.0000000000
      7797        62  PYPG      C37            19.5365894750      -31.5173810845        8.4411101654  MEMB      62              0.0000000000
      7798        62  PYPG      H7X            20.4864748778      -31.1289266884        8.8667179764  MEMB      62              0.0000000000
      7799        62  PYPG      H7Y            19.4535104601      -32.6250773605        8.4204250812  MEMB      62              0.0000000000
      7800        62  PYPG      C38            19.4417872891      -31.0229697977        6.9864024140  MEMB      62              0.0000000000
      7801        62  PYPG      H8X            20.1700551910      -31.6074894544        6.3845028095  MEMB      62              0.0000000000
      7802        62  PYPG      H8Y            19.6675700612      -29.9375460284        6.9143009839  MEMB      62              0.0000000000
      7803        62  PYPG      C39            18.0751950906      -31.3288954592        6.2791250399  MEMB      62              0.0000000000
      7804        62  PYPG      H9X            17.3512465781      -30.5519472588        6.6055767171  MEMB      62              0.0000000000
      7805        62  PYPG      H9Y            17.7088672671      -32.3119671714        6.6447676146  MEMB      62              0.0000000000
      7806        62  PYPG      C310           18.3086139225      -31.2846545477        4.8006149143  MEMB      62              0.0000000000
      7807        62  PYPG      H10X           19.3768285135      -31.4977503763        4.5819153537  MEMB      62              0.0000000000
      7808        62  PYPG      H10Y           18.2233697684      -30.1961266300        4.5952826445  MEMB      62              0.0000000000
      7809        62  PYPG      C311           17.3338905319      -32.1425864758        4.0130809799  MEMB      62              0.0000000000
      7810        62  PYPG      H11X           16.3491571499      -31.9062248999        4.4699782664  MEMB      62              0.0000000000
      7811        62  PYPG      H11Y           17.5078818052      -33.2109964113        4.2631779045  MEMB      62              0.0000000000
      7812        62  PYPG      C312           17.3174251512      -32.0683186538        2.4627607635  MEMB      62              0.0000000000
      7813        62  PYPG      H12X           16.3779567119      -32.5445513011        2.1093165291  MEMB      62              0.0000000000
      7814        62  PYPG      H12Y           17.4283553203      -31.0605681846        2.0083872011  MEMB      62              0.0000000000
      7815        62  PYPG      C313           18.5687340270      -32.9289252397        2.0335799006  MEMB      62              0.0000000000
      7816        62  PYPG      H13X           19.4868782383      -32.4817802759        2.4710666981  MEMB      62              0.0000000000
      7817        62  PYPG      H13Y           18.3530358137      -33.9558768273        2.3984996763  MEMB      62              0.0000000000
      7818        62  PYPG      C314           18.7958051315      -33.0453342087        0.4880421809  MEMB      62              0.0000000000
      7819        62  PYPG      H14X           19.0747103570      -32.0183381850        0.1689636293  MEMB      62              0.0000000000
      7820        62  PYPG      H14Y           19.7233026733      -33.6314710534        0.3133638646  MEMB      62              0.0000000000
      7821        62  PYPG      C315           17.7193551973      -33.7143415837       -0.3308028685  MEMB      62              0.0000000000
      7822        62  PYPG      H15X           17.7314923117      -34.6468731940        0.2729842739  MEMB      62              0.0000000000
      7823        62  PYPG      H15Y           16.6753363638      -33.3357829667       -0.3630323183  MEMB      62              0.0000000000
      7824        62  PYPG      C316           18.1320181840      -34.0662471241       -1.7486064625  MEMB      62              0.0000000000
      7825        62  PYPG      H16X           17.3285959770      -34.6585501410       -2.2364699503  MEMB      62              0.0000000000
      7826        62  PYPG      H16Y           19.0302964307      -34.7172038326       -1.6880078190  MEMB      62              0.0000000000
      7827        62  PYPG      H16Z           18.3275326385      -33.1413140765       -2.3322106433  MEMB      62              0.0000000000
      7828        63  PYPG      C13            28.9992545069      -15.9825869049       19.8243997689  MEMB      63              0.0000000000
      7829        63  PYPG      H13A           29.3451244383      -14.9850851139       20.1703549803  MEMB      63              0.0000000000
      7830        63  PYPG      H13B           29.2724931831      -15.9418063237       18.7482963158  MEMB      63              0.0000000000
      7831        63  PYPG      OC3            27.5599113413      -15.9291241476       20.0836443646  MEMB      63              0.0000000000
      7832        63  PYPG      HO3            27.4642186939      -15.0545336391       20.4677460854  MEMB      63              0.0000000000
      7833        63  PYPG      C12            29.6421363930      -17.1801337828       20.4928309154  MEMB      63              0.0000000000
      7834        63  PYPG      H12A           29.1860533093      -17.2786889959       21.5052804849  MEMB      63              0.0000000000
      7835        63  PYPG      OC2            31.0429150779      -16.9569671073       20.6603319629  MEMB      63              0.0000000000
      7836        63  PYPG      HO2            31.3705397979      -17.8302850823       20.9680568355  MEMB      63              0.0000000000
      7837        63  PYPG      C11            29.3571868933      -18.4473561258       19.6837688718  MEMB      63              0.0000000000
      7838        63  PYPG      H11A           28.2858859367      -18.4110219336       19.3916814430  MEMB      63              0.0000000000
      7839        63  PYPG      H11B           29.5106962885      -19.3970625856       20.2394787719  MEMB      63              0.0000000000
      7840        63  PYPG      P              30.8609071508      -19.8011095916       17.8209556795  MEMB      63              0.0000000000
      7841        63  PYPG      O13            32.1743716031      -20.0113002514       18.4222055488  MEMB      63              0.0000000000
      7842        63  PYPG      O14            30.7918933414      -19.5881835450       16.3528218507  MEMB      63              0.0000000000
      7843        63  PYPG      O11            29.8189511361      -20.9170121462       18.2133858364  MEMB      63              0.0000000000
      7844        63  PYPG      O12            30.1966595524      -18.4710744290       18.4456551800  MEMB      63              0.0000000000
      7845        63  PYPG      C1             28.4655189979      -20.9061940797       17.8543941958  MEMB      63              0.0000000000
      7846        63  PYPG      HA             28.1299603909      -20.1053135225       17.1613487855  MEMB      63              0.0000000000
      7847        63  PYPG      HB             27.8939170059      -20.8146536885       18.8026623916  MEMB      63              0.0000000000
      7848        63  PYPG      C2             27.9876401603      -22.2082884136       17.1602558737  MEMB      63              0.0000000000
      7849        63  PYPG      HS             27.9843253980      -22.9987617983       17.9409361363  MEMB      63              0.0000000000
      7850        63  PYPG      O21            28.7969104054      -22.5692428524       16.0155479094  MEMB      63              0.0000000000
      7851        63  PYPG      C21            29.9769666091      -23.1184783874       16.2139415628  MEMB      63              0.0000000000
      7852        63  PYPG      O22            30.5851280917      -23.2642474178       17.2942159165  MEMB      63              0.0000000000
      7853        63  PYPG      C22            30.4662059585      -23.5832666058       14.8363726398  MEMB      63              0.0000000000
      7854        63  PYPG      H2R            29.8429537967      -24.4593768775       14.5565360719  MEMB      63              0.0000000000
      7855        63  PYPG      H2S            31.5412134164      -23.8381088257       14.9535702327  MEMB      63              0.0000000000
      7856        63  PYPG      C3             26.5299243920      -22.0714575682       16.6356025496  MEMB      63              0.0000000000
      7857        63  PYPG      HX             25.8770029343      -21.9440175820       17.5254192082  MEMB      63              0.0000000000
      7858        63  PYPG      HY             26.1773884824      -22.9495651850       16.0533944308  MEMB      63              0.0000000000
      7859        63  PYPG      O31            26.3005357663      -20.8063564935       15.9229574720  MEMB      63              0.0000000000
      7860        63  PYPG      C31            26.4293424846      -20.8378284576       14.6171134402  MEMB      63              0.0000000000
      7861        63  PYPG      O32            26.1739641020      -21.7841858141       13.9412169978  MEMB      63              0.0000000000
      7862        63  PYPG      C32            26.8077610446      -19.4367235989       14.0597111694  MEMB      63              0.0000000000
      7863        63  PYPG      H2X            25.9298561497      -19.1458750088       13.4440725325  MEMB      63              0.0000000000
      7864        63  PYPG      H2Y            26.7471574822      -18.7446483561       14.9267063148  MEMB      63              0.0000000000
      7865        63  PYPG      C23            30.3095763599      -22.5842497128       13.7319530280  MEMB      63              0.0000000000
      7866        63  PYPG      H3R            30.4694033581      -21.5426621187       14.0839073023  MEMB      63              0.0000000000
      7867        63  PYPG      H3S            29.2270862162      -22.6063099691       13.4828560091  MEMB      63              0.0000000000
      7868        63  PYPG      C24            31.2956641626      -22.8294272589       12.6140827008  MEMB      63              0.0000000000
      7869        63  PYPG      H4R            32.3126034445      -23.1112591015       12.9615399078  MEMB      63              0.0000000000
      7870        63  PYPG      H4S            31.4738854351      -21.7732454010       12.3190603442  MEMB      63              0.0000000000
      7871        63  PYPG      C25            30.6786095075      -23.8460271155       11.5967948991  MEMB      63              0.0000000000
      7872        63  PYPG      H5R            30.2281755151      -24.6164563159       12.2585118350  MEMB      63              0.0000000000
      7873        63  PYPG      H5S            31.5245297569      -24.2724155673       11.0163363904  MEMB      63              0.0000000000
      7874        63  PYPG      C26            29.5825904459      -23.1452433774       10.6799983147  MEMB      63              0.0000000000
      7875        63  PYPG      H6R            29.0429202440      -22.4032020596       11.3064578161  MEMB      63              0.0000000000
      7876        63  PYPG      H6S            28.7878061147      -23.8853737076       10.4458053636  MEMB      63              0.0000000000
      7877        63  PYPG      C27            30.1417167893      -22.5637424022        9.3354663038  MEMB      63              0.0000000000
      7878        63  PYPG      H7R            30.3329324238      -23.4976350341        8.7648505413  MEMB      63              0.0000000000
      7879        63  PYPG      H7S            31.0936175626      -21.9909559971        9.3464985486  MEMB      63              0.0000000000
      7880        63  PYPG      C28            29.0439535060      -21.7970731928        8.6426532375  MEMB      63              0.0000000000
      7881        63  PYPG      H8R            29.4509092883      -20.7889572357        8.4137203427  MEMB      63              0.0000000000
      7882        63  PYPG      H8S            28.2799489836      -21.5668542490        9.4157105591  MEMB      63              0.0000000000
      7883        63  PYPG      C29            28.3244430625      -22.4243938172        7.5360076872  MEMB      63              0.0000000000
      7884        63  PYPG      H9R            27.3215801619      -22.7843656034        7.8092955054  MEMB      63              0.0000000000
      7885        63  PYPG      C210           28.8453665433      -22.6445930886        6.3285898565  MEMB      63              0.0000000000
      7886        63  PYPG      H10R           28.1888188983      -23.1279848165        5.5901609184  MEMB      63              0.0000000000
      7887        63  PYPG      C211           30.2031329850      -22.3245309196        5.7472188662  MEMB      63              0.0000000000
      7888        63  PYPG      H11R           30.9974519079      -22.7618957732        6.3891616601  MEMB      63              0.0000000000
      7889        63  PYPG      H11S           30.3925659726      -21.2298038731        5.7501750271  MEMB      63              0.0000000000
      7890        63  PYPG      C212           30.4146050144      -22.8006266658        4.2710907596  MEMB      63              0.0000000000
      7891        63  PYPG      H12R           30.3255709434      -23.9053898700        4.1943304895  MEMB      63              0.0000000000
      7892        63  PYPG      H12S           31.4383927175      -22.4873497183        3.9743796391  MEMB      63              0.0000000000
      7893        63  PYPG      C213           29.3135566725      -22.3303380427        3.2340559692  MEMB      63              0.0000000000
      7894        63  PYPG      H13R           28.3316791689      -22.6459010361        3.6471636390  MEMB      63              0.0000000000
      7895        63  PYPG      H13S           29.3770834666      -22.9235494368        2.2968342291  MEMB      63              0.0000000000
      7896        63  PYPG      C214           29.2399962592      -20.7860679317        2.9777991605  MEMB      63              0.0000000000
      7897        63  PYPG      H14R           28.9754873380      -20.2384297778        3.9075556820  MEMB      63              0.0000000000
      7898        63  PYPG      H14S           30.2500814803      -20.4072155706        2.7122438532  MEMB      63              0.0000000000
      7899        63  PYPG      C215           28.2747178670      -20.4526927521        1.8194035691  MEMB      63              0.0000000000
      7900        63  PYPG      H15R           28.4906006929      -21.1543824777        0.9855284982  MEMB      63              0.0000000000
      7901        63  PYPG      H15S           28.4933825610      -19.4514298117        1.3904757541  MEMB      63              0.0000000000
      7902        63  PYPG      C216           26.7354445790      -20.3841945192        2.0348711691  MEMB      63              0.0000000000
      7903        63  PYPG      H16R           26.2685248479      -20.1102508578        1.0646840546  MEMB      63              0.0000000000
      7904        63  PYPG      H16S           26.4667503240      -19.5689556835        2.7402137478  MEMB      63              0.0000000000
      7905        63  PYPG      H16T           26.3120030289      -21.3081743281        2.4835131082  MEMB      63              0.0000000000
      7906        63  PYPG      C33            28.1005515719      -19.4001632839       13.2936557574  MEMB      63              0.0000000000
      7907        63  PYPG      H3X            28.1970728508      -20.3203718546       12.6786591498  MEMB      63              0.0000000000
      7908        63  PYPG      H3Y            29.0198936149      -19.4426212906       13.9160127889  MEMB      63              0.0000000000
      7909        63  PYPG      C34            28.3586726899      -18.0797661349       12.4833411477  MEMB      63              0.0000000000
      7910        63  PYPG      H4X            28.3463238391      -17.2293778859       13.1981899922  MEMB      63              0.0000000000
      7911        63  PYPG      H4Y            27.4591569889      -17.8763106807       11.8638266839  MEMB      63              0.0000000000
      7912        63  PYPG      C35            29.5336986267      -18.2121815469       11.4711479345  MEMB      63              0.0000000000
      7913        63  PYPG      H5X            29.3465372836      -17.3994312849       10.7371667526  MEMB      63              0.0000000000
      7914        63  PYPG      H5Y            29.3918322525      -19.2021168072       10.9871818553  MEMB      63              0.0000000000
      7915        63  PYPG      C36            30.8927903255      -17.9906202614       12.0455911001  MEMB      63              0.0000000000
      7916        63  PYPG      H6X            30.9972824825      -18.6685593405       12.9195485515  MEMB      63              0.0000000000
      7917        63  PYPG      H6Y            30.8788108820      -16.9046261758       12.2795628504  MEMB      63              0.0000000000
      7918        63  PYPG      C37            31.9257244426      -18.4246475204       11.0042210805  MEMB      63              0.0000000000
      7919        63  PYPG      H7X            32.8940121568      -18.0203615441       11.3693140359  MEMB      63              0.0000000000
      7920        63  PYPG      H7Y            32.1456976621      -19.5050240193       10.8674022789  MEMB      63              0.0000000000
      7921        63  PYPG      C38            31.7374119853      -17.9704544080        9.5312005118  MEMB      63              0.0000000000
      7922        63  PYPG      H8X            31.4197514756      -16.9072200915        9.4769315058  MEMB      63              0.0000000000
      7923        63  PYPG      H8Y            30.9132193076      -18.5840389600        9.1086585047  MEMB      63              0.0000000000
      7924        63  PYPG      C39            33.0115244619      -18.0748268701        8.7791852621  MEMB      63              0.0000000000
      7925        63  PYPG      H9X            33.1501977199      -19.1765280140        8.8158623523  MEMB      63              0.0000000000
      7926        63  PYPG      H9Y            33.8653758424      -17.5916670256        9.3005443070  MEMB      63              0.0000000000
      7927        63  PYPG      C310           33.0361968059      -17.5256995618        7.3301830639  MEMB      63              0.0000000000
      7928        63  PYPG      H10X           33.2187278370      -16.4559165515        7.5680244180  MEMB      63              0.0000000000
      7929        63  PYPG      H10Y           32.0553102509      -17.6127258470        6.8157810839  MEMB      63              0.0000000000
      7930        63  PYPG      C311           33.9165050979      -18.2114804785        6.2986745141  MEMB      63              0.0000000000
      7931        63  PYPG      H11X           34.9903702694      -18.3435019332        6.5510726571  MEMB      63              0.0000000000
      7932        63  PYPG      H11Y           33.9596817346      -17.5646445532        5.3964221328  MEMB      63              0.0000000000
      7933        63  PYPG      C312           33.5197267995      -19.5938419141        5.6701651555  MEMB      63              0.0000000000
      7934        63  PYPG      H12X           33.2930203409      -20.3755049164        6.4264244873  MEMB      63              0.0000000000
      7935        63  PYPG      H12Y           32.6151544384      -19.5063679124        5.0310892690  MEMB      63              0.0000000000
      7936        63  PYPG      C313           34.7356757378      -20.1074995351        4.8600758274  MEMB      63              0.0000000000
      7937        63  PYPG      H13X           34.9419738909      -19.3428564381        4.0809200602  MEMB      63              0.0000000000
      7938        63  PYPG      H13Y           35.6020056694      -20.1582238376        5.5537761383  MEMB      63              0.0000000000
      7939        63  PYPG      C314           34.5062760718      -21.4841931060        4.1725461588  MEMB      63              0.0000000000
      7940        63  PYPG      H14X           34.5271167755      -22.3092821614        4.9162627764  MEMB      63              0.0000000000
      7941        63  PYPG      H14Y           33.4692046553      -21.4279477085        3.7780340422  MEMB      63              0.0000000000
      7942        63  PYPG      C315           35.4085520431      -21.7597889728        3.0669655383  MEMB      63              0.0000000000
      7943        63  PYPG      H15X           35.7986879463      -20.8179026510        2.6254166644  MEMB      63              0.0000000000
      7944        63  PYPG      H15Y           36.3370316983      -22.3135223301        3.3231421114  MEMB      63              0.0000000000
      7945        63  PYPG      C316           34.6931487263      -22.5158349793        1.8608632925  MEMB      63              0.0000000000
      7946        63  PYPG      H16X           33.8740464124      -21.8800966174        1.4618274959  MEMB      63              0.0000000000
      7947        63  PYPG      H16Y           34.2350645919      -23.4903662430        2.1343020726  MEMB      63              0.0000000000
      7948        63  PYPG      H16Z           35.3719397658      -22.7252039236        1.0066229418  MEMB      63              0.0000000000
      7949        64  QMPE      N             -32.3081308120       11.1187816892       20.7205080881  MEMB      64              0.0000000000
      7950        64  QMPE      HN1           -31.8787972333       10.1722862050       20.7581784805  MEMB      64              0.0000000000
      7951        64  QMPE      HN2           -31.6497979713       11.9088964938       20.8751559872  MEMB      64              0.0000000000
      7952        64  QMPE      HN3           -33.0907657598       11.2629646930       21.3900557225  MEMB      64              0.0000000000
      7953        64  QMPE      C12           -32.9781297822       11.1517697986       19.3385660183  MEMB      64              0.0000000000
      7954        64  QMPE      H12A          -32.3779183440       10.5796250424       18.5991624617  MEMB      64              0.0000000000
      7955        64  QMPE      H12B          -33.1298779567       12.2059208476       19.0222443636  MEMB      64              0.0000000000
      7956        64  QMPE      C11           -34.4638831805       10.5553932830       19.2782810221  MEMB      64              0.0000000000
      7957        64  QMPE      H11A          -34.8918313184       10.7939761050       18.2811553311  MEMB      64              0.0000000000
      7958        64  QMPE      H11B          -35.1707376197       11.0737373229       19.9609209559  MEMB      64              0.0000000000
      7959        64  QMPE      P             -34.7090625046        8.0904708681       18.5254805868  MEMB      64              0.0000000000
      7960        64  QMPE      O13           -36.1410642025        8.0918668236       18.1706688445  MEMB      64              0.0000000000
      7961        64  QMPE      O14           -34.0500951841        6.8568510419       19.0583059144  MEMB      64              0.0000000000
      7962        64  QMPE      O11           -33.9202025532        8.6112637464       17.2820259694  MEMB      64              0.0000000000
      7963        64  QMPE      O12           -34.4517949824        9.1816329082       19.6261635538  MEMB      64              0.0000000000
      7964        64  QMPE      C1            -33.0351180120        7.6924116593       16.5978772188  MEMB      64              0.0000000000
      7965        64  QMPE      HA            -33.2281848607        6.6333699356       16.8726072455  MEMB      64              0.0000000000
      7966        64  QMPE      HB            -32.0391078503        7.8937669142       17.0470328359  MEMB      64              0.0000000000
      7967        64  QMPE      C2            -33.0339487569        7.8262545758       15.0562491029  MEMB      64              0.0000000000
      7968        64  QMPE      HS            -32.3929526594        6.9922000487       14.6987606126  MEMB      64              0.0000000000
      7969        64  QMPE      O21           -32.6789446329        9.0982056313       14.5838900801  MEMB      64              0.0000000000
      7970        64  QMPE      C21           -31.4324882359        9.5550478345       14.8614654451  MEMB      64              0.0000000000
      7971        64  QMPE      O22           -30.5855215350        9.0013094231       15.4993501119  MEMB      64              0.0000000000
      7972        64  QMPE      C22           -31.1390965693       10.8535098578       14.1448280313  MEMB      64              0.0000000000
      7973        64  QMPE      H2R           -30.6574076121       11.4942800345       14.9140551803  MEMB      64              0.0000000000
      7974        64  QMPE      H2S           -32.1404948192       11.3344864870       14.1583939111  MEMB      64              0.0000000000
      7975        64  QMPE      C3            -34.4937920355        7.4866425525       14.5680777672  MEMB      64              0.0000000000
      7976        64  QMPE      HX            -35.1117844570        8.2209255296       15.1277517724  MEMB      64              0.0000000000
      7977        64  QMPE      HY            -34.8652748688        6.4792558497       14.8535483198  MEMB      64              0.0000000000
      7978        64  QMPE      O31           -34.7533135768        7.6944467012       13.1361392364  MEMB      64              0.0000000000
      7979        64  QMPE      C31           -34.2459454906        6.7488382478       12.3979738781  MEMB      64              0.0000000000
      7980        64  QMPE      O32           -33.6706337483        5.7746876072       12.8381496419  MEMB      64              0.0000000000
      7981        64  QMPE      C32           -34.4851665682        7.0119294318       10.9500847541  MEMB      64              0.0000000000
      7982        64  QMPE      H2X           -35.2843318253        7.7825623150       10.9922857972  MEMB      64              0.0000000000
      7983        64  QMPE      H2Y           -33.5604664273        7.2406566661       10.3783024438  MEMB      64              0.0000000000
      7984        64  QMPE      C23           -30.4767616752       10.5630253685       12.7551920216  MEMB      64              0.0000000000
      7985        64  QMPE      H3R           -29.7242747134        9.7550026611       12.8784133454  MEMB      64              0.0000000000
      7986        64  QMPE      H3S           -29.8508723977       11.4380639093       12.4778994029  MEMB      64              0.0000000000
      7987        64  QMPE      C24           -31.4246806375       10.2807993781       11.5885413445  MEMB      64              0.0000000000
      7988        64  QMPE      H4R           -31.9087931306        9.3294679076       11.8966400968  MEMB      64              0.0000000000
      7989        64  QMPE      H4S           -30.8518836049       10.0461737237       10.6659495164  MEMB      64              0.0000000000
      7990        64  QMPE      C25           -32.4873905877       11.2528205386       11.2614913015  MEMB      64              0.0000000000
      7991        64  QMPE      H5R           -32.0593754344       12.2774136091       11.2249780833  MEMB      64              0.0000000000
      7992        64  QMPE      H5S           -33.2300480656       11.3004844029       12.0864210225  MEMB      64              0.0000000000
      7993        64  QMPE      C26           -33.0010497940       11.0045519916        9.8858058437  MEMB      64              0.0000000000
      7994        64  QMPE      H6R           -34.0908278755       11.2205827077        9.8798820066  MEMB      64              0.0000000000
      7995        64  QMPE      H6S           -33.1147145142        9.9105551050        9.7290509380  MEMB      64              0.0000000000
      7996        64  QMPE      C27           -32.3084232982       11.6730763605        8.7731666417  MEMB      64              0.0000000000
      7997        64  QMPE      H7R           -32.5447004854       11.1000737236        7.8511238140  MEMB      64              0.0000000000
      7998        64  QMPE      H7S           -31.2100169198       11.6977392479        8.9381398177  MEMB      64              0.0000000000
      7999        64  QMPE      C28           -32.7490459389       13.0971902562        8.5394779589  MEMB      64              0.0000000000
      8000        64  QMPE      H8R           -32.4008223354       13.7980940864        9.3280180063  MEMB      64              0.0000000000
      8001        64  QMPE      H8S           -33.8521676746       13.2050171613        8.6157477687  MEMB      64              0.0000000000
      8002        64  QMPE      C29           -32.3302932909       13.6566658622        7.1815258904  MEMB      64              0.0000000000
      8003        64  QMPE      H9R           -31.2424133410       13.8585966711        7.0812173851  MEMB      64              0.0000000000
      8004        64  QMPE      C217          -33.2477764953       14.6664201799        6.5311015669  MEMB      64              0.0000000000
      8005        64  QMPE      H17R          -34.2023587783       14.8174498273        7.0198262170  MEMB      64              0.0000000000
      8006        64  QMPE      H17S          -32.6000583751       15.4204764787        6.1012775669  MEMB      64              0.0000000000
      8007        64  QMPE      C210          -33.0737712159       13.3269375643        5.8364849845  MEMB      64              0.0000000000
      8008        64  QMPE      H10R          -32.3711739596       13.3571472360        4.9763882998  MEMB      64              0.0000000000
      8009        64  QMPE      C211          -34.2489469343       12.3814498945        5.8404856427  MEMB      64              0.0000000000
      8010        64  QMPE      H11R          -33.8999197288       11.3866442179        6.1910032857  MEMB      64              0.0000000000
      8011        64  QMPE      H11S          -34.9901517300       12.8750937640        6.5047539383  MEMB      64              0.0000000000
      8012        64  QMPE      C212          -34.8340343053       12.1016107972        4.4561141418  MEMB      64              0.0000000000
      8013        64  QMPE      H12R          -35.3107414201       13.0805841290        4.2354728820  MEMB      64              0.0000000000
      8014        64  QMPE      H12S          -35.6045906969       11.3033098717        4.5133817624  MEMB      64              0.0000000000
      8015        64  QMPE      C213          -33.8479506991       11.7194713088        3.3918032623  MEMB      64              0.0000000000
      8016        64  QMPE      H13R          -33.2255704929       10.8599879990        3.7208213011  MEMB      64              0.0000000000
      8017        64  QMPE      H13S          -33.1244504512       12.5138260763        3.1091932338  MEMB      64              0.0000000000
      8018        64  QMPE      C214          -34.4953742733       11.2106050118        2.1342954748  MEMB      64              0.0000000000
      8019        64  QMPE      H14R          -34.8632261493       12.0484170421        1.5041550127  MEMB      64              0.0000000000
      8020        64  QMPE      H14S          -35.3176176038       10.5200437781        2.4195337955  MEMB      64              0.0000000000
      8021        64  QMPE      C215          -33.6406268565       10.4544499762        1.0997362893  MEMB      64              0.0000000000
      8022        64  QMPE      H15R          -34.1003568476       10.2759515820        0.1041912713  MEMB      64              0.0000000000
      8023        64  QMPE      H15S          -33.4752730834        9.3863385665        1.3568681909  MEMB      64              0.0000000000
      8024        64  QMPE      C216          -32.2421744881       11.0871667353        0.7776561716  MEMB      64              0.0000000000
      8025        64  QMPE      H16R          -31.6181097610       11.1393956219        1.6953358105  MEMB      64              0.0000000000
      8026        64  QMPE      H16S          -32.4499949553       12.1247525209        0.4392083179  MEMB      64              0.0000000000
      8027        64  QMPE      H16T          -31.7987631029       10.4471194976       -0.0148389903  MEMB      64              0.0000000000
      8028        64  QMPE      C33           -35.1991317500        5.8696592265       10.1441097505  MEMB      64              0.0000000000
      8029        64  QMPE      H3X           -36.2801356995        5.7954495748       10.3895564523  MEMB      64              0.0000000000
      8030        64  QMPE      H3Y           -34.6050491960        4.9491872270       10.3288218858  MEMB      64              0.0000000000
      8031        64  QMPE      C34           -35.0331621646        6.0193258280        8.6689329474  MEMB      64              0.0000000000
      8032        64  QMPE      H4X           -35.4495826208        5.1008515567        8.2027574260  MEMB      64              0.0000000000
      8033        64  QMPE      H4Y           -33.9395586126        6.1121273778        8.4964784540  MEMB      64              0.0000000000
      8034        64  QMPE      C35           -35.6973482622        7.2414253669        8.1562926821  MEMB      64              0.0000000000
      8035        64  QMPE      H5X           -35.0850828586        8.0711361796        8.5698531268  MEMB      64              0.0000000000
      8036        64  QMPE      H5Y           -36.7370093686        7.4729026801        8.4722738417  MEMB      64              0.0000000000
      8037        64  QMPE      C36           -35.7761943388        7.2634372298        6.6084591149  MEMB      64              0.0000000000
      8038        64  QMPE      H6X           -36.1337123554        8.2399265870        6.2173449331  MEMB      64              0.0000000000
      8039        64  QMPE      H6Y           -36.5648853033        6.4996254796        6.4385210658  MEMB      64              0.0000000000
      8040        64  QMPE      C37           -34.5446808017        6.8819220656        5.7995594314  MEMB      64              0.0000000000
      8041        64  QMPE      H7X           -34.2320087352        5.8218665798        5.9128697111  MEMB      64              0.0000000000
      8042        64  QMPE      H7Y           -34.7974986375        7.0444198880        4.7299812599  MEMB      64              0.0000000000
      8043        64  QMPE      C38           -33.2956389632        7.6851657467        6.1486958116  MEMB      64              0.0000000000
      8044        64  QMPE      H8X           -33.4610243767        8.7648296248        6.3519061407  MEMB      64              0.0000000000
      8045        64  QMPE      H8Y           -32.8162702034        7.4002633957        7.1096104352  MEMB      64              0.0000000000
      8046        64  QMPE      C39           -32.2361785427        7.4492052141        5.0992853921  MEMB      64              0.0000000000
      8047        64  QMPE      H9X           -32.6327522559        8.0178511661        4.2311306832  MEMB      64              0.0000000000
      8048        64  QMPE      H9Y           -32.3578150479        6.3936777198        4.7746508478  MEMB      64              0.0000000000
      8049        64  QMPE      C310          -30.8422889458        7.8996452462        5.5052789295  MEMB      64              0.0000000000
      8050        64  QMPE      H10X          -30.2718567794        7.5234775619        4.6292497123  MEMB      64              0.0000000000
      8051        64  QMPE      H10Y          -30.6284435766        7.3284347170        6.4338849812  MEMB      64              0.0000000000
      8052        64  QMPE      C311          -30.5829246549        9.3555320098        5.6874544808  MEMB      64              0.0000000000
      8053        64  QMPE      H11X          -31.0663816035        9.8791645631        6.5397447264  MEMB      64              0.0000000000
      8054        64  QMPE      H11Y          -30.9170135260        9.8446525139        4.7475251855  MEMB      64              0.0000000000
      8055        64  QMPE      C312          -29.0406557191        9.7269394987        5.7734339806  MEMB      64              0.0000000000
      8056        64  QMPE      H12X          -28.5368742421        9.5629422607        4.7968941115  MEMB      64              0.0000000000
      8057        64  QMPE      H12Y          -28.5367176247        8.9435427747        6.3789556261  MEMB      64              0.0000000000
      8058        64  QMPE      C313          -28.5749542062       11.0284112268        6.3739796141  MEMB      64              0.0000000000
      8059        64  QMPE      H13X          -28.9435521175       11.2781250452        7.3918695300  MEMB      64              0.0000000000
      8060        64  QMPE      H13Y          -27.4659780094       11.0078866353        6.4377908557  MEMB      64              0.0000000000
      8061        64  QMPE      C314          -29.0512443387       12.2983003329        5.4940201756  MEMB      64              0.0000000000
      8062        64  QMPE      H14X          -29.2295311596       13.1835208109        6.1412596461  MEMB      64              0.0000000000
      8063        64  QMPE      H14Y          -30.0906438778       12.1474378829        5.1317905128  MEMB      64              0.0000000000
      8064        64  QMPE      C315          -27.9647131787       12.7712875156        4.5067439615  MEMB      64              0.0000000000
      8065        64  QMPE      H15X          -28.3411227752       13.6780635677        3.9867489090  MEMB      64              0.0000000000
      8066        64  QMPE      H15Y          -27.0481619866       12.8375849613        5.1311314180  MEMB      64              0.0000000000
      8067        64  QMPE      H15Z          -27.6831196817       11.9332406006        3.8339118582  MEMB      64              0.0000000000
      8068        65  POPE      N             -36.3131934124      -13.3504435736       19.3522707849  MEMB      65              0.0000000000
      8069        65  POPE      HN1           -36.2457920204      -13.1597882116       20.3724215655  MEMB      65              0.0000000000
      8070        65  POPE      HN2           -37.1684229225      -13.9090632141       19.1570101463  MEMB      65              0.0000000000
      8071        65  POPE      HN3           -35.4752583335      -13.9104264641       19.0955918155  MEMB      65              0.0000000000
      8072        65  POPE      C12           -36.1578951968      -12.0265888795       18.6788016290  MEMB      65              0.0000000000
      8073        65  POPE      H12A          -37.1545839633      -11.5586852410       18.5304824434  MEMB      65              0.0000000000
      8074        65  POPE      H12B          -35.8716786193      -12.3499204597       17.6551524916  MEMB      65              0.0000000000
      8075        65  POPE      C11           -35.0954711773      -10.9633775090       19.0702217316  MEMB      65              0.0000000000
      8076        65  POPE      H11A          -35.3562921161      -10.3956564615       19.9889090273  MEMB      65              0.0000000000
      8077        65  POPE      H11B          -35.0052121932      -10.2166597435       18.2525500997  MEMB      65              0.0000000000
      8078        65  POPE      P             -32.5550754812      -10.8683126070       19.0225293719  MEMB      65              0.0000000000
      8079        65  POPE      O13           -31.3712460993      -11.7675387807       19.1129482905  MEMB      65              0.0000000000
      8080        65  POPE      O14           -32.5391424556       -9.6776240941       19.9303145447  MEMB      65              0.0000000000
      8081        65  POPE      O11           -32.8638811017      -10.4757418829       17.5130569881  MEMB      65              0.0000000000
      8082        65  POPE      O12           -33.8445350731      -11.7724622724       19.3198566595  MEMB      65              0.0000000000
      8083        65  POPE      C1            -32.0305643996       -9.4070919695       17.0515418143  MEMB      65              0.0000000000
      8084        65  POPE      HA            -30.9581714485       -9.6968873317       17.0692335060  MEMB      65              0.0000000000
      8085        65  POPE      HB            -32.1733209662       -8.3867812774       17.4673635334  MEMB      65              0.0000000000
      8086        65  POPE      C2            -32.1787031699       -9.4138307786       15.5173004569  MEMB      65              0.0000000000
      8087        65  POPE      HS            -31.7078349594       -8.5060189692       15.0831550657  MEMB      65              0.0000000000
      8088        65  POPE      O21           -33.6136552723       -9.1692761417       15.3423101901  MEMB      65              0.0000000000
      8089        65  POPE      C21           -33.9751323334       -9.0683739431       14.0450065634  MEMB      65              0.0000000000
      8090        65  POPE      O22           -33.2052252784       -9.0938234995       13.1215277664  MEMB      65              0.0000000000
      8091        65  POPE      C22           -35.5142617052       -8.9318516477       13.9083742180  MEMB      65              0.0000000000
      8092        65  POPE      H2R           -35.8486421698       -7.8727364011       13.9364000595  MEMB      65              0.0000000000
      8093        65  POPE      H2S           -35.9381699333       -9.5899203407       14.6967701287  MEMB      65              0.0000000000
      8094        65  POPE      C3            -31.7824302076      -10.7297312342       14.8770784992  MEMB      65              0.0000000000
      8095        65  POPE      HX            -30.7363771523      -11.0250051098       15.1070943600  MEMB      65              0.0000000000
      8096        65  POPE      HY            -31.8191792337      -10.7298553550       13.7666862943  MEMB      65              0.0000000000
      8097        65  POPE      O31           -32.6986981802      -11.7594711594       15.2929251088  MEMB      65              0.0000000000
      8098        65  POPE      C31           -32.2537790006      -12.9707326334       15.1991037904  MEMB      65              0.0000000000
      8099        65  POPE      O32           -31.1168116093      -13.2930337285       15.0098043427  MEMB      65              0.0000000000
      8100        65  POPE      C32           -33.2871930889      -14.0564482363       15.5377400557  MEMB      65              0.0000000000
      8101        65  POPE      H2X           -33.8069444430      -13.6879629330       16.4479037434  MEMB      65              0.0000000000
      8102        65  POPE      H2Y           -32.8116874763      -15.0589022079       15.5951991616  MEMB      65              0.0000000000
      8103        65  POPE      C23           -35.9359190407       -9.3075928182       12.4501646281  MEMB      65              0.0000000000
      8104        65  POPE      H3R           -35.3049514268       -8.7214296381       11.7482998532  MEMB      65              0.0000000000
      8105        65  POPE      H3S           -36.9732567613       -8.9317348771       12.3198484984  MEMB      65              0.0000000000
      8106        65  POPE      C24           -35.7747753617      -10.7669455005       12.2157629217  MEMB      65              0.0000000000
      8107        65  POPE      H4R           -35.2553529714      -11.1433465177       13.1228703931  MEMB      65              0.0000000000
      8108        65  POPE      H4S           -35.1226796319      -10.7812449000       11.3163812576  MEMB      65              0.0000000000
      8109        65  POPE      C25           -37.0802912661      -11.5597079766       11.9580779543  MEMB      65              0.0000000000
      8110        65  POPE      H5R           -37.5010476283      -10.9021891879       11.1675373404  MEMB      65              0.0000000000
      8111        65  POPE      H5S           -37.7659677323      -11.5296785277       12.8317293606  MEMB      65              0.0000000000
      8112        65  POPE      C26           -36.8401849301      -13.1280339390       11.6652461396  MEMB      65              0.0000000000
      8113        65  POPE      H6R           -36.9230209033      -13.7798423651       12.5611284250  MEMB      65              0.0000000000
      8114        65  POPE      H6S           -35.7908080746      -13.2263718360       11.3138789251  MEMB      65              0.0000000000
      8115        65  POPE      C27           -37.8349099407      -13.6322911934       10.5824497219  MEMB      65              0.0000000000
      8116        65  POPE      H7R           -38.8680701382      -13.2810525374       10.7910930244  MEMB      65              0.0000000000
      8117        65  POPE      H7S           -37.8203495844      -14.7420356930       10.6332081553  MEMB      65              0.0000000000
      8118        65  POPE      C28           -37.4191774630      -13.2203968241        9.1959283342  MEMB      65              0.0000000000
      8119        65  POPE      H8R           -37.8377609078      -14.0066904290        8.5319622496  MEMB      65              0.0000000000
      8120        65  POPE      H8S           -36.3124606059      -13.3058860997        9.1491250586  MEMB      65              0.0000000000
      8121        65  POPE      C29           -37.9892833356      -11.8845473321        8.7369755511  MEMB      65              0.0000000000
      8122        65  POPE      H91           -39.0641588323      -11.6900364566        8.8666217353  MEMB      65              0.0000000000
      8123        65  POPE      C210          -37.3243774132      -10.8966328542        8.1011606882  MEMB      65              0.0000000000
      8124        65  POPE      H101          -37.8394011522      -10.0057626548        7.7124442454  MEMB      65              0.0000000000
      8125        65  POPE      C211          -35.8349065035      -10.9250555061        7.7502014240  MEMB      65              0.0000000000
      8126        65  POPE      H11R          -35.3550835637      -11.9115561477        7.5743963093  MEMB      65              0.0000000000
      8127        65  POPE      H11S          -35.2736817220      -10.5534862931        8.6341035828  MEMB      65              0.0000000000
      8128        65  POPE      C212          -35.6029011828      -10.1904636294        6.4319926274  MEMB      65              0.0000000000
      8129        65  POPE      H12R          -34.5329884693      -10.1671521764        6.1335559646  MEMB      65              0.0000000000
      8130        65  POPE      H12S          -35.9708864217       -9.1561480702        6.6025782582  MEMB      65              0.0000000000
      8131        65  POPE      C213          -36.1818986765      -10.8360879307        5.2013282682  MEMB      65              0.0000000000
      8132        65  POPE      H13R          -37.2770873786      -11.0007543321        5.2894636730  MEMB      65              0.0000000000
      8133        65  POPE      H13S          -35.6925378432      -11.8201389252        5.0385686398  MEMB      65              0.0000000000
      8134        65  POPE      C214          -35.8962931822       -9.9045222422        3.9822825268  MEMB      65              0.0000000000
      8135        65  POPE      H14R          -34.8303555506       -9.6094225702        3.8773344988  MEMB      65              0.0000000000
      8136        65  POPE      H14S          -36.6177555890       -9.0599071597        3.9613420107  MEMB      65              0.0000000000
      8137        65  POPE      C215          -36.0962096700      -10.5738007045        2.6555913134  MEMB      65              0.0000000000
      8138        65  POPE      H15R          -37.1907702122      -10.6811242443        2.4983020013  MEMB      65              0.0000000000
      8139        65  POPE      H15S          -35.7080422013      -11.6071399965        2.7815158463  MEMB      65              0.0000000000
      8140        65  POPE      C216          -35.3536275511       -9.9544266404        1.4860820505  MEMB      65              0.0000000000
      8141        65  POPE      H16R          -34.2894258066      -10.0595197564        1.7873309230  MEMB      65              0.0000000000
      8142        65  POPE      H16S          -35.6665395596       -8.8987976543        1.3375740868  MEMB      65              0.0000000000
      8143        65  POPE      C217          -35.5679827116      -10.7174155870        0.1487265172  MEMB      65              0.0000000000
      8144        65  POPE      H17R          -35.2679073944      -11.7847291180        0.2202633913  MEMB      65              0.0000000000
      8145        65  POPE      H17S          -34.9231869490      -10.2939361083       -0.6507889047  MEMB      65              0.0000000000
      8146        65  POPE      C218          -36.8953780003      -10.6881488305       -0.5063392591  MEMB      65              0.0000000000
      8147        65  POPE      H18R          -37.6611036712      -10.7151046359        0.2981844260  MEMB      65              0.0000000000
      8148        65  POPE      H18S          -37.1249823112      -11.5805740377       -1.1269694630  MEMB      65              0.0000000000
      8149        65  POPE      H18T          -37.1186716088       -9.7617979835       -1.0775970198  MEMB      65              0.0000000000
      8150        65  POPE      C33           -34.1797595259      -14.0427042573       14.2780065298  MEMB      65              0.0000000000
      8151        65  POPE      H3X           -34.3572770146      -13.0696841653       13.7720018996  MEMB      65              0.0000000000
      8152        65  POPE      H3Y           -35.1876469532      -14.3890633271       14.5918844483  MEMB      65              0.0000000000
      8153        65  POPE      C34           -33.8296950777      -15.2243956909       13.3446840673  MEMB      65              0.0000000000
      8154        65  POPE      H4X           -34.6718719232      -15.3668432494       12.6342143858  MEMB      65              0.0000000000
      8155        65  POPE      H4Y           -33.6995021198      -16.1069940557       14.0067953543  MEMB      65              0.0000000000
      8156        65  POPE      C35           -32.5645548228      -14.9276373870       12.5423710700  MEMB      65              0.0000000000
      8157        65  POPE      H5X           -31.6761503547      -15.1631218390       13.1665550055  MEMB      65              0.0000000000
      8158        65  POPE      H5Y           -32.5528124965      -13.8335956247       12.3493537375  MEMB      65              0.0000000000
      8159        65  POPE      C36           -32.3930697928      -15.8959348702       11.4329036252  MEMB      65              0.0000000000
      8160        65  POPE      H6X           -32.2737455102      -16.9586122775       11.7342338347  MEMB      65              0.0000000000
      8161        65  POPE      H6Y           -31.4093504561      -15.7298633619       10.9439891597  MEMB      65              0.0000000000
      8162        65  POPE      C37           -33.4726381596      -15.8644625540       10.3797365540  MEMB      65              0.0000000000
      8163        65  POPE      H7X           -33.9464377919      -14.8622206517       10.3066178493  MEMB      65              0.0000000000
      8164        65  POPE      H7Y           -34.3202860946      -16.5345950492       10.6380703067  MEMB      65              0.0000000000
      8165        65  POPE      C38           -33.2569382353      -16.3713212108        8.9874334083  MEMB      65              0.0000000000
      8166        65  POPE      H8X           -32.6244552408      -17.2661929625        9.1704376977  MEMB      65              0.0000000000
      8167        65  POPE      H8Y           -32.4947965280      -15.6966606376        8.5421308999  MEMB      65              0.0000000000
      8168        65  POPE      C39           -34.5843102160      -16.7011344442        8.2231876077  MEMB      65              0.0000000000
      8169        65  POPE      H9X           -35.1826233088      -15.7892523650        8.0114953631  MEMB      65              0.0000000000
      8170        65  POPE      H9Y           -35.1146103178      -17.4241217814        8.8792307723  MEMB      65              0.0000000000
      8171        65  POPE      C310          -34.3344479911      -17.3366605663        6.8908660151  MEMB      65              0.0000000000
      8172        65  POPE      H10X          -35.3211640869      -17.7048220577        6.5370727228  MEMB      65              0.0000000000
      8173        65  POPE      H10Y          -33.8231416640      -18.3150197867        7.0161641008  MEMB      65              0.0000000000
      8174        65  POPE      C311          -33.6200654603      -16.4689165904        5.8304219348  MEMB      65              0.0000000000
      8175        65  POPE      H11X          -33.5280098134      -17.1410757055        4.9506213624  MEMB      65              0.0000000000
      8176        65  POPE      H11Y          -32.6174021746      -16.1576599609        6.1938880137  MEMB      65              0.0000000000
      8177        65  POPE      C312          -34.4699057589      -15.2322256494        5.4944798300  MEMB      65              0.0000000000
      8178        65  POPE      H12X          -34.4900547088      -14.6107635605        6.4151859276  MEMB      65              0.0000000000
      8179        65  POPE      H12Y          -35.5295566828      -15.5260733906        5.3360046988  MEMB      65              0.0000000000
      8180        65  POPE      C313          -33.8894574491      -14.4263880771        4.3665764040  MEMB      65              0.0000000000
      8181        65  POPE      H13X          -34.7131902511      -13.7163415196        4.1393760102  MEMB      65              0.0000000000
      8182        65  POPE      H13Y          -33.6170399878      -15.0727871372        3.5050201279  MEMB      65              0.0000000000
      8183        65  POPE      C314          -32.7793408859      -13.4419350050        4.8519212843  MEMB      65              0.0000000000
      8184        65  POPE      H14X          -32.1128781182      -13.9474062940        5.5831168052  MEMB      65              0.0000000000
      8185        65  POPE      H14Y          -33.2702100814      -12.6200415757        5.4157120323  MEMB      65              0.0000000000
      8186        65  POPE      C315          -31.7969796500      -12.9341658932        3.7923999376  MEMB      65              0.0000000000
      8187        65  POPE      H15X          -31.1542717447      -13.7651568295        3.4308732752  MEMB      65              0.0000000000
      8188        65  POPE      H15Y          -31.1358257859      -12.1755244482        4.2632075089  MEMB      65              0.0000000000
      8189        65  POPE      C316          -32.3543406269      -12.3032140614        2.5463280782  MEMB      65              0.0000000000
      8190        65  POPE      H16X          -31.6767646232      -12.1678424241        1.6763355330  MEMB      65              0.0000000000
      8191        65  POPE      H16Y          -32.7246253742      -11.3025388964        2.8559397879  MEMB      65              0.0000000000
      8192        65  POPE      H16Z          -33.2467055318      -12.8374296335        2.1556629607  MEMB      65              0.0000000000
      8193        66  OYPE      N             -25.5598505647       22.5843407250       21.0989206863  MEMB      66              0.0000000000
      8194        66  OYPE      HN1           -25.4080958291       22.9331412789       20.1309802790  MEMB      66              0.0000000000
      8195        66  OYPE      HN2           -24.8697879035       22.8745221591       21.8208682966  MEMB      66              0.0000000000
      8196        66  OYPE      HN3           -25.7470069737       21.5614860001       21.0804632788  MEMB      66              0.0000000000
      8197        66  OYPE      C12           -26.8338024717       23.3030818161       21.3977651404  MEMB      66              0.0000000000
      8198        66  OYPE      H12A          -26.4278404525       24.1615857062       21.9743818086  MEMB      66              0.0000000000
      8199        66  OYPE      H12B          -27.5696503364       22.7360158503       22.0070966397  MEMB      66              0.0000000000
      8200        66  OYPE      C11           -27.5306166911       23.7534264857       20.0726387915  MEMB      66              0.0000000000
      8201        66  OYPE      H11A          -26.7559028162       24.3686232136       19.5669982847  MEMB      66              0.0000000000
      8202        66  OYPE      H11B          -28.3614481228       24.4683054814       20.2542648257  MEMB      66              0.0000000000
      8203        66  OYPE      P             -28.2714648059       22.6341016830       17.8495153376  MEMB      66              0.0000000000
      8204        66  OYPE      O13           -29.1745015802       21.5285075841       17.4282615930  MEMB      66              0.0000000000
      8205        66  OYPE      O14           -27.0197850030       22.5877616331       17.1266690439  MEMB      66              0.0000000000
      8206        66  OYPE      O11           -28.9373643401       24.0414952284       17.6278122680  MEMB      66              0.0000000000
      8207        66  OYPE      O12           -28.0352302942       22.6699878421       19.3984171717  MEMB      66              0.0000000000
      8208        66  OYPE      C1            -30.2891060367       24.2373006683       18.0567066494  MEMB      66              0.0000000000
      8209        66  OYPE      HA            -30.3907122696       25.1316712865       18.7079349106  MEMB      66              0.0000000000
      8210        66  OYPE      HB            -30.7370118055       23.3837185291       18.6090642199  MEMB      66              0.0000000000
      8211        66  OYPE      C2            -31.2108854224       24.4166987261       16.7767798639  MEMB      66              0.0000000000
      8212        66  OYPE      HS            -32.2418748886       24.3691411215       17.1880215468  MEMB      66              0.0000000000
      8213        66  OYPE      O21           -30.9595070786       23.3498665336       15.9309448618  MEMB      66              0.0000000000
      8214        66  OYPE      C21           -31.9134785068       23.2590545407       14.9457275835  MEMB      66              0.0000000000
      8215        66  OYPE      O22           -33.0394025107       23.7079520675       15.0532450498  MEMB      66              0.0000000000
      8216        66  OYPE      C22           -31.3932535383       22.4502772466       13.7374895830  MEMB      66              0.0000000000
      8217        66  OYPE      H2R           -31.1427128852       21.4198861067       14.0689172653  MEMB      66              0.0000000000
      8218        66  OYPE      H2S           -30.5187623178       22.9264914794       13.2447358041  MEMB      66              0.0000000000
      8219        66  OYPE      C3            -30.8880608138       25.7340827220       16.0363199119  MEMB      66              0.0000000000
      8220        66  OYPE      HX            -31.0407974823       26.4657998238       16.8582581323  MEMB      66              0.0000000000
      8221        66  OYPE      HY            -31.7004795394       26.0327559532       15.3398357208  MEMB      66              0.0000000000
      8222        66  OYPE      O31           -29.5177572594       25.8215300364       15.6452221714  MEMB      66              0.0000000000
      8223        66  OYPE      C31           -29.3353029139       25.6629853980       14.3291994869  MEMB      66              0.0000000000
      8224        66  OYPE      O32           -30.2260048387       25.6440810780       13.5013698500  MEMB      66              0.0000000000
      8225        66  OYPE      C32           -27.8976990443       25.2298089460       14.1101641023  MEMB      66              0.0000000000
      8226        66  OYPE      H2X           -27.5136284478       25.7816795307       13.2257150387  MEMB      66              0.0000000000
      8227        66  OYPE      H2Y           -27.2796408513       25.5576550562       14.9732063630  MEMB      66              0.0000000000
      8228        66  OYPE      C23           -32.4336366784       22.5211841975       12.6018212909  MEMB      66              0.0000000000
      8229        66  OYPE      H3R           -33.4936716124       22.3129938781       12.8612505974  MEMB      66              0.0000000000
      8230        66  OYPE      H3S           -32.0425646435       21.6519088676       12.0310814116  MEMB      66              0.0000000000
      8231        66  OYPE      C24           -32.4136473637       23.7719873159       11.7121445610  MEMB      66              0.0000000000
      8232        66  OYPE      H4R           -31.3976107901       24.0801053903       11.3849538616  MEMB      66              0.0000000000
      8233        66  OYPE      H4S           -32.9520613885       24.5929444654       12.2322034850  MEMB      66              0.0000000000
      8234        66  OYPE      C25           -33.1321249172       23.5981338478       10.3781614850  MEMB      66              0.0000000000
      8235        66  OYPE      H5R           -34.2218962888       23.7154900604       10.5596748047  MEMB      66              0.0000000000
      8236        66  OYPE      H5S           -32.7662836459       22.6403287626        9.9502709038  MEMB      66              0.0000000000
      8237        66  OYPE      C26           -32.7502187007       24.7730376047        9.4013283378  MEMB      66              0.0000000000
      8238        66  OYPE      H6R           -31.6733669873       24.6248921098        9.1716229764  MEMB      66              0.0000000000
      8239        66  OYPE      H6S           -32.9283165033       25.7162312782        9.9607818007  MEMB      66              0.0000000000
      8240        66  OYPE      C27           -33.5202677054       24.8632389310        8.0372427988  MEMB      66              0.0000000000
      8241        66  OYPE      H7R           -33.1919567912       25.8861436905        7.7540483296  MEMB      66              0.0000000000
      8242        66  OYPE      H7S           -34.5895143410       24.8232041712        8.3362903164  MEMB      66              0.0000000000
      8243        66  OYPE      C28           -33.0569071611       23.9822622808        6.9057618635  MEMB      66              0.0000000000
      8244        66  OYPE      H8R           -33.2608035645       22.9174090368        7.1483195630  MEMB      66              0.0000000000
      8245        66  OYPE      H8S           -31.9779195532       23.8923204409        6.6567297395  MEMB      66              0.0000000000
      8246        66  OYPE      C29           -33.8573936270       24.0819291506        5.6529666799  MEMB      66              0.0000000000
      8247        66  OYPE      H9R           -34.9052777440       23.7482666023        5.6776236388  MEMB      66              0.0000000000
      8248        66  OYPE      C210          -33.4340383039       24.5289341391        4.4932036627  MEMB      66              0.0000000000
      8249        66  OYPE      H10R          -34.0239729680       24.3137652403        3.5900541961  MEMB      66              0.0000000000
      8250        66  OYPE      C211          -31.9995274688       24.9963855536        4.1168889738  MEMB      66              0.0000000000
      8251        66  OYPE      H11R          -31.8492479700       24.9385050415        3.0176232325  MEMB      66              0.0000000000
      8252        66  OYPE      H11S          -31.3564190345       24.3672175785        4.7687178457  MEMB      66              0.0000000000
      8253        66  OYPE      C212          -31.7750161045       26.5045836697        4.4410411711  MEMB      66              0.0000000000
      8254        66  OYPE      H12R          -32.1480318385       26.8920995728        5.4131582321  MEMB      66              0.0000000000
      8255        66  OYPE      H12S          -32.2725100734       27.0174223852        3.5902664421  MEMB      66              0.0000000000
      8256        66  OYPE      C213          -30.3141175763       27.0012901755        4.2887095534  MEMB      66              0.0000000000
      8257        66  OYPE      H13R          -29.6965533372       26.7220491725        5.1690275709  MEMB      66              0.0000000000
      8258        66  OYPE      H13S          -30.2756098092       28.1099006565        4.2268977521  MEMB      66              0.0000000000
      8259        66  OYPE      C214          -29.5321994652       26.5577475120        3.0059679997  MEMB      66              0.0000000000
      8260        66  OYPE      H14R          -29.5591147641       25.4471219081        3.0163379816  MEMB      66              0.0000000000
      8261        66  OYPE      H14S          -28.5206196939       26.9937508324        3.1506352139  MEMB      66              0.0000000000
      8262        66  OYPE      C215          -30.1717995723       26.8997107078        1.6957004994  MEMB      66              0.0000000000
      8263        66  OYPE      H15R          -30.1006167302       28.0071789739        1.6430845611  MEMB      66              0.0000000000
      8264        66  OYPE      H15S          -31.1481447948       26.3986653670        1.5224250526  MEMB      66              0.0000000000
      8265        66  OYPE      C216          -29.3736062775       26.2666481061        0.5604425301  MEMB      66              0.0000000000
      8266        66  OYPE      H16R          -29.3537405203       25.1575801577        0.4980336012  MEMB      66              0.0000000000
      8267        66  OYPE      H16S          -28.3165033907       26.6006449366        0.6332501263  MEMB      66              0.0000000000
      8268        66  OYPE      H16T          -29.7420105033       26.7761119142       -0.3555511738  MEMB      66              0.0000000000
      8269        66  OYPE      C33           -27.7853701061       23.7381043476       13.9444012938  MEMB      66              0.0000000000
      8270        66  OYPE      H3X           -28.3989220558       23.1409737915       14.6524335618  MEMB      66              0.0000000000
      8271        66  OYPE      H3Y           -26.7632729824       23.3808565796       14.1934244687  MEMB      66              0.0000000000
      8272        66  OYPE      C34           -27.9872227598       23.3019872685       12.4928514455  MEMB      66              0.0000000000
      8273        66  OYPE      H4X           -28.9654259881       23.7294278463       12.1850629550  MEMB      66              0.0000000000
      8274        66  OYPE      H4Y           -27.1668363592       23.7913524758       11.9255697897  MEMB      66              0.0000000000
      8275        66  OYPE      C35           -27.8496822554       21.7634052677       12.3424095957  MEMB      66              0.0000000000
      8276        66  OYPE      H5X           -28.5371236400       21.3639186000       13.1183966175  MEMB      66              0.0000000000
      8277        66  OYPE      H5Y           -26.8202866899       21.4429779921       12.6107236828  MEMB      66              0.0000000000
      8278        66  OYPE      C36           -28.2672887815       21.2875368666       10.9472948094  MEMB      66              0.0000000000
      8279        66  OYPE      H6X           -28.1402897877       20.1838580573       10.9565411863  MEMB      66              0.0000000000
      8280        66  OYPE      H6Y           -29.3181943228       21.5799277226       10.7365200234  MEMB      66              0.0000000000
      8281        66  OYPE      C37           -27.3900557124       21.8692007396        9.7910207614  MEMB      66              0.0000000000
      8282        66  OYPE      H7X           -26.3916515532       22.1505629895       10.1889473349  MEMB      66              0.0000000000
      8283        66  OYPE      H7Y           -27.3095847905       21.0266923799        9.0712815899  MEMB      66              0.0000000000
      8284        66  OYPE      C38           -27.9570201778       23.1458880558        9.0530742729  MEMB      66              0.0000000000
      8285        66  OYPE      H8X           -27.9792373634       23.8908604450        9.8769938053  MEMB      66              0.0000000000
      8286        66  OYPE      H8Y           -27.2278153144       23.5403481302        8.3134913151  MEMB      66              0.0000000000
      8287        66  OYPE      C39           -29.2756461375       23.0301028857        8.3749991790  MEMB      66              0.0000000000
      8288        66  OYPE      H9X           -30.1374318740       22.7993744526        9.0184971702  MEMB      66              0.0000000000
      8289        66  OYPE      C310          -29.4998668994       23.0040442790        7.0682726013  MEMB      66              0.0000000000
      8290        66  OYPE      H10X          -30.5274893541       22.7917499535        6.7382364780  MEMB      66              0.0000000000
      8291        66  OYPE      C311          -28.4459702780       23.0737270737        5.9541308513  MEMB      66              0.0000000000
      8292        66  OYPE      H11X          -28.4560367089       23.9415529887        5.2605191653  MEMB      66              0.0000000000
      8293        66  OYPE      H11Y          -27.4052553147       23.1069271929        6.3415984591  MEMB      66              0.0000000000
      8294        66  OYPE      C312          -28.2928444987       21.7899709729        5.2026574379  MEMB      66              0.0000000000
      8295        66  OYPE      H12X          -28.2479402888       20.9529078453        5.9317861195  MEMB      66              0.0000000000
      8296        66  OYPE      H12Y          -27.3174318134       21.9375358899        4.6916625905  MEMB      66              0.0000000000
      8297        66  OYPE      C313          -29.4825998622       21.7149032518        4.2203501096  MEMB      66              0.0000000000
      8298        66  OYPE      H13X          -30.3442673059       21.4820748955        4.8818949850  MEMB      66              0.0000000000
      8299        66  OYPE      H13Y          -29.6708794020       22.7468460759        3.8543369581  MEMB      66              0.0000000000
      8300        66  OYPE      C314          -29.5168248237       20.5440392792        3.2796163448  MEMB      66              0.0000000000
      8301        66  OYPE      H14X          -29.1723987454       19.6139556695        3.7802513964  MEMB      66              0.0000000000
      8302        66  OYPE      H14Y          -28.8772064218       20.6486556139        2.3772500958  MEMB      66              0.0000000000
      8303        66  OYPE      C315          -30.9898497520       20.1977722519        2.8654325810  MEMB      66              0.0000000000
      8304        66  OYPE      H15X          -31.7296928573       20.5990478982        3.5906433905  MEMB      66              0.0000000000
      8305        66  OYPE      H15Y          -31.2538657022       19.1226844135        2.7716124361  MEMB      66              0.0000000000
      8306        66  OYPE      C316          -31.2972467296       20.8788375549        1.4579830094  MEMB      66              0.0000000000
      8307        66  OYPE      H16X          -32.1568160305       20.4260265753        0.9190719629  MEMB      66              0.0000000000
      8308        66  OYPE      H16Y          -30.4164851631       20.7167403210        0.8004833054  MEMB      66              0.0000000000
      8309        66  OYPE      C317          -31.6500073527       22.3714779764        1.5099906188  MEMB      66              0.0000000000
      8310        66  OYPE      H17X          -30.7129726337       22.9539419387        1.6404623353  MEMB      66              0.0000000000
      8311        66  OYPE      H17Y          -32.2877322786       22.6948365467        2.3603234319  MEMB      66              0.0000000000
      8312        66  OYPE      C318          -32.3603319681       23.0271995363        0.2857058120  MEMB      66              0.0000000000
      8313        66  OYPE      H18X          -32.3690903114       24.1333541976        0.3889831108  MEMB      66              0.0000000000
      8314        66  OYPE      H18Y          -31.8464026062       22.6820303031       -0.6368205664  MEMB      66              0.0000000000
      8315        66  OYPE      H18Z          -33.4192960423       22.6944683917        0.2387443313  MEMB      66              0.0000000000
      8316        67  OYPE      N              -6.1582676652       35.6103650012       19.8418860475  MEMB      67              0.0000000000
      8317        67  OYPE      HN1            -5.8126002223       34.6310148552       19.8965436085  MEMB      67              0.0000000000
      8318        67  OYPE      HN2            -5.7732425925       36.2153107552       20.5951431339  MEMB      67              0.0000000000
      8319        67  OYPE      HN3            -7.1484275438       35.3790929747       20.0602819190  MEMB      67              0.0000000000
      8320        67  OYPE      C12            -5.9526157059       36.1773272050       18.5217910241  MEMB      67              0.0000000000
      8321        67  OYPE      H12A           -6.5283601596       37.1195015764       18.3987195730  MEMB      67              0.0000000000
      8322        67  OYPE      H12B           -6.3674809003       35.5058911626       17.7398822227  MEMB      67              0.0000000000
      8323        67  OYPE      C11            -4.4766079644       36.3907599200       18.2273205217  MEMB      67              0.0000000000
      8324        67  OYPE      H11A           -4.3584095939       36.8004557910       17.2014066114  MEMB      67              0.0000000000
      8325        67  OYPE      H11B           -3.9159177735       35.4375184613       18.1211216423  MEMB      67              0.0000000000
      8326        67  OYPE      P              -2.3375116350       37.3553824118       19.1873400140  MEMB      67              0.0000000000
      8327        67  OYPE      O13            -1.8117239959       36.1919504090       19.9027995695  MEMB      67              0.0000000000
      8328        67  OYPE      O14            -1.8652968768       38.6730621074       19.5788633815  MEMB      67              0.0000000000
      8329        67  OYPE      O11            -1.9837321334       37.1223849222       17.6172735529  MEMB      67              0.0000000000
      8330        67  OYPE      O12            -3.9026576345       37.2942567906       19.1227258874  MEMB      67              0.0000000000
      8331        67  OYPE      C1             -1.0118892891       37.9408700724       16.9594022505  MEMB      67              0.0000000000
      8332        67  OYPE      HA             -0.4945249311       37.2766101050       16.2345479366  MEMB      67              0.0000000000
      8333        67  OYPE      HB             -0.2293782775       38.2386820549       17.6896799903  MEMB      67              0.0000000000
      8334        67  OYPE      C2             -1.5994265540       39.1118354416       16.2348153383  MEMB      67              0.0000000000
      8335        67  OYPE      HS             -2.0196451101       39.7931280564       17.0052552133  MEMB      67              0.0000000000
      8336        67  OYPE      O21            -2.6259694964       38.5822773014       15.4131634597  MEMB      67              0.0000000000
      8337        67  OYPE      C21            -3.5715871338       39.5352435018       14.9878685480  MEMB      67              0.0000000000
      8338        67  OYPE      O22            -3.6824186758       40.6798321917       15.4394122357  MEMB      67              0.0000000000
      8339        67  OYPE      C22            -4.4915360504       38.6877932417       14.0560163593  MEMB      67              0.0000000000
      8340        67  OYPE      H2R            -5.4112838613       39.2453370377       13.7775743171  MEMB      67              0.0000000000
      8341        67  OYPE      H2S            -4.7253352871       37.6637311070       14.4178944867  MEMB      67              0.0000000000
      8342        67  OYPE      C3             -0.5444864591       39.8473082113       15.3665782201  MEMB      67              0.0000000000
      8343        67  OYPE      HX              0.1193850342       40.5609510627       15.8997856734  MEMB      67              0.0000000000
      8344        67  OYPE      HY             -1.1812757552       40.3589065907       14.6135259799  MEMB      67              0.0000000000
      8345        67  OYPE      O31             0.3130150602       38.9770972068       14.6911911468  MEMB      67              0.0000000000
      8346        67  OYPE      C31             0.2566164921       38.6866963152       13.4206667711  MEMB      67              0.0000000000
      8347        67  OYPE      O32            -0.1235666121       39.4303672961       12.5580017882  MEMB      67              0.0000000000
      8348        67  OYPE      C32             0.7468432408       37.2814897378       13.1909444045  MEMB      67              0.0000000000
      8349        67  OYPE      H2X             1.7363861169       37.1246775765       13.6710863369  MEMB      67              0.0000000000
      8350        67  OYPE      H2Y             0.0620562803       36.5102798467       13.6040099311  MEMB      67              0.0000000000
      8351        67  OYPE      C23            -3.6722153288       38.5461436880       12.6917422600  MEMB      67              0.0000000000
      8352        67  OYPE      H3R            -4.2084444664       37.6803468731       12.2476983299  MEMB      67              0.0000000000
      8353        67  OYPE      H3S            -2.5801690102       38.4343088160       12.8627648492  MEMB      67              0.0000000000
      8354        67  OYPE      C24            -3.8407440149       39.7619889843       11.7246494912  MEMB      67              0.0000000000
      8355        67  OYPE      H4R            -3.5961181075       40.6932844571       12.2788768541  MEMB      67              0.0000000000
      8356        67  OYPE      H4S            -4.8960556753       39.9525071134       11.4342340223  MEMB      67              0.0000000000
      8357        67  OYPE      C25            -2.9838072601       39.7864986317       10.4344850133  MEMB      67              0.0000000000
      8358        67  OYPE      H5R            -2.9100798880       38.8820455272        9.7935087937  MEMB      67              0.0000000000
      8359        67  OYPE      H5S            -1.9210221098       39.7696482606       10.7577881655  MEMB      67              0.0000000000
      8360        67  OYPE      C26            -3.3104625168       41.0691745155        9.6580980533  MEMB      67              0.0000000000
      8361        67  OYPE      H6R            -3.5764158633       41.8172541404       10.4352509419  MEMB      67              0.0000000000
      8362        67  OYPE      H6S            -4.1533100484       40.7774297730        8.9956672254  MEMB      67              0.0000000000
      8363        67  OYPE      C27            -2.0855620770       41.6248252298        8.8815239069  MEMB      67              0.0000000000
      8364        67  OYPE      H7R            -1.2385438933       41.7126686372        9.5950820390  MEMB      67              0.0000000000
      8365        67  OYPE      H7S            -2.2654792834       42.6858504889        8.6055236008  MEMB      67              0.0000000000
      8366        67  OYPE      C28            -1.7488248376       40.8181065574        7.5815084251  MEMB      67              0.0000000000
      8367        67  OYPE      H8R            -2.6191121001       40.7227787449        6.8975245782  MEMB      67              0.0000000000
      8368        67  OYPE      H8S            -1.3907229979       39.8567528429        8.0079855304  MEMB      67              0.0000000000
      8369        67  OYPE      C29            -0.6254613263       41.5359541469        6.8876582605  MEMB      67              0.0000000000
      8370        67  OYPE      H9R            -0.1196701033       42.1911065067        7.6121931346  MEMB      67              0.0000000000
      8371        67  OYPE      C210           -0.4355734115       41.5700751709        5.5316754807  MEMB      67              0.0000000000
      8372        67  OYPE      H10R            0.4605204461       42.0873579463        5.1582656030  MEMB      67              0.0000000000
      8373        67  OYPE      C211           -1.2975579465       40.9283377764        4.5485595872  MEMB      67              0.0000000000
      8374        67  OYPE      H11R           -1.5604714073       41.5052219296        3.6361986907  MEMB      67              0.0000000000
      8375        67  OYPE      H11S           -2.2571044365       40.5957833199        4.9991140708  MEMB      67              0.0000000000
      8376        67  OYPE      C212           -0.5746792519       39.5570553965        4.1108806851  MEMB      67              0.0000000000
      8377        67  OYPE      H12R           -0.7336384205       38.8255691344        4.9318437071  MEMB      67              0.0000000000
      8378        67  OYPE      H12S            0.5136436706       39.7776787219        4.0762450885  MEMB      67              0.0000000000
      8379        67  OYPE      C213           -0.9794955227       39.0309942050        2.8106318627  MEMB      67              0.0000000000
      8380        67  OYPE      H13R           -0.9774203462       39.9355545220        2.1655832217  MEMB      67              0.0000000000
      8381        67  OYPE      H13S           -2.0684131499       38.8290574237        2.8989566627  MEMB      67              0.0000000000
      8382        67  OYPE      C214           -0.1251845167       37.8934345707        2.2895166398  MEMB      67              0.0000000000
      8383        67  OYPE      H14R           -0.1939516947       36.9593809452        2.8871248147  MEMB      67              0.0000000000
      8384        67  OYPE      H14S            0.9428839910       38.1757579306        2.4071783049  MEMB      67              0.0000000000
      8385        67  OYPE      C215           -0.4037477692       37.4707449035        0.8623406058  MEMB      67              0.0000000000
      8386        67  OYPE      H15R            0.6049379595       37.1590056646        0.5163732309  MEMB      67              0.0000000000
      8387        67  OYPE      H15S           -0.7020642291       38.3935221134        0.3202977617  MEMB      67              0.0000000000
      8388        67  OYPE      C216           -1.4837804144       36.4713702584        0.6350131100  MEMB      67              0.0000000000
      8389        67  OYPE      H16R           -2.3053727500       36.5182754352        1.3814104801  MEMB      67              0.0000000000
      8390        67  OYPE      H16S           -1.0982088195       35.4413500732        0.4778072753  MEMB      67              0.0000000000
      8391        67  OYPE      H16T           -1.7865015896       36.8981736879       -0.3450472596  MEMB      67              0.0000000000
      8392        67  OYPE      C33             0.8745933616       37.0026520858       11.6597962529  MEMB      67              0.0000000000
      8393        67  OYPE      H3X             1.7010366354       36.2623185808       11.6030629453  MEMB      67              0.0000000000
      8394        67  OYPE      H3Y             1.3266760332       37.8514893114       11.1035424608  MEMB      67              0.0000000000
      8395        67  OYPE      C34            -0.3572535298       36.5289161689       10.9155729003  MEMB      67              0.0000000000
      8396        67  OYPE      H4X            -0.6902280589       35.6003195634       11.4266079981  MEMB      67              0.0000000000
      8397        67  OYPE      H4Y            -1.0214787477       37.4142615609       11.0119537796  MEMB      67              0.0000000000
      8398        67  OYPE      C35            -0.0167880477       36.1370568057        9.4308506700  MEMB      67              0.0000000000
      8399        67  OYPE      H5X             0.8321087314       35.4247197736        9.5100400883  MEMB      67              0.0000000000
      8400        67  OYPE      H5Y             0.3098300002       37.0270273569        8.8515458901  MEMB      67              0.0000000000
      8401        67  OYPE      C36            -1.1338101992       35.4046486820        8.7222950450  MEMB      67              0.0000000000
      8402        67  OYPE      H6X            -0.9051522088       35.2267174798        7.6497392916  MEMB      67              0.0000000000
      8403        67  OYPE      H6Y            -1.3002481758       34.4237045095        9.2166312703  MEMB      67              0.0000000000
      8404        67  OYPE      C37            -2.4818768642       36.0749879007        8.6812645294  MEMB      67              0.0000000000
      8405        67  OYPE      H7X            -2.9233965797       36.0868076734        9.7006961921  MEMB      67              0.0000000000
      8406        67  OYPE      H7Y            -2.5314078486       37.1180131074        8.3018357475  MEMB      67              0.0000000000
      8407        67  OYPE      C38            -3.6364753637       35.3832954918        7.8846969527  MEMB      67              0.0000000000
      8408        67  OYPE      H8X            -3.7402744611       34.3479075511        8.2739507552  MEMB      67              0.0000000000
      8409        67  OYPE      H8Y            -4.6248142505       35.8501390786        8.0836051647  MEMB      67              0.0000000000
      8410        67  OYPE      C39            -3.4119177880       35.4795075003        6.4006556814  MEMB      67              0.0000000000
      8411        67  OYPE      H9X            -2.5664960091       34.8840105629        6.0256290630  MEMB      67              0.0000000000
      8412        67  OYPE      C310           -4.1477240000       36.1999920612        5.5060564543  MEMB      67              0.0000000000
      8413        67  OYPE      H10X           -3.9700272942       35.9699830493        4.4451514312  MEMB      67              0.0000000000
      8414        67  OYPE      C311           -5.3279099551       37.0738788862        5.8009669188  MEMB      67              0.0000000000
      8415        67  OYPE      H11X           -6.2850987249       36.5700140767        5.5475290038  MEMB      67              0.0000000000
      8416        67  OYPE      H11Y           -5.4058198514       37.3094340014        6.8839097222  MEMB      67              0.0000000000
      8417        67  OYPE      C312           -5.2032231654       38.4871735599        5.1461024211  MEMB      67              0.0000000000
      8418        67  OYPE      H12X           -4.2702044035       39.0650450852        5.3189070979  MEMB      67              0.0000000000
      8419        67  OYPE      H12Y           -5.9462360024       39.1520789697        5.6361568807  MEMB      67              0.0000000000
      8420        67  OYPE      C313           -5.5441552793       38.5742939754        3.6471059629  MEMB      67              0.0000000000
      8421        67  OYPE      H13X           -5.1888827363       37.6188555129        3.2052462495  MEMB      67              0.0000000000
      8422        67  OYPE      H13Y           -6.6352869495       38.5036892439        3.4502093112  MEMB      67              0.0000000000
      8423        67  OYPE      C314           -4.9608213062       39.6934483293        2.8812619798  MEMB      67              0.0000000000
      8424        67  OYPE      H14X           -3.8948049201       39.9571575723        3.0497479428  MEMB      67              0.0000000000
      8425        67  OYPE      H14Y           -5.4967812406       40.5561630335        3.3315857823  MEMB      67              0.0000000000
      8426        67  OYPE      C315           -5.1548192106       39.7613631105        1.3891941529  MEMB      67              0.0000000000
      8427        67  OYPE      H15X           -4.4144357977       39.0958443427        0.8960016753  MEMB      67              0.0000000000
      8428        67  OYPE      H15Y           -4.7710590436       40.7859657012        1.1962196477  MEMB      67              0.0000000000
      8429        67  OYPE      C316           -6.4834086131       39.6544085940        0.8271364493  MEMB      67              0.0000000000
      8430        67  OYPE      H16X           -7.0673845642       40.4893165136        1.2701063766  MEMB      67              0.0000000000
      8431        67  OYPE      H16Y           -6.8527939244       38.6434322711        1.1024590044  MEMB      67              0.0000000000
      8432        67  OYPE      C317           -6.6015375859       39.8670224215       -0.6569949403  MEMB      67              0.0000000000
      8433        67  OYPE      H17X           -6.5891583155       40.9667856600       -0.8141220857  MEMB      67              0.0000000000
      8434        67  OYPE      H17Y           -7.6075568346       39.5532042994       -1.0087964964  MEMB      67              0.0000000000
      8435        67  OYPE      C318           -5.5363809283       39.2753106421       -1.5944777977  MEMB      67              0.0000000000
      8436        67  OYPE      H18X           -4.5586910442       39.7995466342       -1.5343112005  MEMB      67              0.0000000000
      8437        67  OYPE      H18Y           -5.3767893023       38.2034427518       -1.3496295806  MEMB      67              0.0000000000
      8438        67  OYPE      H18Z           -5.7988146472       39.4891134135       -2.6526534586  MEMB      67              0.0000000000
      8439        68  PMPE      N             -17.6247977743      -29.9532955414       20.1121724193  MEMB      68              0.0000000000
      8440        68  PMPE      HN1           -17.2879595414      -29.7031294122       21.0637799623  MEMB      68              0.0000000000
      8441        68  PMPE      HN2           -17.5006528362      -30.9669914144       19.9156811805  MEMB      68              0.0000000000
      8442        68  PMPE      HN3           -17.1559286145      -29.3934428399       19.3716816691  MEMB      68              0.0000000000
      8443        68  PMPE      C12           -19.1066806412      -29.6053587610       19.9062813736  MEMB      68              0.0000000000
      8444        68  PMPE      H12A          -19.1696800520      -29.3680857277       18.8227438745  MEMB      68              0.0000000000
      8445        68  PMPE      H12B          -19.2284485014      -28.6808336880       20.5102242952  MEMB      68              0.0000000000
      8446        68  PMPE      C11           -20.0571688350      -30.7760368275       20.3825829497  MEMB      68              0.0000000000
      8447        68  PMPE      H11A          -21.0595234314      -30.3316660527       20.5618618739  MEMB      68              0.0000000000
      8448        68  PMPE      H11B          -19.5898427287      -31.0592143808       21.3499183459  MEMB      68              0.0000000000
      8449        68  PMPE      P             -21.0401452946      -31.9677860104       18.3532361741  MEMB      68              0.0000000000
      8450        68  PMPE      O13           -21.4907033049      -30.6357034640       17.9887539739  MEMB      68              0.0000000000
      8451        68  PMPE      O14           -22.1384675125      -32.9830036499       18.4676447994  MEMB      68              0.0000000000
      8452        68  PMPE      O11           -20.0511016385      -32.4353637940       17.1715177428  MEMB      68              0.0000000000
      8453        68  PMPE      O12           -20.0768694092      -31.9309935303       19.6178105668  MEMB      68              0.0000000000
      8454        68  PMPE      C1            -19.1606486461      -33.5414057588       17.4035514819  MEMB      68              0.0000000000
      8455        68  PMPE      HA            -19.5836514115      -34.3329647874       18.0583979534  MEMB      68              0.0000000000
      8456        68  PMPE      HB            -18.1662098849      -33.1281613666       17.6767577822  MEMB      68              0.0000000000
      8457        68  PMPE      C2            -18.8724706808      -34.3268020917       16.0658416163  MEMB      68              0.0000000000
      8458        68  PMPE      HS            -18.2429863967      -35.2016028551       16.3356456446  MEMB      68              0.0000000000
      8459        68  PMPE      O21           -18.2352000328      -33.4442081696       15.1267288754  MEMB      68              0.0000000000
      8460        68  PMPE      C21           -17.4223452047      -34.1186428091       14.2715413935  MEMB      68              0.0000000000
      8461        68  PMPE      O22           -16.9336157100      -35.1906394038       14.5019626314  MEMB      68              0.0000000000
      8462        68  PMPE      C22           -16.9643397297      -33.1761520188       13.1568068582  MEMB      68              0.0000000000
      8463        68  PMPE      H2R           -15.8709500209      -33.0812725520       13.3294851759  MEMB      68              0.0000000000
      8464        68  PMPE      H2S           -17.2778172201      -32.1108500563       13.1912291463  MEMB      68              0.0000000000
      8465        68  PMPE      C3            -20.1804798695      -34.8433680471       15.3971324010  MEMB      68              0.0000000000
      8466        68  PMPE      HX            -20.7856209087      -35.3231402918       16.1958460522  MEMB      68              0.0000000000
      8467        68  PMPE      HY            -19.9578724868      -35.5249266866       14.5484598966  MEMB      68              0.0000000000
      8468        68  PMPE      O31           -20.9126489270      -33.7146546391       14.8990322623  MEMB      68              0.0000000000
      8469        68  PMPE      C31           -22.0097316309      -33.9363335452       14.2366840397  MEMB      68              0.0000000000
      8470        68  PMPE      O32           -22.3414835552      -35.0848776269       13.9149005591  MEMB      68              0.0000000000
      8471        68  PMPE      C32           -22.8293733995      -32.7041142207       14.1408412717  MEMB      68              0.0000000000
      8472        68  PMPE      H2X           -22.1153739092      -31.8791601948       14.3505472658  MEMB      68              0.0000000000
      8473        68  PMPE      H2Y           -23.6605229398      -32.6710134270       14.8773304279  MEMB      68              0.0000000000
      8474        68  PMPE      C23           -17.4120275751      -33.6709438084       11.8027454607  MEMB      68              0.0000000000
      8475        68  PMPE      H3R           -18.5114231772      -33.5384622068       11.7127516314  MEMB      68              0.0000000000
      8476        68  PMPE      H3S           -17.0256927191      -34.7125832451       11.7954295105  MEMB      68              0.0000000000
      8477        68  PMPE      C24           -16.6773042756      -32.7921086296       10.7399278199  MEMB      68              0.0000000000
      8478        68  PMPE      H4R           -15.5755005845      -32.8880240809       10.8455201142  MEMB      68              0.0000000000
      8479        68  PMPE      H4S           -17.0292386707      -31.7383975071       10.7274349608  MEMB      68              0.0000000000
      8480        68  PMPE      C25           -16.8946813487      -33.4345518242        9.3681578722  MEMB      68              0.0000000000
      8481        68  PMPE      H5R           -17.9999619282      -33.4080481917        9.2587357071  MEMB      68              0.0000000000
      8482        68  PMPE      H5S           -16.4922797447      -34.4699622270        9.3860248984  MEMB      68              0.0000000000
      8483        68  PMPE      C26           -16.3691142734      -32.5914586082        8.2174133019  MEMB      68              0.0000000000
      8484        68  PMPE      H6R           -15.2622700228      -32.6427207144        8.1362419654  MEMB      68              0.0000000000
      8485        68  PMPE      H6S           -16.6328940573      -31.5798936323        8.5935485324  MEMB      68              0.0000000000
      8486        68  PMPE      C27           -16.9482409920      -32.9537579471        6.8413109962  MEMB      68              0.0000000000
      8487        68  PMPE      H7R           -18.0541660500      -32.8506603930        6.8662455486  MEMB      68              0.0000000000
      8488        68  PMPE      H7S           -16.6683443920      -34.0120721051        6.6517068556  MEMB      68              0.0000000000
      8489        68  PMPE      C28           -16.3171663437      -32.1304809955        5.7005500433  MEMB      68              0.0000000000
      8490        68  PMPE      H8R           -15.2544525906      -32.1514360322        6.0238474926  MEMB      68              0.0000000000
      8491        68  PMPE      H8S           -16.7717652640      -31.1175694126        5.6596718262  MEMB      68              0.0000000000
      8492        68  PMPE      C29           -16.4950066468      -32.9308789243        4.4203792897  MEMB      68              0.0000000000
      8493        68  PMPE      H9R           -17.4751475602      -33.2562254548        4.0107525360  MEMB      68              0.0000000000
      8494        68  PMPE      C217          -15.4961514182      -34.0140344601        4.2163400991  MEMB      68              0.0000000000
      8495        68  PMPE      H17R          -15.9743762672      -34.9046781036        3.8278258285  MEMB      68              0.0000000000
      8496        68  PMPE      H17S          -14.6356391392      -33.9573706218        4.8714712288  MEMB      68              0.0000000000
      8497        68  PMPE      C210          -15.5042666474      -32.7614362812        3.3041438260  MEMB      68              0.0000000000
      8498        68  PMPE      H10R          -15.8993810326      -32.8673042297        2.2711880470  MEMB      68              0.0000000000
      8499        68  PMPE      C211          -14.3695655481      -31.7520445734        3.4663140915  MEMB      68              0.0000000000
      8500        68  PMPE      H11R          -13.5797380374      -31.9330917517        2.7062363906  MEMB      68              0.0000000000
      8501        68  PMPE      H11S          -13.8889051058      -31.8787655510        4.4599072199  MEMB      68              0.0000000000
      8502        68  PMPE      C212          -14.8479771924      -30.3307981285        3.2789149141  MEMB      68              0.0000000000
      8503        68  PMPE      H12R          -14.0836843384      -29.5821962325        3.5785353389  MEMB      68              0.0000000000
      8504        68  PMPE      H12S          -15.7097165393      -30.1046142201        3.9426670613  MEMB      68              0.0000000000
      8505        68  PMPE      C213          -15.3098748525      -29.8982482105        1.8525453805  MEMB      68              0.0000000000
      8506        68  PMPE      H13R          -16.2260116263      -30.4810236120        1.6172004778  MEMB      68              0.0000000000
      8507        68  PMPE      H13S          -14.4844439020      -30.1699217757        1.1603186096  MEMB      68              0.0000000000
      8508        68  PMPE      C214          -15.6845463857      -28.4370918120        1.6976476188  MEMB      68              0.0000000000
      8509        68  PMPE      H14R          -15.5901067223      -28.0716318384        0.6527351254  MEMB      68              0.0000000000
      8510        68  PMPE      H14S          -14.9412628695      -27.9495813917        2.3641180895  MEMB      68              0.0000000000
      8511        68  PMPE      C215          -16.9951126721      -28.1437371135        2.3419604588  MEMB      68              0.0000000000
      8512        68  PMPE      H15R          -17.2899971902      -28.8982232594        3.1022991121  MEMB      68              0.0000000000
      8513        68  PMPE      H15S          -17.7610967689      -28.4269821133        1.5887257346  MEMB      68              0.0000000000
      8514        68  PMPE      C216          -17.3468022624      -26.7209519727        2.7501368880  MEMB      68              0.0000000000
      8515        68  PMPE      H16R          -18.1768655344      -26.6112964863        3.4804044599  MEMB      68              0.0000000000
      8516        68  PMPE      H16S          -16.4440967325      -26.3535736894        3.2835006946  MEMB      68              0.0000000000
      8517        68  PMPE      H16T          -17.3678011555      -25.9735363505        1.9284003179  MEMB      68              0.0000000000
      8518        68  PMPE      C33           -23.2736309176      -32.5782923913       12.7186456132  MEMB      68              0.0000000000
      8519        68  PMPE      H3X           -23.6930902345      -31.5496184610       12.7329468771  MEMB      68              0.0000000000
      8520        68  PMPE      H3Y           -23.9339012055      -33.4058395937       12.3817035881  MEMB      68              0.0000000000
      8521        68  PMPE      C34           -22.0192623998      -32.4761986066       11.7986906158  MEMB      68              0.0000000000
      8522        68  PMPE      H4X           -21.6559189522      -33.5003859542       11.5677296094  MEMB      68              0.0000000000
      8523        68  PMPE      H4Y           -21.1779670456      -32.0039485104       12.3496199403  MEMB      68              0.0000000000
      8524        68  PMPE      C35           -22.3492590032      -31.6531690282       10.5686495986  MEMB      68              0.0000000000
      8525        68  PMPE      H5X           -22.4860714569      -30.6258099159       10.9688207170  MEMB      68              0.0000000000
      8526        68  PMPE      H5Y           -23.3705035036      -31.9767089705       10.2741966922  MEMB      68              0.0000000000
      8527        68  PMPE      C36           -21.4474888839      -31.8205273888        9.3140966478  MEMB      68              0.0000000000
      8528        68  PMPE      H6X           -21.3253396139      -32.8659008953        8.9582945120  MEMB      68              0.0000000000
      8529        68  PMPE      H6Y           -20.4329903426      -31.8152095041        9.7669596983  MEMB      68              0.0000000000
      8530        68  PMPE      C37           -21.6549509072      -30.6692316515        8.2836710035  MEMB      68              0.0000000000
      8531        68  PMPE      H7X           -21.4054988147      -29.6659873232        8.6906048394  MEMB      68              0.0000000000
      8532        68  PMPE      H7Y           -22.7211539824      -30.5396689199        7.9995144087  MEMB      68              0.0000000000
      8533        68  PMPE      C38           -20.8031350145      -30.8025065408        7.0038265306  MEMB      68              0.0000000000
      8534        68  PMPE      H8X           -20.9311702274      -31.7499345503        6.4378686312  MEMB      68              0.0000000000
      8535        68  PMPE      H8Y           -19.7132875179      -30.6861038113        7.1854964086  MEMB      68              0.0000000000
      8536        68  PMPE      C39           -20.9929921237      -29.5616057833        6.0715901150  MEMB      68              0.0000000000
      8537        68  PMPE      H9X           -20.6015026231      -28.6202588437        6.5130911390  MEMB      68              0.0000000000
      8538        68  PMPE      H9Y           -22.0980171290      -29.6026909423        5.9641040241  MEMB      68              0.0000000000
      8539        68  PMPE      C310          -20.4865098196      -29.8567544638        4.6363976930  MEMB      68              0.0000000000
      8540        68  PMPE      H10X          -19.3984398723      -30.0662532295        4.7172365501  MEMB      68              0.0000000000
      8541        68  PMPE      H10Y          -20.5570850836      -28.9228270793        4.0388030447  MEMB      68              0.0000000000
      8542        68  PMPE      C311          -21.1863392995      -30.9957900292        3.8472037103  MEMB      68              0.0000000000
      8543        68  PMPE      H11X          -22.2418798427      -30.7167487056        3.6415560635  MEMB      68              0.0000000000
      8544        68  PMPE      H11Y          -21.0805632320      -31.9547250780        4.3981807310  MEMB      68              0.0000000000
      8545        68  PMPE      C312          -20.5141381827      -31.2337994966        2.4972836379  MEMB      68              0.0000000000
      8546        68  PMPE      H12X          -19.4566498972      -31.5485058941        2.6276648605  MEMB      68              0.0000000000
      8547        68  PMPE      H12Y          -20.5275098257      -30.2557446955        1.9704522275  MEMB      68              0.0000000000
      8548        68  PMPE      C313          -21.2383385134      -32.3770725994        1.6354251179  MEMB      68              0.0000000000
      8549        68  PMPE      H13X          -22.3378917887      -32.2804283101        1.7617758501  MEMB      68              0.0000000000
      8550        68  PMPE      H13Y          -20.9121840003      -33.3680531785        2.0173959920  MEMB      68              0.0000000000
      8551        68  PMPE      C314          -20.7049462033      -32.3660640178        0.1937776116  MEMB      68              0.0000000000
      8552        68  PMPE      H14X          -20.9240511914      -31.3541927311       -0.2092486163  MEMB      68              0.0000000000
      8553        68  PMPE      H14Y          -21.3127651742      -33.1100201413       -0.3642606395  MEMB      68              0.0000000000
      8554        68  PMPE      C315          -19.2333741698      -32.5722953848       -0.0988031634  MEMB      68              0.0000000000
      8555        68  PMPE      H15X          -18.8166100377      -33.4191897720        0.4871993919  MEMB      68              0.0000000000
      8556        68  PMPE      H15Y          -18.7553224825      -31.6843534309        0.3674025853  MEMB      68              0.0000000000
      8557        68  PMPE      C316          -18.8820648669      -32.6417675711       -1.5704516099  MEMB      68              0.0000000000
      8558        68  PMPE      H16X          -19.1262270340      -31.6711437237       -2.0527337013  MEMB      68              0.0000000000
      8559        68  PMPE      H16Y          -19.3678576029      -33.5035881672       -2.0760121348  MEMB      68              0.0000000000
      8560        68  PMPE      H16Z          -17.8113632810      -32.9158882233       -1.6834896286  MEMB      68              0.0000000000
      8561        69  PMPE      N              24.8131624047      -25.7793357353       20.1395285811  MEMB      69              0.0000000000
      8562        69  PMPE      HN1            25.4433473306      -24.9592178509       20.0305625254  MEMB      69              0.0000000000
      8563        69  PMPE      HN2            23.8699710602      -25.4538444113       19.8461940878  MEMB      69              0.0000000000
      8564        69  PMPE      HN3            24.8711752264      -25.9925995220       21.1557730482  MEMB      69              0.0000000000
      8565        69  PMPE      C12            25.1634165992      -26.9423159006       19.3111864698  MEMB      69              0.0000000000
      8566        69  PMPE      H12A           24.7032407192      -26.8649268847       18.3029355295  MEMB      69              0.0000000000
      8567        69  PMPE      H12B           24.6421572345      -27.7970836585       19.7928310246  MEMB      69              0.0000000000
      8568        69  PMPE      C11            26.6628147145      -27.1680006452       19.1510940529  MEMB      69              0.0000000000
      8569        69  PMPE      H11A           26.8314494772      -28.1171689336       18.5988594995  MEMB      69              0.0000000000
      8570        69  PMPE      H11B           27.1740958862      -27.3013280456       20.1284048809  MEMB      69              0.0000000000
      8571        69  PMPE      P              28.7402311065      -25.7526744927       18.7133640345  MEMB      69              0.0000000000
      8572        69  PMPE      O13            29.6577971721      -26.6001605148       17.9753479436  MEMB      69              0.0000000000
      8573        69  PMPE      O14            29.0985872722      -25.6281903261       20.1473792398  MEMB      69              0.0000000000
      8574        69  PMPE      O11            28.7157854483      -24.3062841810       18.1268487587  MEMB      69              0.0000000000
      8575        69  PMPE      O12            27.2331029248      -26.0784877380       18.4352509193  MEMB      69              0.0000000000
      8576        69  PMPE      C1             27.7697385942      -23.5698940095       17.3058947501  MEMB      69              0.0000000000
      8577        69  PMPE      HA             28.1509500345      -22.5263855993       17.3153414383  MEMB      69              0.0000000000
      8578        69  PMPE      HB             26.8473365737      -23.4797459489       17.9185681577  MEMB      69              0.0000000000
      8579        69  PMPE      C2             27.4249065021      -24.1022520814       15.8559228322  MEMB      69              0.0000000000
      8580        69  PMPE      HS             26.9604812263      -25.1072016023       15.9492322951  MEMB      69              0.0000000000
      8581        69  PMPE      O21            28.6658622787      -24.1943746460       15.1652912041  MEMB      69              0.0000000000
      8582        69  PMPE      C21            28.7684122618      -25.2926507821       14.3466110369  MEMB      69              0.0000000000
      8583        69  PMPE      O22            27.9329785349      -26.1923617162       14.2625793172  MEMB      69              0.0000000000
      8584        69  PMPE      C22            30.0132211491      -25.2704147115       13.5298030871  MEMB      69              0.0000000000
      8585        69  PMPE      H2R            30.6239328746      -26.0762810703       13.9901629887  MEMB      69              0.0000000000
      8586        69  PMPE      H2S            30.6551854203      -24.3714597228       13.6484748553  MEMB      69              0.0000000000
      8587        69  PMPE      C3             26.4267087737      -23.0847057120       15.0953366733  MEMB      69              0.0000000000
      8588        69  PMPE      HX             26.9722615334      -22.1197548250       15.1699218111  MEMB      69              0.0000000000
      8589        69  PMPE      HY             25.5077506860      -23.0411851128       15.7181873749  MEMB      69              0.0000000000
      8590        69  PMPE      O31            26.2369693573      -23.5407895553       13.7896944608  MEMB      69              0.0000000000
      8591        69  PMPE      C31            25.2770574814      -24.4473093579       13.6150810043  MEMB      69              0.0000000000
      8592        69  PMPE      O32            24.4857604442      -24.8136163095       14.4902179636  MEMB      69              0.0000000000
      8593        69  PMPE      C32            25.3614628339      -24.9076665432       12.1426263389  MEMB      69              0.0000000000
      8594        69  PMPE      H2X            26.1053118784      -24.2893036359       11.5961496168  MEMB      69              0.0000000000
      8595        69  PMPE      H2Y            24.4030235525      -24.6277161648       11.6554476325  MEMB      69              0.0000000000
      8596        69  PMPE      C23            29.8118200161      -25.4488466197       12.0489884688  MEMB      69              0.0000000000
      8597        69  PMPE      H3R            29.1591730968      -24.6618456086       11.6142440488  MEMB      69              0.0000000000
      8598        69  PMPE      H3S            29.2865960435      -26.4218368913       11.9405882910  MEMB      69              0.0000000000
      8599        69  PMPE      C24            31.0849525794      -25.3730376812       11.2058737310  MEMB      69              0.0000000000
      8600        69  PMPE      H4R            31.6459747231      -26.3015615781       11.4454946114  MEMB      69              0.0000000000
      8601        69  PMPE      H4S            31.7090677141      -24.5107150754       11.5239943198  MEMB      69              0.0000000000
      8602        69  PMPE      C25            30.7477348805      -25.3231389021        9.7012098051  MEMB      69              0.0000000000
      8603        69  PMPE      H5R            30.1874651873      -24.3654158214        9.6447719180  MEMB      69              0.0000000000
      8604        69  PMPE      H5S            30.0652216918      -26.1925942659        9.5892098280  MEMB      69              0.0000000000
      8605        69  PMPE      C26            31.9710452018      -25.5155898332        8.7703669018  MEMB      69              0.0000000000
      8606        69  PMPE      H6R            32.3227131407      -26.5539416182        8.5901564717  MEMB      69              0.0000000000
      8607        69  PMPE      H6S            32.8632169518      -25.0502762594        9.2413596148  MEMB      69              0.0000000000
      8608        69  PMPE      C27            31.7364249831      -24.9193555892        7.4138502168  MEMB      69              0.0000000000
      8609        69  PMPE      H7R            32.5914951584      -24.6097530998        6.7756315556  MEMB      69              0.0000000000
      8610        69  PMPE      H7S            31.2767502347      -23.9171687040        7.5503850289  MEMB      69              0.0000000000
      8611        69  PMPE      C28            30.8009570727      -25.7594856911        6.5362209265  MEMB      69              0.0000000000
      8612        69  PMPE      H8R            30.9052130930      -26.7900116910        6.9380514012  MEMB      69              0.0000000000
      8613        69  PMPE      H8S            31.2544829305      -25.6824642062        5.5249329563  MEMB      69              0.0000000000
      8614        69  PMPE      C29            29.4101055484      -25.2929893030        6.5982604964  MEMB      69              0.0000000000
      8615        69  PMPE      H9R            28.8558269858      -25.5311272117        7.5312059796  MEMB      69              0.0000000000
      8616        69  PMPE      C217           28.6811345871      -25.1923152074        5.2229467734  MEMB      69              0.0000000000
      8617        69  PMPE      H17R           27.6710855581      -25.5829102213        5.2117483811  MEMB      69              0.0000000000
      8618        69  PMPE      H17S           29.3102052019      -25.2357903363        4.3424531265  MEMB      69              0.0000000000
      8619        69  PMPE      C210           28.9888974337      -23.9509154357        6.0322545510  MEMB      69              0.0000000000
      8620        69  PMPE      H10R           28.1571814951      -23.4656109744        6.5863744948  MEMB      69              0.0000000000
      8621        69  PMPE      C211           30.0691810982      -23.0765169455        5.3225058146  MEMB      69              0.0000000000
      8622        69  PMPE      H11R           30.7118008694      -23.7194286495        4.6837369553  MEMB      69              0.0000000000
      8623        69  PMPE      H11S           30.6809876501      -22.5503652976        6.0861666867  MEMB      69              0.0000000000
      8624        69  PMPE      C212           29.4820768170      -21.8875906819        4.5299195904  MEMB      69              0.0000000000
      8625        69  PMPE      H12R           28.8479491098      -21.3003743551        5.2280458527  MEMB      69              0.0000000000
      8626        69  PMPE      H12S           28.8191062030      -22.3556341401        3.7711534977  MEMB      69              0.0000000000
      8627        69  PMPE      C213           30.5414847437      -20.9867214225        3.9020144588  MEMB      69              0.0000000000
      8628        69  PMPE      H13R           31.0556270635      -20.4344299221        4.7174606469  MEMB      69              0.0000000000
      8629        69  PMPE      H13S           29.9534480596      -20.2853991560        3.2721876863  MEMB      69              0.0000000000
      8630        69  PMPE      C214           31.6804109622      -21.6880610296        3.0786126351  MEMB      69              0.0000000000
      8631        69  PMPE      H14R           32.1920331330      -22.4890884263        3.6538690770  MEMB      69              0.0000000000
      8632        69  PMPE      H14S           32.4594784692      -20.9017444528        2.9833177294  MEMB      69              0.0000000000
      8633        69  PMPE      C215           31.0590387258      -22.2840609861        1.8692554624  MEMB      69              0.0000000000
      8634        69  PMPE      H15R           30.5128189128      -21.4926932564        1.3127447967  MEMB      69              0.0000000000
      8635        69  PMPE      H15S           30.2677705426      -22.9873833457        2.2062309680  MEMB      69              0.0000000000
      8636        69  PMPE      C216           31.9058400136      -23.0701404576        0.8080433258  MEMB      69              0.0000000000
      8637        69  PMPE      H16R           32.6819572563      -22.3411177957        0.4910421715  MEMB      69              0.0000000000
      8638        69  PMPE      H16S           32.5118057546      -23.7885767000        1.4004754889  MEMB      69              0.0000000000
      8639        69  PMPE      H16T           31.3999378605      -23.6118637555       -0.0195567942  MEMB      69              0.0000000000
      8640        69  PMPE      C33            25.5115117331      -26.4380890440       11.9247416212  MEMB      69              0.0000000000
      8641        69  PMPE      H3X            24.5586810883      -26.8456343416       12.3251678934  MEMB      69              0.0000000000
      8642        69  PMPE      H3Y            26.3127709798      -26.8439595474       12.5786329084  MEMB      69              0.0000000000
      8643        69  PMPE      C34            25.7935322248      -26.8741317570       10.4972077045  MEMB      69              0.0000000000
      8644        69  PMPE      H4X            26.3630255958      -26.0205127320       10.0713763679  MEMB      69              0.0000000000
      8645        69  PMPE      H4Y            24.8180317954      -26.9610816284        9.9726506586  MEMB      69              0.0000000000
      8646        69  PMPE      C35            26.7032532752      -28.1606614221       10.5893767653  MEMB      69              0.0000000000
      8647        69  PMPE      H5X            25.9995608105      -29.0098948967       10.7233184868  MEMB      69              0.0000000000
      8648        69  PMPE      H5Y            27.4532581523      -28.1431694750       11.4088327183  MEMB      69              0.0000000000
      8649        69  PMPE      C36            27.4800115097      -28.4672992342        9.2940432084  MEMB      69              0.0000000000
      8650        69  PMPE      H6X            28.2116671490      -29.2610060272        9.5567800358  MEMB      69              0.0000000000
      8651        69  PMPE      H6Y            28.0977176877      -27.5989261384        8.9798962114  MEMB      69              0.0000000000
      8652        69  PMPE      C37            26.7156197097      -29.0922020058        8.0486563646  MEMB      69              0.0000000000
      8653        69  PMPE      H7X            25.7705346602      -29.5812318438        8.3680073051  MEMB      69              0.0000000000
      8654        69  PMPE      H7Y            27.3294966411      -29.9079683718        7.6104765640  MEMB      69              0.0000000000
      8655        69  PMPE      C38            26.3073259287      -28.0420700795        6.9721315853  MEMB      69              0.0000000000
      8656        69  PMPE      H8X            26.7946429269      -28.2452394139        5.9946014501  MEMB      69              0.0000000000
      8657        69  PMPE      H8Y            26.7725001082      -27.0934689488        7.3157744813  MEMB      69              0.0000000000
      8658        69  PMPE      C39            24.8067484041      -27.8676714187        6.7993917314  MEMB      69              0.0000000000
      8659        69  PMPE      H9X            24.4059472381      -27.5066879482        7.7706636241  MEMB      69              0.0000000000
      8660        69  PMPE      H9Y            24.3484431945      -28.8732970455        6.6854011089  MEMB      69              0.0000000000
      8661        69  PMPE      C310           24.2899790759      -26.9354884290        5.6175274735  MEMB      69              0.0000000000
      8662        69  PMPE      H10X           23.1820606956      -27.0118734554        5.6491970359  MEMB      69              0.0000000000
      8663        69  PMPE      H10Y           24.6220797712      -27.1929874299        4.5890699739  MEMB      69              0.0000000000
      8664        69  PMPE      C311           24.6980399361      -25.3986420086        5.8906618979  MEMB      69              0.0000000000
      8665        69  PMPE      H11X           25.7734634954      -25.2672852925        6.1366912967  MEMB      69              0.0000000000
      8666        69  PMPE      H11Y           24.2177174419      -25.0550185251        6.8316900104  MEMB      69              0.0000000000
      8667        69  PMPE      C312           24.2154493956      -24.4583246841        4.7334016506  MEMB      69              0.0000000000
      8668        69  PMPE      H12X           23.1327407586      -24.2948503314        4.9213887416  MEMB      69              0.0000000000
      8669        69  PMPE      H12Y           24.3135939587      -24.9658251383        3.7499730445  MEMB      69              0.0000000000
      8670        69  PMPE      C313           25.0179948714      -23.1426769900        4.7070581365  MEMB      69              0.0000000000
      8671        69  PMPE      H13X           26.0719548343      -23.3589160584        4.9840607972  MEMB      69              0.0000000000
      8672        69  PMPE      H13Y           24.7736473370      -22.2989072204        5.3872549148  MEMB      69              0.0000000000
      8673        69  PMPE      C314           25.1657677347      -22.7401669444        3.2500403465  MEMB      69              0.0000000000
      8674        69  PMPE      H14X           25.5208637054      -23.6082380554        2.6544901648  MEMB      69              0.0000000000
      8675        69  PMPE      H14Y           25.9150933604      -21.9199099840        3.2467852605  MEMB      69              0.0000000000
      8676        69  PMPE      C315           23.8489704325      -22.1486433135        2.7808769505  MEMB      69              0.0000000000
      8677        69  PMPE      H15X           23.4512878883      -21.4342240090        3.5330568895  MEMB      69              0.0000000000
      8678        69  PMPE      H15Y           23.0928875800      -22.9614367362        2.8259008893  MEMB      69              0.0000000000
      8679        69  PMPE      C316           23.8324642245      -21.6688757937        1.3679808098  MEMB      69              0.0000000000
      8680        69  PMPE      H16X           22.7683024757      -21.4121385905        1.1783295058  MEMB      69              0.0000000000
      8681        69  PMPE      H16Y           24.1680788414      -22.5584636853        0.7932481720  MEMB      69              0.0000000000
      8682        69  PMPE      H16Z           24.4439763228      -20.7578266844        1.1937300460  MEMB      69              0.0000000000
      8683        70  OYPE      N               2.3053852387       38.4426730269       21.2871468221  MEMB      70              0.0000000000
      8684        70  OYPE      HN1             1.2957284114       38.3420707555       21.5153404087  MEMB      70              0.0000000000
      8685        70  OYPE      HN2             2.9672805116       38.4925435605       22.0877761696  MEMB      70              0.0000000000
      8686        70  OYPE      HN3             2.4481196312       39.3129322049       20.7358975802  MEMB      70              0.0000000000
      8687        70  OYPE      C12             2.6390228864       37.3434299968       20.3966194348  MEMB      70              0.0000000000
      8688        70  OYPE      H12A            1.8699957467       37.3123633031       19.5953998106  MEMB      70              0.0000000000
      8689        70  OYPE      H12B            2.6344641336       36.3595434595       20.9126305131  MEMB      70              0.0000000000
      8690        70  OYPE      C11             4.1098619597       37.5858422858       19.9621414236  MEMB      70              0.0000000000
      8691        70  OYPE      H11A            4.5851601698       37.6833341297       20.9615951567  MEMB      70              0.0000000000
      8692        70  OYPE      H11B            4.3289939893       38.5491841109       19.4539340026  MEMB      70              0.0000000000
      8693        70  OYPE      P               5.6823533844       36.6487830291       18.0846811858  MEMB      70              0.0000000000
      8694        70  OYPE      O13             6.0874315645       35.2738560119       17.7041414259  MEMB      70              0.0000000000
      8695        70  OYPE      O14             6.7163136844       37.4661318996       18.6747980404  MEMB      70              0.0000000000
      8696        70  OYPE      O11             4.9856585942       37.4207259787       16.7857881495  MEMB      70              0.0000000000
      8697        70  OYPE      O12             4.4562522237       36.5025388109       19.1046835177  MEMB      70              0.0000000000
      8698        70  OYPE      C1              3.6823562581       37.1441090965       16.3945274283  MEMB      70              0.0000000000
      8699        70  OYPE      HA              3.2153807592       38.0827140188       16.0267289842  MEMB      70              0.0000000000
      8700        70  OYPE      HB              3.0585724136       36.7939166778       17.2445743654  MEMB      70              0.0000000000
      8701        70  OYPE      C2              3.5523642575       36.1775209430       15.2448842577  MEMB      70              0.0000000000
      8702        70  OYPE      HS              4.1226662130       35.3277717176       15.6773229090  MEMB      70              0.0000000000
      8703        70  OYPE      O21             4.2243636969       36.7645078725       14.1196011417  MEMB      70              0.0000000000
      8704        70  OYPE      C21             4.6831065925       35.9749146211       13.1686665600  MEMB      70              0.0000000000
      8705        70  OYPE      O22             4.8574923254       34.7393854142       13.1913122056  MEMB      70              0.0000000000
      8706        70  OYPE      C22             5.1778747682       36.8366689780       11.9819571915  MEMB      70              0.0000000000
      8707        70  OYPE      H2R             6.0909595538       37.3403448303       12.3652423786  MEMB      70              0.0000000000
      8708        70  OYPE      H2S             4.4609233731       37.6651315264       11.7976979092  MEMB      70              0.0000000000
      8709        70  OYPE      C3              2.0379944405       35.9117283883       14.9512384993  MEMB      70              0.0000000000
      8710        70  OYPE      HX              1.5561776119       36.8812113792       14.7016859061  MEMB      70              0.0000000000
      8711        70  OYPE      HY              1.5494441547       35.5766278610       15.8911040721  MEMB      70              0.0000000000
      8712        70  OYPE      O31             1.7713794301       34.9741531905       13.9085413043  MEMB      70              0.0000000000
      8713        70  OYPE      C31             2.1449992940       33.7426192092       14.2157807186  MEMB      70              0.0000000000
      8714        70  OYPE      O32             2.3328714868       33.2773942690       15.3439037309  MEMB      70              0.0000000000
      8715        70  OYPE      C32             2.2302443463       32.9327829734       12.8949752931  MEMB      70              0.0000000000
      8716        70  OYPE      H2X             3.2271804082       32.4429686113       12.8721437985  MEMB      70              0.0000000000
      8717        70  OYPE      H2Y             1.3264663277       32.2874812086       12.8619317165  MEMB      70              0.0000000000
      8718        70  OYPE      C23             5.4813928306       35.9798784013       10.6801427721  MEMB      70              0.0000000000
      8719        70  OYPE      H3R             4.4773807930       35.5921943389       10.4044939781  MEMB      70              0.0000000000
      8720        70  OYPE      H3S             6.0826937082       35.0864718014       10.9532413371  MEMB      70              0.0000000000
      8721        70  OYPE      C24             5.9941037902       36.8452285706        9.4966560260  MEMB      70              0.0000000000
      8722        70  OYPE      H4R             7.0612368469       37.1517626208        9.5364690752  MEMB      70              0.0000000000
      8723        70  OYPE      H4S             5.5013739681       37.8376292480        9.5783804258  MEMB      70              0.0000000000
      8724        70  OYPE      C25             5.6793855301       36.1670607467        8.1241250999  MEMB      70              0.0000000000
      8725        70  OYPE      H5R             6.1848795979       35.1786973935        8.0801405045  MEMB      70              0.0000000000
      8726        70  OYPE      H5S             6.1693889731       36.7572365221        7.3204395578  MEMB      70              0.0000000000
      8727        70  OYPE      C26             4.1895141049       36.1697589422        7.6946893567  MEMB      70              0.0000000000
      8728        70  OYPE      H6R             3.4955195268       35.8606394784        8.5053299041  MEMB      70              0.0000000000
      8729        70  OYPE      H6S             4.1029411236       35.6248117287        6.7303971211  MEMB      70              0.0000000000
      8730        70  OYPE      C27             3.6436395472       37.5828370199        7.4018381095  MEMB      70              0.0000000000
      8731        70  OYPE      H7R             3.9394030028       38.0525254070        6.4394257869  MEMB      70              0.0000000000
      8732        70  OYPE      H7S             3.7443248206       38.2475137838        8.2863649625  MEMB      70              0.0000000000
      8733        70  OYPE      C28             2.1455853363       37.3024225125        7.0997850621  MEMB      70              0.0000000000
      8734        70  OYPE      H8R             1.7968145700       36.6940485602        7.9615048194  MEMB      70              0.0000000000
      8735        70  OYPE      H8S             2.1418078727       36.5937699327        6.2441454212  MEMB      70              0.0000000000
      8736        70  OYPE      C29             1.2751988243       38.5317126963        6.8716731999  MEMB      70              0.0000000000
      8737        70  OYPE      H9R             1.4148447949       39.3251469650        7.6206462774  MEMB      70              0.0000000000
      8738        70  OYPE      C210            0.3189184582       38.6603432762        5.9223097752  MEMB      70              0.0000000000
      8739        70  OYPE      H10R           -0.2169503834       39.6208174252        5.9040225807  MEMB      70              0.0000000000
      8740        70  OYPE      C211           -0.0818797648       37.5774223607        4.9878475714  MEMB      70              0.0000000000
      8741        70  OYPE      H11R           -1.1752580181       37.7332351110        4.8671490891  MEMB      70              0.0000000000
      8742        70  OYPE      H11S            0.0067411692       36.5482558870        5.3968512882  MEMB      70              0.0000000000
      8743        70  OYPE      C212            0.4982687391       37.5747140378        3.6025482885  MEMB      70              0.0000000000
      8744        70  OYPE      H12R            1.5428004945       37.2028191983        3.6730348963  MEMB      70              0.0000000000
      8745        70  OYPE      H12S            0.6572976615       38.6386908347        3.3250875905  MEMB      70              0.0000000000
      8746        70  OYPE      C213           -0.1128192675       36.7076484685        2.5603716740  MEMB      70              0.0000000000
      8747        70  OYPE      H13R           -1.2164283928       36.8155565689        2.4916431786  MEMB      70              0.0000000000
      8748        70  OYPE      H13S            0.0532063197       35.6561150731        2.8782299857  MEMB      70              0.0000000000
      8749        70  OYPE      C214            0.4755493636       36.9765086285        1.1429501247  MEMB      70              0.0000000000
      8750        70  OYPE      H14R            1.5375689264       36.6513113672        1.1168285065  MEMB      70              0.0000000000
      8751        70  OYPE      H14S            0.4811555648       38.0789863926        1.0057191394  MEMB      70              0.0000000000
      8752        70  OYPE      C215           -0.3350778720       36.3350204462       -0.0420507726  MEMB      70              0.0000000000
      8753        70  OYPE      H15R            0.0369174394       36.8373303226       -0.9605420635  MEMB      70              0.0000000000
      8754        70  OYPE      H15S           -1.4287008050       36.5303965881       -0.0302816903  MEMB      70              0.0000000000
      8755        70  OYPE      C216           -0.1966660212       34.8422058329       -0.1933887108  MEMB      70              0.0000000000
      8756        70  OYPE      H16R           -0.5108016100       34.2514146341        0.6935178327  MEMB      70              0.0000000000
      8757        70  OYPE      H16S            0.7737013099       34.4101259494       -0.5189882474  MEMB      70              0.0000000000
      8758        70  OYPE      H16T           -0.8786686800       34.4296926796       -0.9673566481  MEMB      70              0.0000000000
      8759        70  OYPE      C33             2.0752583357       33.8539933511       11.6576182996  MEMB      70              0.0000000000
      8760        70  OYPE      H3X             2.6611454107       34.7872393815       11.7994265423  MEMB      70              0.0000000000
      8761        70  OYPE      H3Y             0.9933124258       34.0784284836       11.7731294286  MEMB      70              0.0000000000
      8762        70  OYPE      C34             2.3840011785       33.1359640829       10.3358341158  MEMB      70              0.0000000000
      8763        70  OYPE      H4X             2.7473934480       33.7926236740        9.5166486126  MEMB      70              0.0000000000
      8764        70  OYPE      H4Y             3.0507879465       32.2546009299       10.4494799944  MEMB      70              0.0000000000
      8765        70  OYPE      C35             1.2270670245       32.5459990231        9.6735864284  MEMB      70              0.0000000000
      8766        70  OYPE      H5X             0.3644392357       33.2455739373        9.7016898559  MEMB      70              0.0000000000
      8767        70  OYPE      H5Y             0.8991397821       31.6371080806       10.2219497815  MEMB      70              0.0000000000
      8768        70  OYPE      C36             1.3963758265       32.1848706874        8.1359528688  MEMB      70              0.0000000000
      8769        70  OYPE      H6X             2.3332690145       31.5928748615        8.0578951677  MEMB      70              0.0000000000
      8770        70  OYPE      H6Y             0.5771617946       31.4971089178        7.8356314137  MEMB      70              0.0000000000
      8771        70  OYPE      C37             1.5395092721       33.3122041102        7.1658537849  MEMB      70              0.0000000000
      8772        70  OYPE      H7X             0.5819037912       33.8566846555        7.3102623437  MEMB      70              0.0000000000
      8773        70  OYPE      H7Y             2.4395220598       33.9342246534        7.3592152964  MEMB      70              0.0000000000
      8774        70  OYPE      C38             1.3908347445       32.8192905953        5.7050210401  MEMB      70              0.0000000000
      8775        70  OYPE      H8X             0.3513370174       32.4278589363        5.7284000054  MEMB      70              0.0000000000
      8776        70  OYPE      H8Y             1.5024855017       33.7020748185        5.0397792299  MEMB      70              0.0000000000
      8777        70  OYPE      C39             2.4117621213       31.7242109011        5.3285713164  MEMB      70              0.0000000000
      8778        70  OYPE      H9X             2.4452418720       30.9064313639        6.0634969335  MEMB      70              0.0000000000
      8779        70  OYPE      C310            3.1908875929       31.6432146998        4.2618620018  MEMB      70              0.0000000000
      8780        70  OYPE      H10X            3.9270434495       30.8333817581        4.1512054201  MEMB      70              0.0000000000
      8781        70  OYPE      C311            3.1853902810       32.6631353968        3.0817892489  MEMB      70              0.0000000000
      8782        70  OYPE      H11X            2.6796813022       32.1612954853        2.2293006191  MEMB      70              0.0000000000
      8783        70  OYPE      H11Y            2.4823192153       33.5076811205        3.2453555720  MEMB      70              0.0000000000
      8784        70  OYPE      C312            4.5683645824       33.0185699423        2.5394465679  MEMB      70              0.0000000000
      8785        70  OYPE      H12X            4.4978500188       33.6176629494        1.6064743610  MEMB      70              0.0000000000
      8786        70  OYPE      H12Y            5.1677079015       32.1295019453        2.2484720310  MEMB      70              0.0000000000
      8787        70  OYPE      C313            5.2817948296       33.7799402453        3.6697356570  MEMB      70              0.0000000000
      8788        70  OYPE      H13X            5.2459961672       33.1547587300        4.5874434922  MEMB      70              0.0000000000
      8789        70  OYPE      H13Y            6.3588500223       33.8860421386        3.4187067906  MEMB      70              0.0000000000
      8790        70  OYPE      C314            4.7268796745       35.1965727158        3.9595786997  MEMB      70              0.0000000000
      8791        70  OYPE      H14X            5.3333353936       35.5669753934        4.8135899165  MEMB      70              0.0000000000
      8792        70  OYPE      H14Y            3.7011460279       35.4290437789        4.3175572875  MEMB      70              0.0000000000
      8793        70  OYPE      C315            5.0063914177       36.2264404619        2.8300749359  MEMB      70              0.0000000000
      8794        70  OYPE      H15X            4.3298190777       35.9172683996        2.0048572619  MEMB      70              0.0000000000
      8795        70  OYPE      H15Y            6.0848703420       36.2526953100        2.5645289770  MEMB      70              0.0000000000
      8796        70  OYPE      C316            4.6451340484       37.6536363895        3.2136910232  MEMB      70              0.0000000000
      8797        70  OYPE      H16X            4.8810871290       37.8646832841        4.2786347670  MEMB      70              0.0000000000
      8798        70  OYPE      H16Y            3.5452990022       37.7404019695        3.0827113138  MEMB      70              0.0000000000
      8799        70  OYPE      C317            5.2321891433       38.8008464844        2.3320909590  MEMB      70              0.0000000000
      8800        70  OYPE      H17X            6.2870523869       38.9517810386        2.6464197972  MEMB      70              0.0000000000
      8801        70  OYPE      H17Y            4.8084469206       39.7670212952        2.6803287708  MEMB      70              0.0000000000
      8802        70  OYPE      C318            5.3025211866       38.7465763682        0.7910558853  MEMB      70              0.0000000000
      8803        70  OYPE      H18X            5.7919830679       39.6323107447        0.3325556366  MEMB      70              0.0000000000
      8804        70  OYPE      H18Y            5.9579068805       37.9305593841        0.4183526589  MEMB      70              0.0000000000
      8805        70  OYPE      H18Z            4.2689621632       38.6304071087        0.4004382030  MEMB      70              0.0000000000
      8806        71  QMPE      N              39.0063277597        7.4922001602       18.0958217936  MEMB      71              0.0000000000
      8807        71  QMPE      HN1            39.7375718269        8.2022320171       17.8890922303  MEMB      71              0.0000000000
      8808        71  QMPE      HN2            38.8472361601        6.8512106847       17.2924401131  MEMB      71              0.0000000000
      8809        71  QMPE      HN3            38.1019737890        7.9981533184       18.1838869102  MEMB      71              0.0000000000
      8810        71  QMPE      C12            39.2267887670        6.7957526757       19.3926492720  MEMB      71              0.0000000000
      8811        71  QMPE      H12A           39.1913230335        7.5297221127       20.2259271840  MEMB      71              0.0000000000
      8812        71  QMPE      H12B           40.2169324524        6.2927737600       19.3618474782  MEMB      71              0.0000000000
      8813        71  QMPE      C11            38.1935548857        5.7376395143       19.8140369526  MEMB      71              0.0000000000
      8814        71  QMPE      H11A           37.2413076682        6.2302275562       20.1054187472  MEMB      71              0.0000000000
      8815        71  QMPE      H11B           38.7413764888        5.2665474715       20.6580065601  MEMB      71              0.0000000000
      8816        71  QMPE      P              37.2619532889        3.5225005773       19.0211728738  MEMB      71              0.0000000000
      8817        71  QMPE      O13            35.8179742274        3.7997510121       19.1357958925  MEMB      71              0.0000000000
      8818        71  QMPE      O14            38.0165953093        2.8722247535       20.1110812268  MEMB      71              0.0000000000
      8819        71  QMPE      O11            37.4342063573        2.5828844154       17.6883831227  MEMB      71              0.0000000000
      8820        71  QMPE      O12            38.0658321813        4.8421100319       18.7410588648  MEMB      71              0.0000000000
      8821        71  QMPE      C1             38.6800245060        2.5794403755       16.9144753273  MEMB      71              0.0000000000
      8822        71  QMPE      HA             39.1388133247        1.5698911360       16.9826222795  MEMB      71              0.0000000000
      8823        71  QMPE      HB             39.3712407337        3.3715376849       17.2738122203  MEMB      71              0.0000000000
      8824        71  QMPE      C2             38.2638500850        2.9288481731       15.4389723162  MEMB      71              0.0000000000
      8825        71  QMPE      HS             37.7487257071        3.9002063053       15.5984441879  MEMB      71              0.0000000000
      8826        71  QMPE      O21            37.4010733027        1.8230514621       15.0682231367  MEMB      71              0.0000000000
      8827        71  QMPE      C21            36.3740449314        2.1939874428       14.2800079082  MEMB      71              0.0000000000
      8828        71  QMPE      O22            36.1469374960        3.3232641850       13.9471455988  MEMB      71              0.0000000000
      8829        71  QMPE      C22            35.4954233046        1.0060978228       13.8731697763  MEMB      71              0.0000000000
      8830        71  QMPE      H2R            34.5624377029        1.4503411344       13.4651172492  MEMB      71              0.0000000000
      8831        71  QMPE      H2S            35.2238182373        0.2935751950       14.6811691343  MEMB      71              0.0000000000
      8832        71  QMPE      C3             39.4717772773        3.0592808818       14.4915141024  MEMB      71              0.0000000000
      8833        71  QMPE      HX             40.0033737474        2.1178731712       14.7474009218  MEMB      71              0.0000000000
      8834        71  QMPE      HY             40.0744921741        3.9208355672       14.8503725864  MEMB      71              0.0000000000
      8835        71  QMPE      O31            39.0845036132        3.1564383653       13.1402934984  MEMB      71              0.0000000000
      8836        71  QMPE      C31            38.9571355674        4.3358041384       12.6239838641  MEMB      71              0.0000000000
      8837        71  QMPE      O32            38.8926179283        5.4166430908       13.1224951847  MEMB      71              0.0000000000
      8838        71  QMPE      C32            38.5531040323        4.1856067674       11.1788901878  MEMB      71              0.0000000000
      8839        71  QMPE      H2X            38.9404744052        4.9948437656       10.5236035790  MEMB      71              0.0000000000
      8840        71  QMPE      H2Y            38.9924997531        3.2874639436       10.6945438176  MEMB      71              0.0000000000
      8841        71  QMPE      C23            36.2682389768        0.2108284552       12.7467150830  MEMB      71              0.0000000000
      8842        71  QMPE      H3R            37.0556028929       -0.4453262802       13.1754806404  MEMB      71              0.0000000000
      8843        71  QMPE      H3S            36.7260373900        0.9520684646       12.0572912526  MEMB      71              0.0000000000
      8844        71  QMPE      C24            35.2703783953       -0.7366626170       11.8838711741  MEMB      71              0.0000000000
      8845        71  QMPE      H4R            34.4754793504       -0.2560896537       11.2743587849  MEMB      71              0.0000000000
      8846        71  QMPE      H4S            34.7051217041       -1.3386404481       12.6271267187  MEMB      71              0.0000000000
      8847        71  QMPE      C25            35.9483112795       -1.4906070709       10.8430940780  MEMB      71              0.0000000000
      8848        71  QMPE      H5R            35.2010238327       -2.0618057821       10.2518122645  MEMB      71              0.0000000000
      8849        71  QMPE      H5S            36.3879373414       -2.3369496450       11.4129658146  MEMB      71              0.0000000000
      8850        71  QMPE      C26            36.8712387380       -0.8536044859        9.8180064151  MEMB      71              0.0000000000
      8851        71  QMPE      H6R            37.4660567716       -1.6206968562        9.2775610068  MEMB      71              0.0000000000
      8852        71  QMPE      H6S            37.7079299032       -0.3138473264       10.3108873325  MEMB      71              0.0000000000
      8853        71  QMPE      C27            36.2537244536       -0.0323426686        8.6724753206  MEMB      71              0.0000000000
      8854        71  QMPE      H7R            35.5900563684        0.6515840515        9.2435358105  MEMB      71              0.0000000000
      8855        71  QMPE      H7S            35.6803007451       -0.6648324105        7.9615162436  MEMB      71              0.0000000000
      8856        71  QMPE      C28            37.1838818878        0.7241730787        7.7388866912  MEMB      71              0.0000000000
      8857        71  QMPE      H8R            37.8516723722        1.3599546033        8.3586922853  MEMB      71              0.0000000000
      8858        71  QMPE      H8S            36.6622316538        1.3955610744        7.0237360241  MEMB      71              0.0000000000
      8859        71  QMPE      C29            38.0286470745       -0.2988357009        6.9436953668  MEMB      71              0.0000000000
      8860        71  QMPE      H9R            37.5017168378       -1.0294432780        6.2934046372  MEMB      71              0.0000000000
      8861        71  QMPE      C217           39.3660715506       -0.6367573841        7.4400685032  MEMB      71              0.0000000000
      8862        71  QMPE      H17R           39.7085271299       -0.0755395639        8.3006780769  MEMB      71              0.0000000000
      8863        71  QMPE      H17S           39.8318170324       -1.5738105910        7.1609604182  MEMB      71              0.0000000000
      8864        71  QMPE      C210           39.1899064148        0.2548652046        6.2075154075  MEMB      71              0.0000000000
      8865        71  QMPE      H10R           39.5661241179       -0.3345189240        5.3441453149  MEMB      71              0.0000000000
      8866        71  QMPE      C211           39.8376161937        1.6606341579        6.3853193792  MEMB      71              0.0000000000
      8867        71  QMPE      H11R           40.0281937828        1.8648521676        7.4606316609  MEMB      71              0.0000000000
      8868        71  QMPE      H11S           40.8233853018        1.5209293401        5.8923050908  MEMB      71              0.0000000000
      8869        71  QMPE      C212           38.9758788593        2.7753981104        5.7552893647  MEMB      71              0.0000000000
      8870        71  QMPE      H12R           39.4447107229        3.7148224510        6.1186056982  MEMB      71              0.0000000000
      8871        71  QMPE      H12S           37.9690642036        2.8737439697        6.2146077398  MEMB      71              0.0000000000
      8872        71  QMPE      C213           38.9089644091        2.5633944004        4.2039874492  MEMB      71              0.0000000000
      8873        71  QMPE      H13R           38.5917039264        1.5372500685        3.9199189160  MEMB      71              0.0000000000
      8874        71  QMPE      H13S           39.9282132001        2.7623804818        3.8092000869  MEMB      71              0.0000000000
      8875        71  QMPE      C214           38.0045616061        3.5706294175        3.3887496072  MEMB      71              0.0000000000
      8876        71  QMPE      H14R           38.4735078863        4.5774002998        3.3600590219  MEMB      71              0.0000000000
      8877        71  QMPE      H14S           37.0287117110        3.6140263108        3.9180458925  MEMB      71              0.0000000000
      8878        71  QMPE      C215           37.6786273579        3.0413899462        1.9873586532  MEMB      71              0.0000000000
      8879        71  QMPE      H15R           36.8938707864        3.7474429503        1.6409956287  MEMB      71              0.0000000000
      8880        71  QMPE      H15S           37.2994325550        1.9971296154        1.9800885698  MEMB      71              0.0000000000
      8881        71  QMPE      C216           38.8788520071        2.9387404165        1.0658024867  MEMB      71              0.0000000000
      8882        71  QMPE      H16R           39.3375484965        3.9399681429        1.2122954330  MEMB      71              0.0000000000
      8883        71  QMPE      H16S           38.5068529983        2.9274466240        0.0189924300  MEMB      71              0.0000000000
      8884        71  QMPE      H16T           39.5652457525        2.0800536239        1.2265545030  MEMB      71              0.0000000000
      8885        71  QMPE      C33            36.9860705094        4.2908918114       11.1445783867  MEMB      71              0.0000000000
      8886        71  QMPE      H3X            36.6013238856        5.1654883421       11.7114751465  MEMB      71              0.0000000000
      8887        71  QMPE      H3Y            36.5432801886        3.3826914910       11.6065631572  MEMB      71              0.0000000000
      8888        71  QMPE      C34            36.3853062391        4.4033458284        9.7270360656  MEMB      71              0.0000000000
      8889        71  QMPE      H4X            35.3012045906        4.2176843253        9.8837985868  MEMB      71              0.0000000000
      8890        71  QMPE      H4Y            36.8009737781        3.5870761889        9.0983509216  MEMB      71              0.0000000000
      8891        71  QMPE      C35            36.6956974274        5.7725919034        9.0369921080  MEMB      71              0.0000000000
      8892        71  QMPE      H5X            37.7467364359        6.1325967984        9.0429182620  MEMB      71              0.0000000000
      8893        71  QMPE      H5Y            35.9683706859        6.4703769796        9.5043381925  MEMB      71              0.0000000000
      8894        71  QMPE      C36            36.1794847802        5.7179885456        7.5696818094  MEMB      71              0.0000000000
      8895        71  QMPE      H6X            36.7402216795        4.9754814198        6.9625750547  MEMB      71              0.0000000000
      8896        71  QMPE      H6Y            36.2288737298        6.7398779775        7.1365263846  MEMB      71              0.0000000000
      8897        71  QMPE      C37            34.6639196594        5.4658318659        7.5069489048  MEMB      71              0.0000000000
      8898        71  QMPE      H7X            34.1644538893        4.8686628748        8.2995676323  MEMB      71              0.0000000000
      8899        71  QMPE      H7Y            34.1270667837        6.4370157535        7.5609041182  MEMB      71              0.0000000000
      8900        71  QMPE      C38            34.0998123365        4.8677561408        6.1583148571  MEMB      71              0.0000000000
      8901        71  QMPE      H8X            33.0093972717        5.0795197053        6.1365904900  MEMB      71              0.0000000000
      8902        71  QMPE      H8Y            34.4873249930        5.5834284334        5.4020295247  MEMB      71              0.0000000000
      8903        71  QMPE      C39            34.4807203669        3.4700170763        5.9063063331  MEMB      71              0.0000000000
      8904        71  QMPE      H9X            34.0334013963        2.6916102597        6.5607598503  MEMB      71              0.0000000000
      8905        71  QMPE      H9Y            35.5384770368        3.3458959287        6.2226381410  MEMB      71              0.0000000000
      8906        71  QMPE      C310           34.1932628655        2.9159284298        4.4731445210  MEMB      71              0.0000000000
      8907        71  QMPE      H10X           34.6136965728        3.5211592745        3.6417288385  MEMB      71              0.0000000000
      8908        71  QMPE      H10Y           33.1165914012        2.9994330252        4.2121338468  MEMB      71              0.0000000000
      8909        71  QMPE      C311           34.7330782572        1.5025786356        4.3061455032  MEMB      71              0.0000000000
      8910        71  QMPE      H11X           35.8358898351        1.4683860125        4.4363713106  MEMB      71              0.0000000000
      8911        71  QMPE      H11Y           34.5293837277        1.1476737056        3.2732513087  MEMB      71              0.0000000000
      8912        71  QMPE      C312           34.0555064189        0.4621313825        5.2277927962  MEMB      71              0.0000000000
      8913        71  QMPE      H12X           32.9549631022        0.4884570151        5.3775671760  MEMB      71              0.0000000000
      8914        71  QMPE      H12Y           34.5006399647        0.4661794256        6.2457126236  MEMB      71              0.0000000000
      8915        71  QMPE      C313           34.3837343437       -1.0104370166        4.8413612346  MEMB      71              0.0000000000
      8916        71  QMPE      H13X           35.4495867838       -1.1124717571        5.1377883023  MEMB      71              0.0000000000
      8917        71  QMPE      H13Y           33.7169062898       -1.7395830631        5.3493057845  MEMB      71              0.0000000000
      8918        71  QMPE      C314           34.4598927584       -1.3430286361        3.3617094083  MEMB      71              0.0000000000
      8919        71  QMPE      H14X           35.4922725695       -1.1335349895        3.0086861757  MEMB      71              0.0000000000
      8920        71  QMPE      H14Y           33.8923474114       -0.6067445114        2.7533509611  MEMB      71              0.0000000000
      8921        71  QMPE      C315           33.9034596812       -2.6401300146        2.8883422104  MEMB      71              0.0000000000
      8922        71  QMPE      H15X           34.5078977687       -3.4791517893        3.2945646304  MEMB      71              0.0000000000
      8923        71  QMPE      H15Y           32.8159015283       -2.7800709258        3.0671023246  MEMB      71              0.0000000000
      8924        71  QMPE      H15Z           33.9401558639       -2.7912907447        1.7882851908  MEMB      71              0.0000000000
      8925        72  OYPE      N             -41.1760528048        3.4945045862       21.0974088847  MEMB      72              0.0000000000
      8926        72  OYPE      HN1           -41.9605557084        2.9209661399       21.4678260380  MEMB      72              0.0000000000
      8927        72  OYPE      HN2           -40.7494834350        4.0240557802       21.8843104753  MEMB      72              0.0000000000
      8928        72  OYPE      HN3           -41.5626080606        4.1499996944       20.3885358088  MEMB      72              0.0000000000
      8929        72  OYPE      C12           -40.0801159534        2.5346275369       20.7123034706  MEMB      72              0.0000000000
      8930        72  OYPE      H12A          -40.6058468167        1.7030531457       20.1961523799  MEMB      72              0.0000000000
      8931        72  OYPE      H12B          -39.6680892823        2.0048327770       21.5976692586  MEMB      72              0.0000000000
      8932        72  OYPE      C11           -38.8973054172        3.1225656459       19.8640433930  MEMB      72              0.0000000000
      8933        72  OYPE      H11A          -38.2297628898        3.6988643897       20.5397561616  MEMB      72              0.0000000000
      8934        72  OYPE      H11B          -39.2954647324        3.8316748526       19.1071059849  MEMB      72              0.0000000000
      8935        72  OYPE      P             -37.2650310716        2.3923670454       18.0852855890  MEMB      72              0.0000000000
      8936        72  OYPE      O13           -36.0085411464        1.6007199274       18.1296432409  MEMB      72              0.0000000000
      8937        72  OYPE      O14           -36.9965590134        3.8061459294       17.9625769218  MEMB      72              0.0000000000
      8938        72  OYPE      O11           -38.0692982278        1.8824375999       16.8773961231  MEMB      72              0.0000000000
      8939        72  OYPE      O12           -38.2432011627        2.0490096598       19.2713423662  MEMB      72              0.0000000000
      8940        72  OYPE      C1            -39.4399409225        2.1096193367       16.5226878638  MEMB      72              0.0000000000
      8941        72  OYPE      HA            -39.5709417018        2.1975683866       15.4229493318  MEMB      72              0.0000000000
      8942        72  OYPE      HB            -39.8072221302        3.0467615028       16.9929964309  MEMB      72              0.0000000000
      8943        72  OYPE      C2            -40.2585615757        0.9374050979       17.0808746387  MEMB      72              0.0000000000
      8944        72  OYPE      HS            -40.0045644408        1.0330504915       18.1582131313  MEMB      72              0.0000000000
      8945        72  OYPE      O21           -39.7474117390       -0.3190175359       16.4621063927  MEMB      72              0.0000000000
      8946        72  OYPE      C21           -40.0826996273       -1.4924951635       17.0258570678  MEMB      72              0.0000000000
      8947        72  OYPE      O22           -40.9253340494       -1.6909713745       17.9661476507  MEMB      72              0.0000000000
      8948        72  OYPE      C22           -39.2768155755       -2.6350809672       16.3376294744  MEMB      72              0.0000000000
      8949        72  OYPE      H2R           -39.9717023933       -3.4316205408       15.9956091642  MEMB      72              0.0000000000
      8950        72  OYPE      H2S           -38.7226826236       -3.0612070989       17.2011534639  MEMB      72              0.0000000000
      8951        72  OYPE      C3            -41.7361908156        1.1562513098       16.8289761251  MEMB      72              0.0000000000
      8952        72  OYPE      HX            -41.9865865972        1.9956114462       17.5124215756  MEMB      72              0.0000000000
      8953        72  OYPE      HY            -42.3862452260        0.3244975312       17.1752945095  MEMB      72              0.0000000000
      8954        72  OYPE      O31           -41.8975158545        1.5777197712       15.4768371022  MEMB      72              0.0000000000
      8955        72  OYPE      C31           -42.2995509717        0.6346977843       14.5564869644  MEMB      72              0.0000000000
      8956        72  OYPE      O32           -42.6170542169       -0.4997371202       14.7535600421  MEMB      72              0.0000000000
      8957        72  OYPE      C32           -42.1681597075        1.3110332261       13.1329499593  MEMB      72              0.0000000000
      8958        72  OYPE      H2X           -42.7064578815        0.6169896553       12.4526119187  MEMB      72              0.0000000000
      8959        72  OYPE      H2Y           -42.7634923066        2.2309861809       12.9496832248  MEMB      72              0.0000000000
      8960        72  OYPE      C23           -38.4499432882       -2.2109500928       15.0911138228  MEMB      72              0.0000000000
      8961        72  OYPE      H3R           -37.8899225946       -1.2761001447       15.3073397024  MEMB      72              0.0000000000
      8962        72  OYPE      H3S           -39.2158056846       -1.9757030907       14.3214164404  MEMB      72              0.0000000000
      8963        72  OYPE      C24           -37.4472063312       -3.2049726839       14.6117741360  MEMB      72              0.0000000000
      8964        72  OYPE      H4R           -37.9080838153       -4.1635107186       14.2906548119  MEMB      72              0.0000000000
      8965        72  OYPE      H4S           -36.7335404337       -3.3483593056       15.4510848039  MEMB      72              0.0000000000
      8966        72  OYPE      C25           -36.5334938603       -2.4314038886       13.5578998605  MEMB      72              0.0000000000
      8967        72  OYPE      H5R           -35.9719869999       -3.2967234913       13.1452831223  MEMB      72              0.0000000000
      8968        72  OYPE      H5S           -35.8669368174       -1.6822346068       14.0361976058  MEMB      72              0.0000000000
      8969        72  OYPE      C26           -37.3500570999       -1.8185251249       12.4120669577  MEMB      72              0.0000000000
      8970        72  OYPE      H6R           -36.6069916636       -1.3044681873       11.7655994707  MEMB      72              0.0000000000
      8971        72  OYPE      H6S           -38.0180285832       -1.0162026521       12.7920847790  MEMB      72              0.0000000000
      8972        72  OYPE      C27           -38.0074636000       -2.8791547051       11.5729601348  MEMB      72              0.0000000000
      8973        72  OYPE      H7R           -38.8903716930       -3.3020929594       12.0982386176  MEMB      72              0.0000000000
      8974        72  OYPE      H7S           -37.1290362626       -3.4844178535       11.2625684998  MEMB      72              0.0000000000
      8975        72  OYPE      C28           -38.4808035493       -2.2953207051       10.2416967343  MEMB      72              0.0000000000
      8976        72  OYPE      H8R           -38.6982969684       -3.2101430069        9.6499891936  MEMB      72              0.0000000000
      8977        72  OYPE      H8S           -37.6439400593       -1.8294511848        9.6787173443  MEMB      72              0.0000000000
      8978        72  OYPE      C29           -39.8079644836       -1.6010105762       10.3332969547  MEMB      72              0.0000000000
      8979        72  OYPE      H9R           -39.8193045785       -0.7606703188       11.0430155216  MEMB      72              0.0000000000
      8980        72  OYPE      C210          -40.9119032723       -1.9040649352        9.6422834091  MEMB      72              0.0000000000
      8981        72  OYPE      H10R          -41.8322794927       -1.3603625785        9.9016972195  MEMB      72              0.0000000000
      8982        72  OYPE      C211          -41.0415110823       -3.0076139862        8.6423880726  MEMB      72              0.0000000000
      8983        72  OYPE      H11R          -42.0469914625       -3.4566560168        8.7896686640  MEMB      72              0.0000000000
      8984        72  OYPE      H11S          -40.3004006773       -3.8262673677        8.7643845990  MEMB      72              0.0000000000
      8985        72  OYPE      C212          -41.1027394289       -2.3511337616        7.2397444805  MEMB      72              0.0000000000
      8986        72  OYPE      H12R          -41.8525916808       -1.5463527320        7.0836350309  MEMB      72              0.0000000000
      8987        72  OYPE      H12S          -41.4314301306       -3.1957906731        6.5972204442  MEMB      72              0.0000000000
      8988        72  OYPE      C213          -39.6393447729       -2.0059081472        6.8248947233  MEMB      72              0.0000000000
      8989        72  OYPE      H13R          -38.8822532788       -2.8130978772        6.9227617675  MEMB      72              0.0000000000
      8990        72  OYPE      H13S          -39.2790075017       -1.1032403441        7.3631037084  MEMB      72              0.0000000000
      8991        72  OYPE      C214          -39.5492746782       -1.5198716090        5.2842987236  MEMB      72              0.0000000000
      8992        72  OYPE      H14R          -38.4596395318       -1.4341431060        5.0851329994  MEMB      72              0.0000000000
      8993        72  OYPE      H14S          -39.8340571884       -0.4607443865        5.1069030068  MEMB      72              0.0000000000
      8994        72  OYPE      C215          -39.9744186989       -2.3881879715        4.1293451726  MEMB      72              0.0000000000
      8995        72  OYPE      H15R          -39.5613426702       -3.4190140954        4.0963837328  MEMB      72              0.0000000000
      8996        72  OYPE      H15S          -39.4145155391       -1.8959921233        3.3055901190  MEMB      72              0.0000000000
      8997        72  OYPE      C216          -41.4919795242       -2.3407138256        3.7995738910  MEMB      72              0.0000000000
      8998        72  OYPE      H16R          -41.8822572003       -1.3107615957        3.6539614929  MEMB      72              0.0000000000
      8999        72  OYPE      H16S          -42.0822286286       -2.8023407670        4.6198349772  MEMB      72              0.0000000000
      9000        72  OYPE      H16T          -41.5525712214       -2.9591813396        2.8786247538  MEMB      72              0.0000000000
      9001        72  OYPE      C33           -40.7514981582        1.5998936184       12.6861563876  MEMB      72              0.0000000000
      9002        72  OYPE      H3X           -40.3519145808        0.5916393936       12.4451640575  MEMB      72              0.0000000000
      9003        72  OYPE      H3Y           -40.1931745810        1.9733357048       13.5711063105  MEMB      72              0.0000000000
      9004        72  OYPE      C34           -40.4883052913        2.5070372364       11.4510550944  MEMB      72              0.0000000000
      9005        72  OYPE      H4X           -41.2452154665        2.1668928344       10.7123339247  MEMB      72              0.0000000000
      9006        72  OYPE      H4Y           -40.6247438597        3.5818743760       11.6968819742  MEMB      72              0.0000000000
      9007        72  OYPE      C35           -39.0458901612        2.2543431486       10.9772534265  MEMB      72              0.0000000000
      9008        72  OYPE      H5X           -38.9057568582        1.1581644189       10.8629042035  MEMB      72              0.0000000000
      9009        72  OYPE      H5Y           -38.3761452531        2.6430799761       11.7739006045  MEMB      72              0.0000000000
      9010        72  OYPE      C36           -38.6412498368        3.0192606429        9.7668264031  MEMB      72              0.0000000000
      9011        72  OYPE      H6X           -38.9830947715        4.0763082856        9.7774612843  MEMB      72              0.0000000000
      9012        72  OYPE      H6Y           -37.5314519849        3.0707332219        9.7713350335  MEMB      72              0.0000000000
      9013        72  OYPE      C37           -38.9577332308        2.3325496060        8.4247265870  MEMB      72              0.0000000000
      9014        72  OYPE      H7X           -38.6638921296        1.2611143302        8.4225070626  MEMB      72              0.0000000000
      9015        72  OYPE      H7Y           -40.0590828640        2.4334843474        8.3190751645  MEMB      72              0.0000000000
      9016        72  OYPE      C38           -38.4048949677        3.0118615668        7.2267000187  MEMB      72              0.0000000000
      9017        72  OYPE      H8X           -38.7945900383        2.5659179693        6.2867044912  MEMB      72              0.0000000000
      9018        72  OYPE      H8Y           -38.7783139727        4.0581964740        7.2188010185  MEMB      72              0.0000000000
      9019        72  OYPE      C39           -36.8820060340        3.0327117342        7.1121601467  MEMB      72              0.0000000000
      9020        72  OYPE      H9X           -36.4412350744        3.9985751008        7.3999595476  MEMB      72              0.0000000000
      9021        72  OYPE      C310          -36.1317293169        2.0001690310        6.5572894393  MEMB      72              0.0000000000
      9022        72  OYPE      H10X          -35.0438786150        2.1193133937        6.6685794467  MEMB      72              0.0000000000
      9023        72  OYPE      C311          -36.6322816698        0.7268782800        5.9538214889  MEMB      72              0.0000000000
      9024        72  OYPE      H11X          -36.1927654694       -0.1662591522        6.4472297798  MEMB      72              0.0000000000
      9025        72  OYPE      H11Y          -37.7196602748        0.6242095625        5.7503821556  MEMB      72              0.0000000000
      9026        72  OYPE      C312          -36.0639247780        0.7286881335        4.5098235040  MEMB      72              0.0000000000
      9027        72  OYPE      H12X          -36.4619085845       -0.1862613496        4.0211539933  MEMB      72              0.0000000000
      9028        72  OYPE      H12Y          -34.9532207308        0.7496706865        4.4950745492  MEMB      72              0.0000000000
      9029        72  OYPE      C313          -36.3948340926        1.9839247185        3.6895945422  MEMB      72              0.0000000000
      9030        72  OYPE      H13X          -37.4420157361        2.3070348983        3.8721643717  MEMB      72              0.0000000000
      9031        72  OYPE      H13Y          -35.8203369144        2.8457714194        4.0914579566  MEMB      72              0.0000000000
      9032        72  OYPE      C314          -36.2653371152        1.7655789838        2.1830198793  MEMB      72              0.0000000000
      9033        72  OYPE      H14X          -37.1526996168        1.1373562607        1.9544476810  MEMB      72              0.0000000000
      9034        72  OYPE      H14Y          -35.2483512969        1.3443467691        2.0326060298  MEMB      72              0.0000000000
      9035        72  OYPE      C315          -36.4565070184        2.9710921651        1.2624612367  MEMB      72              0.0000000000
      9036        72  OYPE      H15X          -36.2217735752        2.5894249603        0.2458245093  MEMB      72              0.0000000000
      9037        72  OYPE      H15Y          -35.8493405860        3.8635669700        1.5254412568  MEMB      72              0.0000000000
      9038        72  OYPE      C316          -37.9536315932        3.3711755424        1.2443212061  MEMB      72              0.0000000000
      9039        72  OYPE      H16X          -38.4522426894        3.4629446952        2.2328989966  MEMB      72              0.0000000000
      9040        72  OYPE      H16Y          -38.5322765078        2.6257103187        0.6580003990  MEMB      72              0.0000000000
      9041        72  OYPE      C317          -38.1649874049        4.7676699694        0.6100454929  MEMB      72              0.0000000000
      9042        72  OYPE      H17X          -38.9762531248        4.6360288975       -0.1375092608  MEMB      72              0.0000000000
      9043        72  OYPE      H17Y          -37.2550269137        5.0844869875        0.0569456432  MEMB      72              0.0000000000
      9044        72  OYPE      C318          -38.3791091010        5.8682629529        1.6076095693  MEMB      72              0.0000000000
      9045        72  OYPE      H18X          -38.8604819788        6.6473037950        0.9785656910  MEMB      72              0.0000000000
      9046        72  OYPE      H18Y          -39.0822485436        5.4249786302        2.3447765687  MEMB      72              0.0000000000
      9047        72  OYPE      H18Z          -37.4399772559        6.3311399108        1.9792253919  MEMB      72              0.0000000000
      9048        73  PMPG      C13           -14.0112876657       37.3154358932       17.4872005668  MEMB      73              0.0000000000
      9049        73  PMPG      H13A          -13.3377042764       38.1361051377       17.1599264695  MEMB      73              0.0000000000
      9050        73  PMPG      H13B          -14.3177700049       36.5977122989       16.6964651981  MEMB      73              0.0000000000
      9051        73  PMPG      OC3           -15.3042075758       37.8478540249       17.9748815197  MEMB      73              0.0000000000
      9052        73  PMPG      HO3           -15.6719793915       37.1547589011       18.5280207749  MEMB      73              0.0000000000
      9053        73  PMPG      C12           -13.2421000173       36.7130403816       18.6927090340  MEMB      73              0.0000000000
      9054        73  PMPG      H12A          -13.8305157377       35.8394118179       19.0578379327  MEMB      73              0.0000000000
      9055        73  PMPG      OC2           -13.1648742113       37.6666207890       19.7532567565  MEMB      73              0.0000000000
      9056        73  PMPG      HO2           -12.5539665310       37.2379240245       20.3917923704  MEMB      73              0.0000000000
      9057        73  PMPG      C11           -11.8711839823       36.2281682865       18.3211053910  MEMB      73              0.0000000000
      9058        73  PMPG      H11A          -11.3861151162       36.9634653263       17.6440769520  MEMB      73              0.0000000000
      9059        73  PMPG      H11B          -11.8833560466       35.2911093246       17.7243697397  MEMB      73              0.0000000000
      9060        73  PMPG      P              -9.7722471954       36.4724362602       19.6373054293  MEMB      73              0.0000000000
      9061        73  PMPG      O13            -9.0628077498       35.8154317263       20.7272902220  MEMB      73              0.0000000000
      9062        73  PMPG      O14            -9.9329564750       37.9807065605       19.5857755227  MEMB      73              0.0000000000
      9063        73  PMPG      O11            -9.1663150599       35.9874776791       18.2956258293  MEMB      73              0.0000000000
      9064        73  PMPG      O12           -11.2098560639       35.9008884004       19.5248497539  MEMB      73              0.0000000000
      9065        73  PMPG      C1             -7.7677497085       35.6538749996       18.2342935705  MEMB      73              0.0000000000
      9066        73  PMPG      HA             -7.4866281219       34.5790310711       18.2328141818  MEMB      73              0.0000000000
      9067        73  PMPG      HB             -7.1481661880       36.2112220508       18.9690055535  MEMB      73              0.0000000000
      9068        73  PMPG      C2             -7.3093645361       36.2786034839       16.8367870910  MEMB      73              0.0000000000
      9069        73  PMPG      HS             -6.2438165480       36.5042680853       17.0558854058  MEMB      73              0.0000000000
      9070        73  PMPG      O21            -8.1200730527       37.4788013261       16.6091116370  MEMB      73              0.0000000000
      9071        73  PMPG      C21            -7.5892545349       38.4295155226       15.7684495778  MEMB      73              0.0000000000
      9072        73  PMPG      O22            -6.4964626140       38.4619719632       15.2332908101  MEMB      73              0.0000000000
      9073        73  PMPG      C22            -8.6111356385       39.5449151668       15.6027240472  MEMB      73              0.0000000000
      9074        73  PMPG      H2R            -8.2660275412       40.2998667738       14.8643003220  MEMB      73              0.0000000000
      9075        73  PMPG      H2S            -8.7767513646       40.1019621831       16.5496088928  MEMB      73              0.0000000000
      9076        73  PMPG      C3             -7.4495316884       35.3173488049       15.6818863068  MEMB      73              0.0000000000
      9077        73  PMPG      HX             -6.9023308878       34.4060124942       16.0049321115  MEMB      73              0.0000000000
      9078        73  PMPG      HY             -6.8754376040       35.7109704884       14.8159774287  MEMB      73              0.0000000000
      9079        73  PMPG      O31            -8.8242297724       35.0688776638       15.4010986226  MEMB      73              0.0000000000
      9080        73  PMPG      C31            -8.9986866615       34.2125242387       14.4019647991  MEMB      73              0.0000000000
      9081        73  PMPG      O32            -8.1128714846       33.7238444709       13.7306315151  MEMB      73              0.0000000000
      9082        73  PMPG      C32           -10.4423051894       33.9070462697       14.2482236149  MEMB      73              0.0000000000
      9083        73  PMPG      H2X           -10.6524717971       33.1068228703       14.9897043356  MEMB      73              0.0000000000
      9084        73  PMPG      H2Y           -10.4688296104       33.4737856459       13.2255300117  MEMB      73              0.0000000000
      9085        73  PMPG      C23            -9.9599226909       39.0552087580       15.0707827766  MEMB      73              0.0000000000
      9086        73  PMPG      H3R           -10.6738463789       39.9062764332       15.0886124129  MEMB      73              0.0000000000
      9087        73  PMPG      H3S           -10.3687079562       38.2295159080       15.6916264973  MEMB      73              0.0000000000
      9088        73  PMPG      C24            -9.8357426545       38.5952897072       13.6065677471  MEMB      73              0.0000000000
      9089        73  PMPG      H4R           -10.7694911896       38.1929530905       13.1587281792  MEMB      73              0.0000000000
      9090        73  PMPG      H4S            -9.1405158693       37.7458848496       13.7783001948  MEMB      73              0.0000000000
      9091        73  PMPG      C25            -9.1699662683       39.5948745957       12.6177318260  MEMB      73              0.0000000000
      9092        73  PMPG      H5R            -8.1417896958       40.0086840441       12.6947757309  MEMB      73              0.0000000000
      9093        73  PMPG      H5S            -9.7971607364       40.5098890331       12.5569342466  MEMB      73              0.0000000000
      9094        73  PMPG      C26            -9.0867112020       39.1001764447       11.1638904814  MEMB      73              0.0000000000
      9095        73  PMPG      H6R            -8.7402406324       39.8785642589       10.4508750524  MEMB      73              0.0000000000
      9096        73  PMPG      H6S           -10.0934176591       38.7941043311       10.8072640755  MEMB      73              0.0000000000
      9097        73  PMPG      C27            -8.2837396847       37.8094007991       11.0630257720  MEMB      73              0.0000000000
      9098        73  PMPG      H7R            -8.6162506779       36.9156947486       11.6331544807  MEMB      73              0.0000000000
      9099        73  PMPG      H7S            -7.3002108889       38.0429917130       11.5239244439  MEMB      73              0.0000000000
      9100        73  PMPG      C28            -7.9972785700       37.2912493763        9.6372452520  MEMB      73              0.0000000000
      9101        73  PMPG      H8R            -7.7188103254       38.1355108349        8.9709123607  MEMB      73              0.0000000000
      9102        73  PMPG      H8S            -8.9085845813       36.8883261242        9.1458236590  MEMB      73              0.0000000000
      9103        73  PMPG      C29            -6.8467530929       36.3573220971        9.6136850733  MEMB      73              0.0000000000
      9104        73  PMPG      H9R            -5.9137996228       36.6260041734       10.1538037601  MEMB      73              0.0000000000
      9105        73  PMPG      C217           -7.2626534396       34.9080080643        9.8179532661  MEMB      73              0.0000000000
      9106        73  PMPG      H17R           -6.5518368198       34.5050416467       10.5287607445  MEMB      73              0.0000000000
      9107        73  PMPG      H17S           -8.3411067784       34.8184961912        9.8605540944  MEMB      73              0.0000000000
      9108        73  PMPG      C210           -6.6777670787       35.4526841262        8.4475017032  MEMB      73              0.0000000000
      9109        73  PMPG      H10R           -5.7111533984       34.9461690336        8.2391220194  MEMB      73              0.0000000000
      9110        73  PMPG      C211           -7.6583537014       35.2438630223        7.2555033872  MEMB      73              0.0000000000
      9111        73  PMPG      H11R           -7.4177477112       34.3376459095        6.6595161314  MEMB      73              0.0000000000
      9112        73  PMPG      H11S           -8.6867973028       35.1008514010        7.6506901960  MEMB      73              0.0000000000
      9113        73  PMPG      C212           -7.6859924912       36.4199340463        6.2842347205  MEMB      73              0.0000000000
      9114        73  PMPG      H12R           -6.7794765819       36.3650975371        5.6442800001  MEMB      73              0.0000000000
      9115        73  PMPG      H12S           -7.7731692042       37.4035375232        6.7933956061  MEMB      73              0.0000000000
      9116        73  PMPG      C213           -8.8302339824       36.2882866249        5.3202764255  MEMB      73              0.0000000000
      9117        73  PMPG      H13R           -9.7151089560       36.5932910624        5.9188498262  MEMB      73              0.0000000000
      9118        73  PMPG      H13S           -8.9398410580       35.2732822401        4.8820142138  MEMB      73              0.0000000000
      9119        73  PMPG      C214           -8.6142471400       37.2894715561        4.1637408053  MEMB      73              0.0000000000
      9120        73  PMPG      H14R           -8.3663994870       38.3265674226        4.4757095901  MEMB      73              0.0000000000
      9121        73  PMPG      H14S           -9.5887008736       37.3910046766        3.6398594194  MEMB      73              0.0000000000
      9122        73  PMPG      C215           -7.5128643791       36.9340258300        3.1203217685  MEMB      73              0.0000000000
      9123        73  PMPG      H15R           -6.4930492182       36.9703312932        3.5596160950  MEMB      73              0.0000000000
      9124        73  PMPG      H15S           -7.4743746521       37.7316203268        2.3478692097  MEMB      73              0.0000000000
      9125        73  PMPG      C216           -7.6764976489       35.5234510746        2.4775086398  MEMB      73              0.0000000000
      9126        73  PMPG      H16R           -7.3328905388       34.7935332952        3.2413637636  MEMB      73              0.0000000000
      9127        73  PMPG      H16S           -7.0191451554       35.3777155581        1.5937841971  MEMB      73              0.0000000000
      9128        73  PMPG      H16T           -8.7320194079       35.2815302934        2.2291762101  MEMB      73              0.0000000000
      9129        73  PMPG      C33           -11.3569944397       35.2089206296       14.3058588950  MEMB      73              0.0000000000
      9130        73  PMPG      H3X           -10.8132085523       36.0769586701       13.8755939327  MEMB      73              0.0000000000
      9131        73  PMPG      H3Y           -11.4302948772       35.4404686031       15.3899869230  MEMB      73              0.0000000000
      9132        73  PMPG      C34           -12.6235857094       35.1339215561       13.6008286860  MEMB      73              0.0000000000
      9133        73  PMPG      H4X           -13.3239887365       35.9334854622       13.9240215533  MEMB      73              0.0000000000
      9134        73  PMPG      H4Y           -13.2320499112       34.2175113386       13.7566632598  MEMB      73              0.0000000000
      9135        73  PMPG      C35           -12.2794051408       35.3443216960       12.1104678507  MEMB      73              0.0000000000
      9136        73  PMPG      H5X           -12.3396626452       34.3275066971       11.6668721493  MEMB      73              0.0000000000
      9137        73  PMPG      H5Y           -11.2532888740       35.6751704881       11.8422413588  MEMB      73              0.0000000000
      9138        73  PMPG      C36           -13.3715056754       36.2748103845       11.5434625863  MEMB      73              0.0000000000
      9139        73  PMPG      H6X           -13.8090160983       37.0176013010       12.2442960468  MEMB      73              0.0000000000
      9140        73  PMPG      H6Y           -14.2456037543       35.7880421700       11.0604201803  MEMB      73              0.0000000000
      9141        73  PMPG      C37           -12.8477326703       37.1128351273       10.3658617555  MEMB      73              0.0000000000
      9142        73  PMPG      H7X           -12.1135069326       37.8924049858       10.6616734475  MEMB      73              0.0000000000
      9143        73  PMPG      H7Y           -13.7282224978       37.6284935251        9.9263678357  MEMB      73              0.0000000000
      9144        73  PMPG      C38           -12.1130597514       36.3112029215        9.2443226396  MEMB      73              0.0000000000
      9145        73  PMPG      H8X           -11.1988127315       35.8399485113        9.6643138250  MEMB      73              0.0000000000
      9146        73  PMPG      H8Y           -11.8783042489       37.0576603497        8.4556452995  MEMB      73              0.0000000000
      9147        73  PMPG      C39           -13.0037376794       35.2817697614        8.5097701584  MEMB      73              0.0000000000
      9148        73  PMPG      H9X           -13.9445308010       35.8188863287        8.2633249135  MEMB      73              0.0000000000
      9149        73  PMPG      H9Y           -13.2884130724       34.5077305087        9.2541788231  MEMB      73              0.0000000000
      9150        73  PMPG      C310          -12.3879260309       34.7074669142        7.2791300485  MEMB      73              0.0000000000
      9151        73  PMPG      H10X          -11.7432733298       33.8409031229        7.5395356193  MEMB      73              0.0000000000
      9152        73  PMPG      H10Y          -11.8531746742       35.4224780184        6.6179782752  MEMB      73              0.0000000000
      9153        73  PMPG      C311          -13.4432530040       34.1892701391        6.3117682436  MEMB      73              0.0000000000
      9154        73  PMPG      H11X          -14.1184535637       35.0341022708        6.0574377656  MEMB      73              0.0000000000
      9155        73  PMPG      H11Y          -14.0107043647       33.4975645000        6.9704514870  MEMB      73              0.0000000000
      9156        73  PMPG      C312          -12.9503372312       33.5447699663        4.9561333875  MEMB      73              0.0000000000
      9157        73  PMPG      H12X          -13.9458394856       33.3582157122        4.4995223084  MEMB      73              0.0000000000
      9158        73  PMPG      H12Y          -12.4401940557       32.5901576890        5.2067134362  MEMB      73              0.0000000000
      9159        73  PMPG      C313          -12.0430043215       34.4527138349        4.1757636973  MEMB      73              0.0000000000
      9160        73  PMPG      H13X          -11.0300156180       34.6180627907        4.6010104719  MEMB      73              0.0000000000
      9161        73  PMPG      H13Y          -12.4558440027       35.4802813129        4.0863766731  MEMB      73              0.0000000000
      9162        73  PMPG      C314          -11.7691067755       33.9974430684        2.6854964989  MEMB      73              0.0000000000
      9163        73  PMPG      H14X          -11.2995292004       34.9011975980        2.2415978764  MEMB      73              0.0000000000
      9164        73  PMPG      H14Y          -12.6643273911       33.7218836603        2.0880277979  MEMB      73              0.0000000000
      9165        73  PMPG      C315          -10.8644155256       32.7162346271        2.6125515670  MEMB      73              0.0000000000
      9166        73  PMPG      H15X          -11.1606345084       31.9993111941        3.4079106742  MEMB      73              0.0000000000
      9167        73  PMPG      H15Y           -9.7936484069       32.9924199947        2.7197921753  MEMB      73              0.0000000000
      9168        73  PMPG      C316          -10.9253049797       32.0050158119        1.2350855576  MEMB      73              0.0000000000
      9169        73  PMPG      H16X          -10.7464542050       32.7569186794        0.4369773993  MEMB      73              0.0000000000
      9170        73  PMPG      H16Y          -11.9222932173       31.5608753770        1.0275405755  MEMB      73              0.0000000000
      9171        73  PMPG      H16Z          -10.2685863895       31.1114468451        1.1674352285  MEMB      73              0.0000000000
      9172        74  QMPE      N               4.0388755314      -38.6556796663       18.8507298122  MEMB      74              0.0000000000
      9173        74  QMPE      HN1             4.7172647506      -37.8674297778       18.8436463838  MEMB      74              0.0000000000
      9174        74  QMPE      HN2             4.3790537574      -39.2287127726       19.6491732536  MEMB      74              0.0000000000
      9175        74  QMPE      HN3             3.8958090197      -39.2217635359       17.9901014661  MEMB      74              0.0000000000
      9176        74  QMPE      C12             2.6521388916      -38.0513269204       18.9221331656  MEMB      74              0.0000000000
      9177        74  QMPE      H12A            2.4574413186      -37.5709766148       17.9394443047  MEMB      74              0.0000000000
      9178        74  QMPE      H12B            2.7290082791      -37.2175738540       19.6523851880  MEMB      74              0.0000000000
      9179        74  QMPE      C11             1.7862493846      -39.2281744311       19.3926118866  MEMB      74              0.0000000000
      9180        74  QMPE      H11A            2.3558634952      -39.7411465790       20.1968010470  MEMB      74              0.0000000000
      9181        74  QMPE      H11B            1.7399780777      -40.0469955235       18.6431373717  MEMB      74              0.0000000000
      9182        74  QMPE      P              -0.7337016639      -38.9042296288       18.9118793147  MEMB      74              0.0000000000
      9183        74  QMPE      O13            -1.6710626148      -39.5181518154       19.8758123003  MEMB      74              0.0000000000
      9184        74  QMPE      O14            -0.4646401031      -39.6381385349       17.6132962784  MEMB      74              0.0000000000
      9185        74  QMPE      O11            -1.1116033203      -37.4017493415       18.6890409226  MEMB      74              0.0000000000
      9186        74  QMPE      O12             0.5786343508      -38.6515576838       19.7444963208  MEMB      74              0.0000000000
      9187        74  QMPE      C1             -0.2394967865      -36.5979760248       17.8943499472  MEMB      74              0.0000000000
      9188        74  QMPE      HA              0.4848436902      -37.1997913955       17.3048839740  MEMB      74              0.0000000000
      9189        74  QMPE      HB              0.2144650781      -35.8571171045       18.5867138743  MEMB      74              0.0000000000
      9190        74  QMPE      C2             -1.1714082416      -35.8045664630       16.8665299034  MEMB      74              0.0000000000
      9191        74  QMPE      HS             -1.6177652509      -34.9757648894       17.4565927794  MEMB      74              0.0000000000
      9192        74  QMPE      O21            -2.2049631560      -36.6365916980       16.3902652307  MEMB      74              0.0000000000
      9193        74  QMPE      C21            -3.1677525975      -35.9773564571       15.8013420359  MEMB      74              0.0000000000
      9194        74  QMPE      O22            -3.3461082032      -34.7531543356       15.9319597070  MEMB      74              0.0000000000
      9195        74  QMPE      C22            -4.0392978139      -37.0220177423       15.1631086902  MEMB      74              0.0000000000
      9196        74  QMPE      H2R            -4.4342515059      -37.7421436542       15.9112734521  MEMB      74              0.0000000000
      9197        74  QMPE      H2S            -3.3127696467      -37.5147500786       14.4821587217  MEMB      74              0.0000000000
      9198        74  QMPE      C3             -0.3622529027      -35.1512625080       15.7315671260  MEMB      74              0.0000000000
      9199        74  QMPE      HX              0.4011466578      -34.5613688664       16.2825367304  MEMB      74              0.0000000000
      9200        74  QMPE      HY             -1.0336796927      -34.4926425593       15.1401898461  MEMB      74              0.0000000000
      9201        74  QMPE      O31             0.3303206414      -36.1783414611       14.9284909147  MEMB      74              0.0000000000
      9202        74  QMPE      C31            -0.0759837328      -36.2526738936       13.6547511446  MEMB      74              0.0000000000
      9203        74  QMPE      O32            -0.8212256264      -35.4459235032       13.1201545951  MEMB      74              0.0000000000
      9204        74  QMPE      C32             0.7161056501      -37.3668415646       12.9304914138  MEMB      74              0.0000000000
      9205        74  QMPE      H2X             1.7554468879      -36.9764131229       12.8897919367  MEMB      74              0.0000000000
      9206        74  QMPE      H2Y             0.7204180034      -38.2266498086       13.6340764018  MEMB      74              0.0000000000
      9207        74  QMPE      C23            -5.2140649980      -36.4446028198       14.3154257387  MEMB      74              0.0000000000
      9208        74  QMPE      H3R            -5.9275876931      -36.0531551383       15.0717161695  MEMB      74              0.0000000000
      9209        74  QMPE      H3S            -5.5787300735      -37.4121106024       13.9088927176  MEMB      74              0.0000000000
      9210        74  QMPE      C24            -4.7310733805      -35.5819544370       13.1145153473  MEMB      74              0.0000000000
      9211        74  QMPE      H4R            -4.1500722422      -34.7511681852       13.5689959739  MEMB      74              0.0000000000
      9212        74  QMPE      H4S            -5.5867661398      -35.0858702448       12.6085396488  MEMB      74              0.0000000000
      9213        74  QMPE      C25            -3.8559120172      -36.2473011438       12.0061156396  MEMB      74              0.0000000000
      9214        74  QMPE      H5R            -4.5017818880      -37.0348805251       11.5623910693  MEMB      74              0.0000000000
      9215        74  QMPE      H5S            -2.9248090090      -36.6650493193       12.4452684531  MEMB      74              0.0000000000
      9216        74  QMPE      C26            -3.5205713203      -35.1984447767       11.0196342014  MEMB      74              0.0000000000
      9217        74  QMPE      H6R            -2.9184556657      -34.4631945683       11.5951208582  MEMB      74              0.0000000000
      9218        74  QMPE      H6S            -4.4352968734      -34.6496351423       10.7091401588  MEMB      74              0.0000000000
      9219        74  QMPE      C27            -2.5637507504      -35.6564301273        9.8859823983  MEMB      74              0.0000000000
      9220        74  QMPE      H7R            -3.0876036560      -36.3925895344        9.2394780952  MEMB      74              0.0000000000
      9221        74  QMPE      H7S            -1.6680663021      -36.1144746555       10.3574334431  MEMB      74              0.0000000000
      9222        74  QMPE      C28            -2.1077713983      -34.6164452271        8.9599657559  MEMB      74              0.0000000000
      9223        74  QMPE      H8R            -2.9395507461      -34.1395259593        8.3987062043  MEMB      74              0.0000000000
      9224        74  QMPE      H8S            -1.4443620484      -35.1723535823        8.2634208154  MEMB      74              0.0000000000
      9225        74  QMPE      C29            -1.1243527862      -33.6236861890        9.6243493521  MEMB      74              0.0000000000
      9226        74  QMPE      H9R            -0.4887319161      -33.9076459912       10.4901861028  MEMB      74              0.0000000000
      9227        74  QMPE      C217           -1.6979339528      -32.2100464917        9.6638459399  MEMB      74              0.0000000000
      9228        74  QMPE      H17R           -2.7160714699      -32.3138159026        9.3095624842  MEMB      74              0.0000000000
      9229        74  QMPE      H17S           -1.4488583648      -31.7461597683       10.6102387597  MEMB      74              0.0000000000
      9230        74  QMPE      C210           -0.5227050887      -32.5790292892        8.7388186954  MEMB      74              0.0000000000
      9231        74  QMPE      H10R            0.3695706834      -32.0054029040        9.0691483903  MEMB      74              0.0000000000
      9232        74  QMPE      C211           -1.0084613312      -32.5121647220        7.3309489605  MEMB      74              0.0000000000
      9233        74  QMPE      H11R           -1.9876408466      -32.9731196349        7.0798527274  MEMB      74              0.0000000000
      9234        74  QMPE      H11S           -1.0425378367      -31.4471291951        7.0165299387  MEMB      74              0.0000000000
      9235        74  QMPE      C212            0.1151827424      -33.2492782906        6.5116742188  MEMB      74              0.0000000000
      9236        74  QMPE      H12R            0.0471833624      -34.3245842046        6.7826247920  MEMB      74              0.0000000000
      9237        74  QMPE      H12S            1.1490113525      -32.8826955801        6.6881296583  MEMB      74              0.0000000000
      9238        74  QMPE      C213            0.0033282471      -33.1797927245        4.9239078982  MEMB      74              0.0000000000
      9239        74  QMPE      H13R            0.7717682973      -33.8947288368        4.5596453208  MEMB      74              0.0000000000
      9240        74  QMPE      H13S            0.2955988184      -32.1421515384        4.6552089400  MEMB      74              0.0000000000
      9241        74  QMPE      C214           -1.3359040155      -33.6942457422        4.3307249984  MEMB      74              0.0000000000
      9242        74  QMPE      H14R           -2.1566694526      -33.0318029889        4.6797730113  MEMB      74              0.0000000000
      9243        74  QMPE      H14S           -1.6282441784      -34.6804214526        4.7506237506  MEMB      74              0.0000000000
      9244        74  QMPE      C215           -1.4949284263      -33.8042145602        2.8731208843  MEMB      74              0.0000000000
      9245        74  QMPE      H15R           -2.5440258695      -34.0410172195        2.5944815849  MEMB      74              0.0000000000
      9246        74  QMPE      H15S           -0.8418919536      -34.6007711489        2.4567536055  MEMB      74              0.0000000000
      9247        74  QMPE      C216           -1.2325716373      -32.4689619625        2.1109273001  MEMB      74              0.0000000000
      9248        74  QMPE      H16R           -2.0249922142      -31.8126375101        2.5300078563  MEMB      74              0.0000000000
      9249        74  QMPE      H16S           -1.3128961464      -32.6963227922        1.0264108102  MEMB      74              0.0000000000
      9250        74  QMPE      H16T           -0.1846658693      -32.1670585576        2.3232200390  MEMB      74              0.0000000000
      9251        74  QMPE      C33             0.0660902478      -37.6273528739       11.5892219770  MEMB      74              0.0000000000
      9252        74  QMPE      H3X             0.3959365483      -36.9036112845       10.8135155331  MEMB      74              0.0000000000
      9253        74  QMPE      H3Y            -1.0417558657      -37.5703567582       11.6504554134  MEMB      74              0.0000000000
      9254        74  QMPE      C34             0.5355765651      -39.0263988810       11.0516184909  MEMB      74              0.0000000000
      9255        74  QMPE      H4X             0.1470551116      -39.7205740678       11.8271778623  MEMB      74              0.0000000000
      9256        74  QMPE      H4Y             1.6388303495      -39.1259441144       11.1367229994  MEMB      74              0.0000000000
      9257        74  QMPE      C35             0.1789534564      -39.3545210111        9.5435009102  MEMB      74              0.0000000000
      9258        74  QMPE      H5X             0.5939138718      -40.3414594247        9.2467159725  MEMB      74              0.0000000000
      9259        74  QMPE      H5Y             0.6635254322      -38.5342381720        8.9719698003  MEMB      74              0.0000000000
      9260        74  QMPE      C36            -1.3284131488      -39.2490918397        9.0983026329  MEMB      74              0.0000000000
      9261        74  QMPE      H6X            -1.8526523841      -38.4574803215        9.6752303714  MEMB      74              0.0000000000
      9262        74  QMPE      H6Y            -1.7257370464      -40.2569266429        9.3447248034  MEMB      74              0.0000000000
      9263        74  QMPE      C37            -1.5016428336      -39.1641769572        7.5914997620  MEMB      74              0.0000000000
      9264        74  QMPE      H7X            -1.0177337548      -38.2014342709        7.3207967536  MEMB      74              0.0000000000
      9265        74  QMPE      H7Y            -1.0013068332      -39.9607842591        7.0003976242  MEMB      74              0.0000000000
      9266        74  QMPE      C38            -3.0244485629      -38.9927774857        7.2627431032  MEMB      74              0.0000000000
      9267        74  QMPE      H8X            -3.4003738427      -40.0170610600        7.4721340260  MEMB      74              0.0000000000
      9268        74  QMPE      H8Y            -3.5190104588      -38.2095826459        7.8762050332  MEMB      74              0.0000000000
      9269        74  QMPE      C39            -3.5139074239      -38.6857465642        5.8630277486  MEMB      74              0.0000000000
      9270        74  QMPE      H9X            -4.6145114896      -38.5417632418        5.9105745666  MEMB      74              0.0000000000
      9271        74  QMPE      H9Y            -3.3082213093      -39.4963281262        5.1316100464  MEMB      74              0.0000000000
      9272        74  QMPE      C310           -3.0832668521      -37.2526577256        5.4428179531  MEMB      74              0.0000000000
      9273        74  QMPE      H10X           -1.9918878847      -37.3984266530        5.2946139439  MEMB      74              0.0000000000
      9274        74  QMPE      H10Y           -3.0699306099      -36.4957520272        6.2559824330  MEMB      74              0.0000000000
      9275        74  QMPE      C311           -3.8500112963      -36.6829337556        4.2026702200  MEMB      74              0.0000000000
      9276        74  QMPE      H11X           -3.3903053699      -35.7349470139        3.8500893662  MEMB      74              0.0000000000
      9277        74  QMPE      H11Y           -4.9434396528      -36.5352009468        4.3327104942  MEMB      74              0.0000000000
      9278        74  QMPE      C312           -3.6165278225      -37.5597850714        2.9457035003  MEMB      74              0.0000000000
      9279        74  QMPE      H12X           -4.0660309259      -37.0037066754        2.0953843272  MEMB      74              0.0000000000
      9280        74  QMPE      H12Y           -4.1735931154      -38.4950241294        3.1678021794  MEMB      74              0.0000000000
      9281        74  QMPE      C313           -2.0790681393      -37.9480976640        2.7597812744  MEMB      74              0.0000000000
      9282        74  QMPE      H13X           -1.4343525659      -37.0523133793        2.8871915779  MEMB      74              0.0000000000
      9283        74  QMPE      H13Y           -1.7696375564      -38.6540552497        3.5599055167  MEMB      74              0.0000000000
      9284        74  QMPE      C314           -1.7491882226      -38.5751688877        1.3975220666  MEMB      74              0.0000000000
      9285        74  QMPE      H14X           -1.6397412534      -39.6784478184        1.4690628564  MEMB      74              0.0000000000
      9286        74  QMPE      H14Y           -0.7221775521      -38.1767433419        1.2532050817  MEMB      74              0.0000000000
      9287        74  QMPE      C315           -2.5502571740      -38.0596630950        0.0962103390  MEMB      74              0.0000000000
      9288        74  QMPE      H15X           -3.6278779137      -38.2927896561        0.2329820078  MEMB      74              0.0000000000
      9289        74  QMPE      H15Y           -2.3788224976      -36.9754053655        0.2674312637  MEMB      74              0.0000000000
      9290        74  QMPE      H15Z           -2.1477961094      -38.4823611005       -0.8491315607  MEMB      74              0.0000000000
      9291        75  PMPE      N             -25.5707153491       30.7036003350       20.8351953765  MEMB      75              0.0000000000
      9292        75  PMPE      HN1           -25.9484989900       30.8562574022       21.7920524457  MEMB      75              0.0000000000
      9293        75  PMPE      HN2           -25.0474987782       31.5315441249       20.4854048565  MEMB      75              0.0000000000
      9294        75  PMPE      HN3           -26.3541221951       30.6815435533       20.1515382352  MEMB      75              0.0000000000
      9295        75  PMPE      C12           -24.7094951240       29.4189340953       20.7605725957  MEMB      75              0.0000000000
      9296        75  PMPE      H12A          -25.3730706785       28.6011571758       21.1144504777  MEMB      75              0.0000000000
      9297        75  PMPE      H12B          -23.7856239901       29.5764290675       21.3572118981  MEMB      75              0.0000000000
      9298        75  PMPE      C11           -24.3197890743       29.1652489490       19.2734690361  MEMB      75              0.0000000000
      9299        75  PMPE      H11A          -25.1491523320       29.2884094417       18.5445595018  MEMB      75              0.0000000000
      9300        75  PMPE      H11B          -23.9786424651       28.1235885422       19.0921304807  MEMB      75              0.0000000000
      9301        75  PMPE      P             -23.3350399231       31.4859062275       18.2646619530  MEMB      75              0.0000000000
      9302        75  PMPE      O13           -21.9413733811       31.8588565618       18.3154173248  MEMB      75              0.0000000000
      9303        75  PMPE      O14           -24.3583269163       32.4226303724       18.8248113975  MEMB      75              0.0000000000
      9304        75  PMPE      O11           -23.6647659892       31.2118915569       16.7901523263  MEMB      75              0.0000000000
      9305        75  PMPE      O12           -23.3233478442       30.0468526979       18.9357199897  MEMB      75              0.0000000000
      9306        75  PMPE      C1            -22.9491600103       30.4379858069       15.9056783148  MEMB      75              0.0000000000
      9307        75  PMPE      HA            -22.6550875075       29.4778105564       16.3809738355  MEMB      75              0.0000000000
      9308        75  PMPE      HB            -21.9580859724       30.8523044538       15.6220706295  MEMB      75              0.0000000000
      9309        75  PMPE      C2            -23.8008561953       29.9714096618       14.7958027636  MEMB      75              0.0000000000
      9310        75  PMPE      HS            -23.2359715634       29.3561468504       14.0632195580  MEMB      75              0.0000000000
      9311        75  PMPE      O21           -24.3007095925       31.1233640412       14.0568299168  MEMB      75              0.0000000000
      9312        75  PMPE      C21           -23.4291518111       31.8165665198       13.3370153428  MEMB      75              0.0000000000
      9313        75  PMPE      O22           -22.2585450271       31.4985990279       13.2069140853  MEMB      75              0.0000000000
      9314        75  PMPE      C22           -24.1716828653       32.9709966123       12.7804996751  MEMB      75              0.0000000000
      9315        75  PMPE      H2R           -24.9370503641       33.2562503125       13.5336024704  MEMB      75              0.0000000000
      9316        75  PMPE      H2S           -24.6615751708       32.7373696790       11.8110952183  MEMB      75              0.0000000000
      9317        75  PMPE      C3            -25.0243989092       29.0763651236       15.2068477802  MEMB      75              0.0000000000
      9318        75  PMPE      HX            -25.6095091758       29.6784310839       15.9345039604  MEMB      75              0.0000000000
      9319        75  PMPE      HY            -24.7674635843       28.1084374353       15.6879105166  MEMB      75              0.0000000000
      9320        75  PMPE      O31           -25.8359250928       28.6669953096       14.0959264826  MEMB      75              0.0000000000
      9321        75  PMPE      C31           -26.7423094474       29.6170757963       13.7403402606  MEMB      75              0.0000000000
      9322        75  PMPE      O32           -27.1363288544       30.5574227095       14.3700461058  MEMB      75              0.0000000000
      9323        75  PMPE      C32           -27.4842547648       29.2589847877       12.4658398399  MEMB      75              0.0000000000
      9324        75  PMPE      H2X           -28.4134143072       28.8696019794       12.9342036899  MEMB      75              0.0000000000
      9325        75  PMPE      H2Y           -26.9147250418       28.5442556655       11.8340811892  MEMB      75              0.0000000000
      9326        75  PMPE      C23           -23.2824417819       34.2182933923       12.5709593447  MEMB      75              0.0000000000
      9327        75  PMPE      H3R           -22.5279481844       34.2113410048       13.3864423123  MEMB      75              0.0000000000
      9328        75  PMPE      H3S           -23.8228282505       35.1854847816       12.6536907255  MEMB      75              0.0000000000
      9329        75  PMPE      C24           -22.6823495991       34.2162136316       11.1929289502  MEMB      75              0.0000000000
      9330        75  PMPE      H4R           -23.4169128799       34.1850391012       10.3600028206  MEMB      75              0.0000000000
      9331        75  PMPE      H4S           -21.8223342295       33.5334447961       11.0240467498  MEMB      75              0.0000000000
      9332        75  PMPE      C25           -22.1412132030       35.5793316280       10.7999010024  MEMB      75              0.0000000000
      9333        75  PMPE      H5R           -21.2406991529       35.6430410641       11.4474633426  MEMB      75              0.0000000000
      9334        75  PMPE      H5S           -22.8060990202       36.4354100353       11.0435757622  MEMB      75              0.0000000000
      9335        75  PMPE      C26           -21.7857279845       35.7221842034        9.3224257369  MEMB      75              0.0000000000
      9336        75  PMPE      H6R           -21.2079406861       34.8531129856        8.9413771364  MEMB      75              0.0000000000
      9337        75  PMPE      H6S           -21.1529710486       36.6340692191        9.2733778775  MEMB      75              0.0000000000
      9338        75  PMPE      C27           -22.9778336559       35.8092919411        8.3464368848  MEMB      75              0.0000000000
      9339        75  PMPE      H7R           -23.3532621292       36.8367788408        8.5404612091  MEMB      75              0.0000000000
      9340        75  PMPE      H7S           -23.8331812924       35.1130815620        8.4805729363  MEMB      75              0.0000000000
      9341        75  PMPE      C28           -22.4552929931       35.6545759570        6.9020823696  MEMB      75              0.0000000000
      9342        75  PMPE      H8R           -21.5168446714       36.2144887829        6.7017499937  MEMB      75              0.0000000000
      9343        75  PMPE      H8S           -23.2585673230       35.9884651469        6.2110041286  MEMB      75              0.0000000000
      9344        75  PMPE      C29           -22.2057117738       34.1399950823        6.6608121236  MEMB      75              0.0000000000
      9345        75  PMPE      H9R           -22.6204391180       33.4326292647        7.4104485430  MEMB      75              0.0000000000
      9346        75  PMPE      C217          -20.7030723135       33.9383383318        6.2427005411  MEMB      75              0.0000000000
      9347        75  PMPE      H17R          -20.2927983145       33.1248050200        6.8281300271  MEMB      75              0.0000000000
      9348        75  PMPE      H17S          -20.1596260012       34.8466112780        6.0133639748  MEMB      75              0.0000000000
      9349        75  PMPE      C210          -21.8501933691       33.6185895367        5.2449602504  MEMB      75              0.0000000000
      9350        75  PMPE      H10R          -22.0244609379       32.5270494969        5.1331912458  MEMB      75              0.0000000000
      9351        75  PMPE      C211          -22.0395507476       34.4218246143        4.0245520832  MEMB      75              0.0000000000
      9352        75  PMPE      H11R          -21.3604255066       34.1143436701        3.2008017058  MEMB      75              0.0000000000
      9353        75  PMPE      H11S          -21.7685694005       35.4734474436        4.2590303977  MEMB      75              0.0000000000
      9354        75  PMPE      C212          -23.4918326056       34.4074432305        3.5756033528  MEMB      75              0.0000000000
      9355        75  PMPE      H12R          -24.0353307341       35.0950713296        4.2583173702  MEMB      75              0.0000000000
      9356        75  PMPE      H12S          -23.9534954176       33.4162872592        3.7725761004  MEMB      75              0.0000000000
      9357        75  PMPE      C213          -23.6290499566       34.7811429888        2.1229314459  MEMB      75              0.0000000000
      9358        75  PMPE      H13R          -23.0186320158       34.0771142683        1.5179074283  MEMB      75              0.0000000000
      9359        75  PMPE      H13S          -23.1419827727       35.7767091185        2.0458979076  MEMB      75              0.0000000000
      9360        75  PMPE      C214          -25.1087465404       34.8033042276        1.7382687236  MEMB      75              0.0000000000
      9361        75  PMPE      H14R          -25.1115371160       35.0778232135        0.6617222275  MEMB      75              0.0000000000
      9362        75  PMPE      H14S          -25.7258173604       35.5138217493        2.3287848595  MEMB      75              0.0000000000
      9363        75  PMPE      C215          -25.8497751602       33.4195975230        1.6638159865  MEMB      75              0.0000000000
      9364        75  PMPE      H15R          -26.9489566361       33.5344099171        1.5500653606  MEMB      75              0.0000000000
      9365        75  PMPE      H15S          -25.8046623624       32.8592310430        2.6220827341  MEMB      75              0.0000000000
      9366        75  PMPE      C216          -25.4555194447       32.4653788814        0.5146634362  MEMB      75              0.0000000000
      9367        75  PMPE      H16R          -25.8459282523       32.9842660544       -0.3868122939  MEMB      75              0.0000000000
      9368        75  PMPE      H16S          -24.3649203168       32.2690912134        0.4347519987  MEMB      75              0.0000000000
      9369        75  PMPE      H16T          -25.9016719314       31.4655231522        0.7032303150  MEMB      75              0.0000000000
      9370        75  PMPE      C33           -27.8317134476       30.5096603293       11.5996527243  MEMB      75              0.0000000000
      9371        75  PMPE      H3X           -28.0125438592       31.4727302201       12.1232152420  MEMB      75              0.0000000000
      9372        75  PMPE      H3Y           -28.8332598341       30.2902884601       11.1717479122  MEMB      75              0.0000000000
      9373        75  PMPE      C34           -26.8126745073       30.6713694134       10.4909592866  MEMB      75              0.0000000000
      9374        75  PMPE      H4X           -26.6647954036       29.6680069943       10.0373992306  MEMB      75              0.0000000000
      9375        75  PMPE      H4Y           -25.7882028436       30.7775808322       10.9074902195  MEMB      75              0.0000000000
      9376        75  PMPE      C35           -27.2980097502       31.6915414065        9.4892420764  MEMB      75              0.0000000000
      9377        75  PMPE      H5X           -27.4727050224       32.6135335095       10.0839964095  MEMB      75              0.0000000000
      9378        75  PMPE      H5Y           -28.2894895700       31.4566644825        9.0463850371  MEMB      75              0.0000000000
      9379        75  PMPE      C36           -26.2017454101       32.2022235041        8.5699218368  MEMB      75              0.0000000000
      9380        75  PMPE      H6X           -25.2922680387       32.4323248477        9.1650899801  MEMB      75              0.0000000000
      9381        75  PMPE      H6Y           -26.5427952016       33.0380374426        7.9222945468  MEMB      75              0.0000000000
      9382        75  PMPE      C37           -25.9375084570       30.9986989631        7.5383325442  MEMB      75              0.0000000000
      9383        75  PMPE      H7X           -26.9824147661       30.7680443703        7.2395175644  MEMB      75              0.0000000000
      9384        75  PMPE      H7Y           -25.4904552641       30.1510393561        8.1004158150  MEMB      75              0.0000000000
      9385        75  PMPE      C38           -25.1534148590       31.2108760483        6.2847654643  MEMB      75              0.0000000000
      9386        75  PMPE      H8X           -24.1317984848       31.5683998349        6.5353596971  MEMB      75              0.0000000000
      9387        75  PMPE      H8Y           -25.7176038614       31.9673613882        5.6984708367  MEMB      75              0.0000000000
      9388        75  PMPE      C39           -24.8483730533       30.0251527400        5.2805461281  MEMB      75              0.0000000000
      9389        75  PMPE      H9X           -25.8536857003       29.6371995554        5.0100658463  MEMB      75              0.0000000000
      9390        75  PMPE      H9Y           -24.2437622138       29.2275031100        5.7627515773  MEMB      75              0.0000000000
      9391        75  PMPE      C310          -24.2215702223       30.4036417979        3.9678061077  MEMB      75              0.0000000000
      9392        75  PMPE      H10X          -23.5006586029       31.2404423134        4.0876903319  MEMB      75              0.0000000000
      9393        75  PMPE      H10Y          -24.9681120578       30.8512493433        3.2774123094  MEMB      75              0.0000000000
      9394        75  PMPE      C311          -23.4760294046       29.2762119207        3.2872382356  MEMB      75              0.0000000000
      9395        75  PMPE      H11X          -24.1875187366       28.4638030688        3.0262860446  MEMB      75              0.0000000000
      9396        75  PMPE      H11Y          -22.6838511597       28.8552852959        3.9426733432  MEMB      75              0.0000000000
      9397        75  PMPE      C312          -22.6354381274       29.5930850817        2.0107640746  MEMB      75              0.0000000000
      9398        75  PMPE      H12X          -23.2356654835       29.5303581176        1.0779668517  MEMB      75              0.0000000000
      9399        75  PMPE      H12Y          -21.9768214804       28.7023494054        1.9262953934  MEMB      75              0.0000000000
      9400        75  PMPE      C313          -21.6588268181       30.7558766362        2.2265713516  MEMB      75              0.0000000000
      9401        75  PMPE      H13X          -20.9691171913       30.4104210223        3.0261237389  MEMB      75              0.0000000000
      9402        75  PMPE      H13Y          -22.3342805204       31.5915321672        2.5089961663  MEMB      75              0.0000000000
      9403        75  PMPE      C314          -20.7270262609       31.0885847787        1.0734379061  MEMB      75              0.0000000000
      9404        75  PMPE      H14X          -20.4144565167       30.1159724226        0.6368065471  MEMB      75              0.0000000000
      9405        75  PMPE      H14Y          -19.7792232467       31.5590147611        1.4120917761  MEMB      75              0.0000000000
      9406        75  PMPE      C315          -21.2999035875       32.1256060489        0.1591447127  MEMB      75              0.0000000000
      9407        75  PMPE      H15X          -21.4673555745       33.0848142798        0.6941224453  MEMB      75              0.0000000000
      9408        75  PMPE      H15Y          -22.2760650995       31.8387328892       -0.2870992979  MEMB      75              0.0000000000
      9409        75  PMPE      C316          -20.3679740170       32.4786619462       -0.9586485786  MEMB      75              0.0000000000
      9410        75  PMPE      H16X          -20.7833798308       33.4310802591       -1.3519140586  MEMB      75              0.0000000000
      9411        75  PMPE      H16Y          -20.4484143786       31.7904686313       -1.8271188448  MEMB      75              0.0000000000
      9412        75  PMPE      H16Z          -19.3251373383       32.4544210750       -0.5762547583  MEMB      75              0.0000000000
      9413        76  QMPE      N              24.9926265507      -32.7204312356       19.5542236889  MEMB      76              0.0000000000
      9414        76  QMPE      HN1            24.9853844614      -33.4075299078       20.3348917607  MEMB      76              0.0000000000
      9415        76  QMPE      HN2            26.0079685187      -32.6146038430       19.3555253971  MEMB      76              0.0000000000
      9416        76  QMPE      HN3            24.5322842757      -31.8562242618       19.9046971994  MEMB      76              0.0000000000
      9417        76  QMPE      C12            24.1976335554      -33.1811790123       18.3394778181  MEMB      76              0.0000000000
      9418        76  QMPE      H12A           24.8490362982      -34.0101141875       17.9889613798  MEMB      76              0.0000000000
      9419        76  QMPE      H12B           24.2403996364      -32.4144071586       17.5366373063  MEMB      76              0.0000000000
      9420        76  QMPE      C11            22.7271488697      -33.5130378235       18.6591551078  MEMB      76              0.0000000000
      9421        76  QMPE      H11A           22.8364815344      -34.3966638744       19.3236641799  MEMB      76              0.0000000000
      9422        76  QMPE      H11B           22.1889611993      -33.9826825137       17.8082092193  MEMB      76              0.0000000000
      9423        76  QMPE      P              20.5121728960      -32.4959578418       19.1925396087  MEMB      76              0.0000000000
      9424        76  QMPE      O13            19.9439874018      -31.3102312191       19.8456319107  MEMB      76              0.0000000000
      9425        76  QMPE      O14            19.9510076893      -33.8161068211       19.4008116549  MEMB      76              0.0000000000
      9426        76  QMPE      O11            20.4743680979      -32.1171850195       17.6330995902  MEMB      76              0.0000000000
      9427        76  QMPE      O12            22.0772541370      -32.4478694257       19.3750606244  MEMB      76              0.0000000000
      9428        76  QMPE      C1             19.7798588205      -30.8776807514       17.3593444504  MEMB      76              0.0000000000
      9429        76  QMPE      HA             20.2162329736      -29.9687610180       17.8259957824  MEMB      76              0.0000000000
      9430        76  QMPE      HB             18.7633407844      -30.8353051234       17.8056808722  MEMB      76              0.0000000000
      9431        76  QMPE      C2             19.3920518298      -30.6152566151       15.8770079713  MEMB      76              0.0000000000
      9432        76  QMPE      HS             18.4734750042      -29.9903786937       15.8850607827  MEMB      76              0.0000000000
      9433        76  QMPE      O21            19.0488953031      -31.8491820886       15.1757403514  MEMB      76              0.0000000000
      9434        76  QMPE      C21            18.4504165558      -31.7755312068       14.0114586578  MEMB      76              0.0000000000
      9435        76  QMPE      O22            17.7831462439      -30.8041266313       13.6009907838  MEMB      76              0.0000000000
      9436        76  QMPE      C22            18.4655826700      -33.1535429278       13.3108306422  MEMB      76              0.0000000000
      9437        76  QMPE      H2R            18.2981837274      -33.8744455206       14.1394429028  MEMB      76              0.0000000000
      9438        76  QMPE      H2S            19.4488262060      -33.3436730930       12.8297865478  MEMB      76              0.0000000000
      9439        76  QMPE      C3             20.5513555883      -29.9572721938       15.0505791588  MEMB      76              0.0000000000
      9440        76  QMPE      HX             20.8212235633      -28.9443574922       15.4186768985  MEMB      76              0.0000000000
      9441        76  QMPE      HY             20.1130625192      -29.7825580429       14.0447485339  MEMB      76              0.0000000000
      9442        76  QMPE      O31            21.5727590058      -30.9408571068       14.8873091747  MEMB      76              0.0000000000
      9443        76  QMPE      C31            22.6940243244      -30.7794936406       15.5163957445  MEMB      76              0.0000000000
      9444        76  QMPE      O32            23.0313367871      -29.8527597344       16.2363236081  MEMB      76              0.0000000000
      9445        76  QMPE      C32            23.6212346327      -31.8241850111       14.8781933571  MEMB      76              0.0000000000
      9446        76  QMPE      H2X            24.6578642823      -31.6715500658       15.2475479371  MEMB      76              0.0000000000
      9447        76  QMPE      H2Y            23.3002153383      -32.8122066076       15.2719969473  MEMB      76              0.0000000000
      9448        76  QMPE      C23            17.3448311688      -33.2450102268       12.2327297420  MEMB      76              0.0000000000
      9449        76  QMPE      H3R            17.5295653762      -32.4544530721       11.4743011838  MEMB      76              0.0000000000
      9450        76  QMPE      H3S            16.3675221205      -32.9630996888       12.6796238981  MEMB      76              0.0000000000
      9451        76  QMPE      C24            17.2294169944      -34.5565281911       11.4399197703  MEMB      76              0.0000000000
      9452        76  QMPE      H4R            16.5602527658      -34.4258013149       10.5627365735  MEMB      76              0.0000000000
      9453        76  QMPE      H4S            16.7389759859      -35.3791602824       12.0030054261  MEMB      76              0.0000000000
      9454        76  QMPE      C25            18.5706504918      -35.1704913971       11.0744055529  MEMB      76              0.0000000000
      9455        76  QMPE      H5R            19.2727580912      -35.3464391786       11.9172632465  MEMB      76              0.0000000000
      9456        76  QMPE      H5S            19.1691526578      -34.5929398873       10.3378254372  MEMB      76              0.0000000000
      9457        76  QMPE      C26            18.4670041129      -36.6570635320       10.4524199110  MEMB      76              0.0000000000
      9458        76  QMPE      H6R            17.8629483347      -36.5502363331        9.5261231459  MEMB      76              0.0000000000
      9459        76  QMPE      H6S            17.7507909960      -37.1203552046       11.1642635956  MEMB      76              0.0000000000
      9460        76  QMPE      C27            19.7617985341      -37.3609091852       10.1083347990  MEMB      76              0.0000000000
      9461        76  QMPE      H7R            19.4822371021      -38.3436003410        9.6718888592  MEMB      76              0.0000000000
      9462        76  QMPE      H7S            20.3775228296      -37.5474993488       11.0140878486  MEMB      76              0.0000000000
      9463        76  QMPE      C28            20.7542185386      -36.6378052324        9.2101611186  MEMB      76              0.0000000000
      9464        76  QMPE      H8R            21.1873971219      -35.7244118969        9.6710199272  MEMB      76              0.0000000000
      9465        76  QMPE      H8S            20.2442924191      -36.2849483491        8.2883220906  MEMB      76              0.0000000000
      9466        76  QMPE      C29            21.9459494131      -37.4855436766        8.7357057275  MEMB      76              0.0000000000
      9467        76  QMPE      H9R            22.4378540426      -38.0827739182        9.5329925765  MEMB      76              0.0000000000
      9468        76  QMPE      C217           23.0211986159      -36.4651091745        8.2121136544  MEMB      76              0.0000000000
      9469        76  QMPE      H17R           22.5723882762      -35.5457094653        7.8569203997  MEMB      76              0.0000000000
      9470        76  QMPE      H17S           24.0522774960      -36.7340173454        8.4056417699  MEMB      76              0.0000000000
      9471        76  QMPE      C210           22.4782520478      -37.5953939827        7.3370494440  MEMB      76              0.0000000000
      9472        76  QMPE      H10R           23.2125888336      -38.4045520480        7.1362161276  MEMB      76              0.0000000000
      9473        76  QMPE      C211           21.4566722398      -37.4288604519        6.1951971380  MEMB      76              0.0000000000
      9474        76  QMPE      H11R           21.0241238224      -36.4084245413        6.1181697261  MEMB      76              0.0000000000
      9475        76  QMPE      H11S           21.9937983458      -37.4203800276        5.2227028319  MEMB      76              0.0000000000
      9476        76  QMPE      C212           20.3170120028      -38.4876690910        6.1504593688  MEMB      76              0.0000000000
      9477        76  QMPE      H12R           19.7690673621      -38.1755958374        7.0651657329  MEMB      76              0.0000000000
      9478        76  QMPE      H12S           20.7903047006      -39.4865319135        6.2626578209  MEMB      76              0.0000000000
      9479        76  QMPE      C213           19.3979912914      -38.1958989241        5.0351088580  MEMB      76              0.0000000000
      9480        76  QMPE      H13R           19.1707463542      -37.1086883776        5.0095419306  MEMB      76              0.0000000000
      9481        76  QMPE      H13S           18.4846525759      -38.8140590850        5.1693159101  MEMB      76              0.0000000000
      9482        76  QMPE      C214           19.9301716766      -38.4022296726        3.6117560821  MEMB      76              0.0000000000
      9483        76  QMPE      H14R           20.4202507122      -39.3983215287        3.5676612357  MEMB      76              0.0000000000
      9484        76  QMPE      H14S           20.7138775996      -37.6346383596        3.4358887762  MEMB      76              0.0000000000
      9485        76  QMPE      C215           18.7373975341      -38.3467202172        2.6613345526  MEMB      76              0.0000000000
      9486        76  QMPE      H15R           18.2415755828      -37.3525174708        2.6548259311  MEMB      76              0.0000000000
      9487        76  QMPE      H15S           17.9808542261      -39.0862591064        3.0005182136  MEMB      76              0.0000000000
      9488        76  QMPE      C216           19.2667010678      -38.6956726426        1.2114950307  MEMB      76              0.0000000000
      9489        76  QMPE      H16R           19.9777697020      -39.5465146746        1.2805629982  MEMB      76              0.0000000000
      9490        76  QMPE      H16S           19.6451024004      -37.7896160890        0.6916916970  MEMB      76              0.0000000000
      9491        76  QMPE      H16T           18.3765182133      -39.0557224164        0.6526907586  MEMB      76              0.0000000000
      9492        76  QMPE      C33            23.5813844152      -31.8282433609       13.2874308245  MEMB      76              0.0000000000
      9493        76  QMPE      H3X            24.6047034491      -32.0272314137       12.9033176478  MEMB      76              0.0000000000
      9494        76  QMPE      H3Y            23.3138397572      -30.8014427395       12.9581570738  MEMB      76              0.0000000000
      9495        76  QMPE      C34            22.6560145185      -32.8881276074       12.7312003906  MEMB      76              0.0000000000
      9496        76  QMPE      H4X            21.7820604345      -32.9636713830       13.4129763124  MEMB      76              0.0000000000
      9497        76  QMPE      H4Y            23.0595615568      -33.9168753298       12.8458687110  MEMB      76              0.0000000000
      9498        76  QMPE      C35            22.2202967309      -32.7128640645       11.2642904924  MEMB      76              0.0000000000
      9499        76  QMPE      H5X            21.6610497437      -33.6046473157       10.9089225327  MEMB      76              0.0000000000
      9500        76  QMPE      H5Y            23.1936816720      -32.7777960369       10.7326641199  MEMB      76              0.0000000000
      9501        76  QMPE      C36            21.6346105724      -31.3375001767       10.8859552568  MEMB      76              0.0000000000
      9502        76  QMPE      H6X            22.4319563444      -30.5722259525       10.7723050996  MEMB      76              0.0000000000
      9503        76  QMPE      H6Y            20.9741347000      -31.0884981592       11.7439126883  MEMB      76              0.0000000000
      9504        76  QMPE      C37            20.8737854909      -31.3745415530        9.5400782191  MEMB      76              0.0000000000
      9505        76  QMPE      H7X            20.1632654028      -32.2286323276        9.5367734770  MEMB      76              0.0000000000
      9506        76  QMPE      H7Y            20.2513774947      -30.4690699094        9.3756076187  MEMB      76              0.0000000000
      9507        76  QMPE      C38            21.8380099075      -31.4883339704        8.3662764889  MEMB      76              0.0000000000
      9508        76  QMPE      H8X            22.6193991756      -30.6989133714        8.3900905937  MEMB      76              0.0000000000
      9509        76  QMPE      H8Y            22.3769114825      -32.4347106224        8.5859977256  MEMB      76              0.0000000000
      9510        76  QMPE      C39            21.2053810451      -31.5733277125        7.0003135688  MEMB      76              0.0000000000
      9511        76  QMPE      H9X            21.9613055294      -31.3742970190        6.2108290781  MEMB      76              0.0000000000
      9512        76  QMPE      H9Y            20.4562315042      -30.7756856889        6.8083157636  MEMB      76              0.0000000000
      9513        76  QMPE      C310           20.5145678652      -32.8918595165        6.7412599742  MEMB      76              0.0000000000
      9514        76  QMPE      H10X           19.5563299994      -33.0335387404        7.2853446055  MEMB      76              0.0000000000
      9515        76  QMPE      H10Y           21.1326081747      -33.7678482664        7.0327915826  MEMB      76              0.0000000000
      9516        76  QMPE      C311           20.1191951107      -33.0219620525        5.2352918968  MEMB      76              0.0000000000
      9517        76  QMPE      H11X           19.5234748729      -32.1455977596        4.9014896262  MEMB      76              0.0000000000
      9518        76  QMPE      H11Y           19.4883924537      -33.9350653523        5.1838011279  MEMB      76              0.0000000000
      9519        76  QMPE      C312           21.3131904047      -33.2879311905        4.3901816524  MEMB      76              0.0000000000
      9520        76  QMPE      H12X           22.0652916605      -33.9700660177        4.8411329735  MEMB      76              0.0000000000
      9521        76  QMPE      H12Y           21.7650463999      -32.2859773257        4.2282082633  MEMB      76              0.0000000000
      9522        76  QMPE      C313           21.0715053993      -34.1130557610        3.1220033471  MEMB      76              0.0000000000
      9523        76  QMPE      H13X           22.0041648746      -34.5516234537        2.7071231822  MEMB      76              0.0000000000
      9524        76  QMPE      H13Y           20.5261487247      -35.0636973941        3.3041776970  MEMB      76              0.0000000000
      9525        76  QMPE      C314           20.4638858935      -33.2756343784        1.9980688461  MEMB      76              0.0000000000
      9526        76  QMPE      H14X           21.0178973587      -32.3511730599        1.7283223340  MEMB      76              0.0000000000
      9527        76  QMPE      H14Y           19.4771164804      -32.9718782394        2.4083610801  MEMB      76              0.0000000000
      9528        76  QMPE      C315           20.1208041357      -34.1170864685        0.6947085629  MEMB      76              0.0000000000
      9529        76  QMPE      H15X           19.4162791556      -34.9617054205        0.8515020566  MEMB      76              0.0000000000
      9530        76  QMPE      H15Y           19.6982938610      -33.4476614093       -0.0848278962  MEMB      76              0.0000000000
      9531        76  QMPE      H15Z           21.0355606134      -34.5467636866        0.2332759824  MEMB      76              0.0000000000
      9532        77  PYPG      C13            25.7556335215       29.1124605417       20.6333369861  MEMB      77              0.0000000000
      9533        77  PYPG      H13A           24.8643295945       28.4775410036       20.4415676028  MEMB      77              0.0000000000
      9534        77  PYPG      H13B           26.3607266068       29.0267679629       19.7055222169  MEMB      77              0.0000000000
      9535        77  PYPG      OC3            26.4224805904       28.5111523888       21.7497501961  MEMB      77              0.0000000000
      9536        77  PYPG      HO3            27.0964748466       27.9425590196       21.3702334204  MEMB      77              0.0000000000
      9537        77  PYPG      C12            25.1763425728       30.5556359063       20.8460373533  MEMB      77              0.0000000000
      9538        77  PYPG      H12A           26.0394717038       31.2333018464       21.0423942137  MEMB      77              0.0000000000
      9539        77  PYPG      OC2            24.3265474951       30.5804858422       21.9937619268  MEMB      77              0.0000000000
      9540        77  PYPG      HO2            23.9221583516       31.4745029837       21.9499485594  MEMB      77              0.0000000000
      9541        77  PYPG      C11            24.4286464426       31.0738295446       19.6022977500  MEMB      77              0.0000000000
      9542        77  PYPG      H11A           24.6018331248       32.1710128195       19.6250189458  MEMB      77              0.0000000000
      9543        77  PYPG      H11B           23.3481131194       30.8166139857       19.5776222128  MEMB      77              0.0000000000
      9544        77  PYPG      P              24.5889768864       31.0211162332       17.0440330116  MEMB      77              0.0000000000
      9545        77  PYPG      O13            24.0803472171       32.4275835750       17.0672855189  MEMB      77              0.0000000000
      9546        77  PYPG      O14            23.7857398605       29.9259741977       16.4395215232  MEMB      77              0.0000000000
      9547        77  PYPG      O11            25.9169732991       31.0111535099       16.1679291126  MEMB      77              0.0000000000
      9548        77  PYPG      O12            25.1069661000       30.6078722424       18.4560466186  MEMB      77              0.0000000000
      9549        77  PYPG      C1             26.9505355821       30.1354896233       16.5972412520  MEMB      77              0.0000000000
      9550        77  PYPG      HA             26.5429253767       29.1918972634       17.0189145119  MEMB      77              0.0000000000
      9551        77  PYPG      HB             27.7247577283       30.5987198080       17.2455611660  MEMB      77              0.0000000000
      9552        77  PYPG      C2             27.7804239221       29.6479324145       15.3950735721  MEMB      77              0.0000000000
      9553        77  PYPG      HS             28.5312213917       28.9867271426       15.8782209589  MEMB      77              0.0000000000
      9554        77  PYPG      O21            28.5172147190       30.7573575442       14.7873211759  MEMB      77              0.0000000000
      9555        77  PYPG      C21            29.4850982735       30.5203825403       13.9227165336  MEMB      77              0.0000000000
      9556        77  PYPG      O22            30.0266981336       29.4845237123       13.6625728915  MEMB      77              0.0000000000
      9557        77  PYPG      C22            29.9217811263       31.8228788496       13.2550908488  MEMB      77              0.0000000000
      9558        77  PYPG      H2R            30.9327613483       31.7665046176       12.7978579520  MEMB      77              0.0000000000
      9559        77  PYPG      H2S            29.9008365445       32.7251184884       13.9030457768  MEMB      77              0.0000000000
      9560        77  PYPG      C3             26.9093722072       28.9350665632       14.2777003253  MEMB      77              0.0000000000
      9561        77  PYPG      HX             26.2794194907       28.0904889475       14.6300766978  MEMB      77              0.0000000000
      9562        77  PYPG      HY             27.5457452813       28.5226341440       13.4657580492  MEMB      77              0.0000000000
      9563        77  PYPG      O31            25.9411942719       29.8064272009       13.7344996598  MEMB      77              0.0000000000
      9564        77  PYPG      C31            25.3775079093       29.5183476952       12.5905576926  MEMB      77              0.0000000000
      9565        77  PYPG      O32            25.5226923770       28.5821843625       11.8433204932  MEMB      77              0.0000000000
      9566        77  PYPG      C32            24.2594107269       30.5965155616       12.3539270622  MEMB      77              0.0000000000
      9567        77  PYPG      H2X            23.5857098183       30.5981204975       13.2373552464  MEMB      77              0.0000000000
      9568        77  PYPG      H2Y            24.5974415996       31.6541511240       12.3156740699  MEMB      77              0.0000000000
      9569        77  PYPG      C23            28.8808852500       32.2206170261       12.2199338687  MEMB      77              0.0000000000
      9570        77  PYPG      H3R            27.8582763910       32.1991248591       12.6536741471  MEMB      77              0.0000000000
      9571        77  PYPG      H3S            28.7433970131       31.4489165655       11.4325985703  MEMB      77              0.0000000000
      9572        77  PYPG      C24            29.1441223243       33.5453189011       11.5885785708  MEMB      77              0.0000000000
      9573        77  PYPG      H4R            30.1905814443       33.6803865162       11.2407264386  MEMB      77              0.0000000000
      9574        77  PYPG      H4S            29.0413580334       34.2559881402       12.4363461119  MEMB      77              0.0000000000
      9575        77  PYPG      C25            28.1764856011       33.8617431665       10.4858941204  MEMB      77              0.0000000000
      9576        77  PYPG      H5R            27.2100336301       34.0397516396       11.0041645396  MEMB      77              0.0000000000
      9577        77  PYPG      H5S            28.0391966377       32.9786446373        9.8258869024  MEMB      77              0.0000000000
      9578        77  PYPG      C26            28.4826545577       35.1163709794        9.6578192226  MEMB      77              0.0000000000
      9579        77  PYPG      H6R            29.4803430791       34.8533211339        9.2458208680  MEMB      77              0.0000000000
      9580        77  PYPG      H6S            28.5417674105       36.0589578914       10.2429316117  MEMB      77              0.0000000000
      9581        77  PYPG      C27            27.5408920615       35.3185801430        8.4201208111  MEMB      77              0.0000000000
      9582        77  PYPG      H7R            26.5684496649       35.7174441789        8.7800989113  MEMB      77              0.0000000000
      9583        77  PYPG      H7S            27.4454269373       34.3745532358        7.8421758681  MEMB      77              0.0000000000
      9584        77  PYPG      C28            28.1638146247       36.2209092027        7.3002976925  MEMB      77              0.0000000000
      9585        77  PYPG      H8R            28.9714144227       35.5948710459        6.8642015762  MEMB      77              0.0000000000
      9586        77  PYPG      H8S            28.5762785960       37.1175454293        7.8104333223  MEMB      77              0.0000000000
      9587        77  PYPG      C29            27.1217977379       36.5038252361        6.2096370328  MEMB      77              0.0000000000
      9588        77  PYPG      H9R            26.2513798662       37.0669926764        6.5773534143  MEMB      77              0.0000000000
      9589        77  PYPG      C210           27.1189988509       36.1032441520        4.8889586668  MEMB      77              0.0000000000
      9590        77  PYPG      H10R           26.3891583931       36.3725469469        4.1112637687  MEMB      77              0.0000000000
      9591        77  PYPG      C211           28.2511483981       35.2497431908        4.3353852842  MEMB      77              0.0000000000
      9592        77  PYPG      H11R           28.5854992575       34.5682036633        5.1465788048  MEMB      77              0.0000000000
      9593        77  PYPG      H11S           29.0308960941       35.9083568245        3.8965895630  MEMB      77              0.0000000000
      9594        77  PYPG      C212           27.6357913916       34.4082797393        3.1836897511  MEMB      77              0.0000000000
      9595        77  PYPG      H12R           27.0606626143       35.0046996561        2.4435336244  MEMB      77              0.0000000000
      9596        77  PYPG      H12S           27.0428573050       33.5634975128        3.5948985128  MEMB      77              0.0000000000
      9597        77  PYPG      C213           28.8213186700       33.8305504236        2.4209243401  MEMB      77              0.0000000000
      9598        77  PYPG      H13R           29.7496791858       33.6373680935        2.9998432677  MEMB      77              0.0000000000
      9599        77  PYPG      H13S           29.1273366961       34.3895474973        1.5108712528  MEMB      77              0.0000000000
      9600        77  PYPG      C214           28.5912662113       32.3731484542        1.9147073029  MEMB      77              0.0000000000
      9601        77  PYPG      H14R           29.5265642095       32.0680826151        1.3984972612  MEMB      77              0.0000000000
      9602        77  PYPG      H14S           28.5251028260       31.5835250990        2.6934498704  MEMB      77              0.0000000000
      9603        77  PYPG      C215           27.3016104719       32.1711653926        1.0533533442  MEMB      77              0.0000000000
      9604        77  PYPG      H15R           27.2380468937       33.0108739842        0.3286659721  MEMB      77              0.0000000000
      9605        77  PYPG      H15S           26.3700879651       32.0429773603        1.6450917867  MEMB      77              0.0000000000
      9606        77  PYPG      C216           27.5110022146       30.8939645070        0.1947337589  MEMB      77              0.0000000000
      9607        77  PYPG      H16R           28.3864589100       31.0864517430       -0.4616538888  MEMB      77              0.0000000000
      9608        77  PYPG      H16S           26.6830884065       30.7233620123       -0.5262199016  MEMB      77              0.0000000000
      9609        77  PYPG      H16T           27.6599798191       29.9936844937        0.8284709533  MEMB      77              0.0000000000
      9610        77  PYPG      C33            23.3802363431       30.1697821447       11.1987405461  MEMB      77              0.0000000000
      9611        77  PYPG      H3X            22.9148540195       29.1730355174       11.3544214908  MEMB      77              0.0000000000
      9612        77  PYPG      H3Y            23.9755502479       29.9381346784       10.2897512592  MEMB      77              0.0000000000
      9613        77  PYPG      C34            22.3227830446       31.1658464929       10.7389468981  MEMB      77              0.0000000000
      9614        77  PYPG      H4X            21.7661713302       31.4936790616       11.6428442664  MEMB      77              0.0000000000
      9615        77  PYPG      H4Y            21.6814726260       30.6526944470        9.9908043564  MEMB      77              0.0000000000
      9616        77  PYPG      C35            22.8248947511       32.4939936055       10.2185675488  MEMB      77              0.0000000000
      9617        77  PYPG      H5X            23.4229117838       32.9392946264       11.0422203763  MEMB      77              0.0000000000
      9618        77  PYPG      H5Y            21.9824065602       33.1730677298        9.9667885698  MEMB      77              0.0000000000
      9619        77  PYPG      C36            23.7712288716       32.4957214634        9.0221683132  MEMB      77              0.0000000000
      9620        77  PYPG      H6X            24.6519132900       31.8365648051        9.1778235152  MEMB      77              0.0000000000
      9621        77  PYPG      H6Y            24.0754217196       33.5565677085        8.8941328850  MEMB      77              0.0000000000
      9622        77  PYPG      C37            23.0097880936       31.9912554993        7.7672019429  MEMB      77              0.0000000000
      9623        77  PYPG      H7X            22.6971230038       30.9447423833        7.9706021449  MEMB      77              0.0000000000
      9624        77  PYPG      H7Y            22.1487452862       32.6791227723        7.6266142617  MEMB      77              0.0000000000
      9625        77  PYPG      C38            23.8030373436       32.0523033889        6.4549620294  MEMB      77              0.0000000000
      9626        77  PYPG      H8X            23.1337853338       31.6927680016        5.6443101144  MEMB      77              0.0000000000
      9627        77  PYPG      H8Y            24.7098842482       31.4115436189        6.4920636533  MEMB      77              0.0000000000
      9628        77  PYPG      C39            24.4907927769       33.4042449262        6.0255100492  MEMB      77              0.0000000000
      9629        77  PYPG      H9X            25.3180727176       33.3165371393        5.2891430192  MEMB      77              0.0000000000
      9630        77  PYPG      H9Y            24.9531160220       33.6618086595        7.0023617016  MEMB      77              0.0000000000
      9631        77  PYPG      C310           23.4829760414       34.4144566051        5.5965148641  MEMB      77              0.0000000000
      9632        77  PYPG      H10X           23.9858449259       35.4023646875        5.6705513147  MEMB      77              0.0000000000
      9633        77  PYPG      H10Y           22.7476176379       34.5652036347        6.4155659877  MEMB      77              0.0000000000
      9634        77  PYPG      C311           22.7899538486       34.1659230983        4.2400879503  MEMB      77              0.0000000000
      9635        77  PYPG      H11X           22.1824124934       35.0889535091        4.1250677691  MEMB      77              0.0000000000
      9636        77  PYPG      H11Y           22.1837819866       33.2507043086        4.4111166677  MEMB      77              0.0000000000
      9637        77  PYPG      C312           23.6875902223       33.9080328298        3.0188624368  MEMB      77              0.0000000000
      9638        77  PYPG      H12X           24.4459631502       34.7195162197        2.9926672587  MEMB      77              0.0000000000
      9639        77  PYPG      H12Y           24.2473391280       32.9689761740        3.2167879470  MEMB      77              0.0000000000
      9640        77  PYPG      C313           22.8815646336       33.8282499521        1.7927193747  MEMB      77              0.0000000000
      9641        77  PYPG      H13X           22.0555960823       33.1198858877        2.0170355876  MEMB      77              0.0000000000
      9642        77  PYPG      H13Y           22.3947297887       34.8265975735        1.8175244141  MEMB      77              0.0000000000
      9643        77  PYPG      C314           23.6415737830       33.7307454308        0.5485252554  MEMB      77              0.0000000000
      9644        77  PYPG      H14X           23.7669482869       34.6740737341       -0.0248269762  MEMB      77              0.0000000000
      9645        77  PYPG      H14Y           24.7151975348       33.5322356720        0.7540650225  MEMB      77              0.0000000000
      9646        77  PYPG      C315           23.1154269195       32.5546512633       -0.2331542068  MEMB      77              0.0000000000
      9647        77  PYPG      H15X           22.0046712126       32.5328342918       -0.2249777515  MEMB      77              0.0000000000
      9648        77  PYPG      H15Y           23.5044805916       32.4977476515       -1.2722490843  MEMB      77              0.0000000000
      9649        77  PYPG      C316           23.4699243788       31.1470781498        0.3432177853  MEMB      77              0.0000000000
      9650        77  PYPG      H16X           24.5491917464       30.9917492756        0.5562341366  MEMB      77              0.0000000000
      9651        77  PYPG      H16Y           23.3468818463       30.3236210520       -0.3923757611  MEMB      77              0.0000000000
      9652        77  PYPG      H16Z           22.9649554472       30.8101493087        1.2737051042  MEMB      77              0.0000000000
      9653        78  PMPG      C13            -8.4436060427      -39.5591805484       21.9331833014  MEMB      78              0.0000000000
      9654        78  PMPG      H13A           -7.7413324446      -39.5774378034       22.7938803769  MEMB      78              0.0000000000
      9655        78  PMPG      H13B           -9.2582276811      -38.9314866911       22.3535558835  MEMB      78              0.0000000000
      9656        78  PMPG      OC3            -9.0491827826      -40.7907282500       21.5949606805  MEMB      78              0.0000000000
      9657        78  PMPG      HO3            -9.9415411531      -40.5499384324       21.3355055415  MEMB      78              0.0000000000
      9658        78  PMPG      C12            -7.8053157624      -39.0072885642       20.5999607161  MEMB      78              0.0000000000
      9659        78  PMPG      H12A           -7.2002418636      -38.1104688646       20.8689942518  MEMB      78              0.0000000000
      9660        78  PMPG      OC2            -8.8320167788      -38.5918445674       19.6981113948  MEMB      78              0.0000000000
      9661        78  PMPG      HO2            -8.3364728190      -38.4015174577       18.8717164436  MEMB      78              0.0000000000
      9662        78  PMPG      C11            -6.8247123248      -39.9640573251       19.8075361222  MEMB      78              0.0000000000
      9663        78  PMPG      H11A           -7.4098423803      -40.8299579767       19.4304951088  MEMB      78              0.0000000000
      9664        78  PMPG      H11B           -6.1235057702      -40.3592342314       20.5733465437  MEMB      78              0.0000000000
      9665        78  PMPG      P              -6.7786187996      -39.3254353494       17.2129764667  MEMB      78              0.0000000000
      9666        78  PMPG      O13            -6.0913031950      -38.2783877572       16.4407387373  MEMB      78              0.0000000000
      9667        78  PMPG      O14            -8.1726208701      -39.2200419143       17.1675131683  MEMB      78              0.0000000000
      9668        78  PMPG      O11            -6.2273582584      -40.7168396110       16.8332083710  MEMB      78              0.0000000000
      9669        78  PMPG      O12            -6.2776039072      -39.2803774694       18.7118110684  MEMB      78              0.0000000000
      9670        78  PMPG      C1             -5.1366088006      -41.4239917257       17.4920387616  MEMB      78              0.0000000000
      9671        78  PMPG      HA             -5.5831834680      -42.0729508439       18.2754570010  MEMB      78              0.0000000000
      9672        78  PMPG      HB             -4.3758008497      -40.7385482569       17.9229209572  MEMB      78              0.0000000000
      9673        78  PMPG      C2             -4.4269100590      -42.4183689320       16.5677979605  MEMB      78              0.0000000000
      9674        78  PMPG      HS             -3.4505784348      -42.6714159999       17.0337001929  MEMB      78              0.0000000000
      9675        78  PMPG      O21            -4.1872844639      -41.7349906116       15.2903527060  MEMB      78              0.0000000000
      9676        78  PMPG      C21            -3.1509168069      -41.0218111327       15.1721928815  MEMB      78              0.0000000000
      9677        78  PMPG      O22            -2.2435950932      -40.8427295999       15.9815339104  MEMB      78              0.0000000000
      9678        78  PMPG      C22            -3.2156053452      -40.3026425258       13.7436472673  MEMB      78              0.0000000000
      9679        78  PMPG      H2R            -3.5743286052      -41.0975268399       13.0553178361  MEMB      78              0.0000000000
      9680        78  PMPG      H2S            -2.1922084948      -40.0538971965       13.3899447089  MEMB      78              0.0000000000
      9681        78  PMPG      C3             -5.3258364771      -43.6344352596       16.2432475959  MEMB      78              0.0000000000
      9682        78  PMPG      HX             -5.5956487119      -44.0783382919       17.2253233308  MEMB      78              0.0000000000
      9683        78  PMPG      HY             -4.6747769944      -44.4097217271       15.7856744752  MEMB      78              0.0000000000
      9684        78  PMPG      O31            -6.4400727056      -43.4341311119       15.3721345398  MEMB      78              0.0000000000
      9685        78  PMPG      C31            -7.6460467110      -43.5237585039       15.9211660513  MEMB      78              0.0000000000
      9686        78  PMPG      O32            -7.9241155259      -43.9044565475       17.0484608503  MEMB      78              0.0000000000
      9687        78  PMPG      C32            -8.7553774339      -43.3211685012       14.8775780291  MEMB      78              0.0000000000
      9688        78  PMPG      H2X            -9.6440804912      -43.4806639966       15.5249493986  MEMB      78              0.0000000000
      9689        78  PMPG      H2Y            -8.6883037664      -44.0374354277       14.0309475824  MEMB      78              0.0000000000
      9690        78  PMPG      C23            -4.1982421928      -39.1050265026       13.8283204626  MEMB      78              0.0000000000
      9691        78  PMPG      H3R            -3.9138251089      -38.3600708919       14.6019283637  MEMB      78              0.0000000000
      9692        78  PMPG      H3S            -5.1355783413      -39.5992491300       14.1621855750  MEMB      78              0.0000000000
      9693        78  PMPG      C24            -4.2433795419      -38.3410697428       12.5710773183  MEMB      78              0.0000000000
      9694        78  PMPG      H4R            -4.4369547163      -39.0194641076       11.7128053659  MEMB      78              0.0000000000
      9695        78  PMPG      H4S            -3.2251351030      -37.9210397723       12.4259077446  MEMB      78              0.0000000000
      9696        78  PMPG      C25            -5.2901114169      -37.1914602471       12.5196438376  MEMB      78              0.0000000000
      9697        78  PMPG      H5R            -4.8726720904      -36.5120556625       11.7460321872  MEMB      78              0.0000000000
      9698        78  PMPG      H5S            -5.2710896542      -36.5729063453       13.4423301897  MEMB      78              0.0000000000
      9699        78  PMPG      C26            -6.6600835896      -37.7188279980       12.1017432913  MEMB      78              0.0000000000
      9700        78  PMPG      H6R            -7.2946607972      -37.8861222265       12.9982061093  MEMB      78              0.0000000000
      9701        78  PMPG      H6S            -6.5918710443      -38.7012184388       11.5873728294  MEMB      78              0.0000000000
      9702        78  PMPG      C27            -7.3818339399      -36.6847176805       11.2550080062  MEMB      78              0.0000000000
      9703        78  PMPG      H7R            -7.1503940357      -36.7582599248       10.1708735149  MEMB      78              0.0000000000
      9704        78  PMPG      H7S            -7.1041049954      -35.6433675727       11.5247808349  MEMB      78              0.0000000000
      9705        78  PMPG      C28            -8.9547397837      -36.7943832806       11.3630792923  MEMB      78              0.0000000000
      9706        78  PMPG      H8R            -9.3438178812      -36.0088051642       10.6805792900  MEMB      78              0.0000000000
      9707        78  PMPG      H8S            -9.4532023849      -36.4551807308       12.2962447765  MEMB      78              0.0000000000
      9708        78  PMPG      C29            -9.5245384471      -38.0693204900       10.7938753453  MEMB      78              0.0000000000
      9709        78  PMPG      H9R            -9.4924506499      -38.9840377406       11.4236246401  MEMB      78              0.0000000000
      9710        78  PMPG      C217          -10.8480205622      -38.1375697443        9.9941257082  MEMB      78              0.0000000000
      9711        78  PMPG      H17R          -11.4767358785      -38.9705842784       10.2834234287  MEMB      78              0.0000000000
      9712        78  PMPG      H17S          -11.1862132506      -37.1276316048        9.7978102825  MEMB      78              0.0000000000
      9713        78  PMPG      C210           -9.4451678570      -38.3994916434        9.3549617156  MEMB      78              0.0000000000
      9714        78  PMPG      H10R           -9.2241637614      -39.4602645108        9.1095252321  MEMB      78              0.0000000000
      9715        78  PMPG      C211           -8.8190431747      -37.3399350282        8.3789527531  MEMB      78              0.0000000000
      9716        78  PMPG      H11R           -9.0899542903      -36.2778674684        8.5604482152  MEMB      78              0.0000000000
      9717        78  PMPG      H11S           -7.7144268075      -37.4548680759        8.3483898371  MEMB      78              0.0000000000
      9718        78  PMPG      C212           -9.4407795623      -37.6264940168        6.9850483268  MEMB      78              0.0000000000
      9719        78  PMPG      H12R          -10.5451261467      -37.7172942250        7.0656393135  MEMB      78              0.0000000000
      9720        78  PMPG      H12S           -8.9298997685      -38.5237591621        6.5748801355  MEMB      78              0.0000000000
      9721        78  PMPG      C213           -9.2559838782      -36.4325271626        6.0898797051  MEMB      78              0.0000000000
      9722        78  PMPG      H13R           -8.1671246534      -36.2133688634        6.0638756464  MEMB      78              0.0000000000
      9723        78  PMPG      H13S           -9.7447897007      -35.5443914361        6.5444179744  MEMB      78              0.0000000000
      9724        78  PMPG      C214           -9.7922863959      -36.4413177077        4.6564678985  MEMB      78              0.0000000000
      9725        78  PMPG      H14R          -10.7909412418      -36.8883340806        4.8493043307  MEMB      78              0.0000000000
      9726        78  PMPG      H14S           -9.1850441087      -37.0984014141        3.9978190873  MEMB      78              0.0000000000
      9727        78  PMPG      C215           -9.9172904743      -34.9342101864        4.1313338100  MEMB      78              0.0000000000
      9728        78  PMPG      H15R           -9.0038315593      -34.3236815635        3.9665050920  MEMB      78              0.0000000000
      9729        78  PMPG      H15S          -10.4540033469      -34.2614099385        4.8339006442  MEMB      78              0.0000000000
      9730        78  PMPG      C216          -10.6382259101      -34.7452813733        2.7372234303  MEMB      78              0.0000000000
      9731        78  PMPG      H16R          -11.0702195676      -33.7285809162        2.6188023003  MEMB      78              0.0000000000
      9732        78  PMPG      H16S          -11.4518702485      -35.4480635860        2.4572230436  MEMB      78              0.0000000000
      9733        78  PMPG      H16T           -9.8464225993      -34.8794590938        1.9695228270  MEMB      78              0.0000000000
      9734        78  PMPG      C33            -8.5446612215      -41.8623374831       14.3879026587  MEMB      78              0.0000000000
      9735        78  PMPG      H3X            -7.5460667572      -41.7371342150       13.9173132365  MEMB      78              0.0000000000
      9736        78  PMPG      H3Y            -8.6234584622      -41.1548882682       15.2409134796  MEMB      78              0.0000000000
      9737        78  PMPG      C34            -9.4855695409      -41.3218828042       13.2768530252  MEMB      78              0.0000000000
      9738        78  PMPG      H4X            -9.2663384540      -40.2557412412       13.0541403381  MEMB      78              0.0000000000
      9739        78  PMPG      H4Y           -10.5142139699      -41.4614930242       13.6727326968  MEMB      78              0.0000000000
      9740        78  PMPG      C35            -9.4095134005      -42.0766968239       11.9675726816  MEMB      78              0.0000000000
      9741        78  PMPG      H5X           -10.2803757983      -41.7596663684       11.3548643660  MEMB      78              0.0000000000
      9742        78  PMPG      H5Y            -9.4966199552      -43.1604100263       12.1962627670  MEMB      78              0.0000000000
      9743        78  PMPG      C36            -8.1337704531      -41.8644545458       11.1475703074  MEMB      78              0.0000000000
      9744        78  PMPG      H6X            -7.5373936291      -41.0666774114       11.6397162004  MEMB      78              0.0000000000
      9745        78  PMPG      H6Y            -8.3655229975      -41.4320998074       10.1507344577  MEMB      78              0.0000000000
      9746        78  PMPG      C37            -7.3045414582      -43.0489262198       10.7778116829  MEMB      78              0.0000000000
      9747        78  PMPG      H7X            -7.8198526943      -43.6300439247        9.9834074469  MEMB      78              0.0000000000
      9748        78  PMPG      H7Y            -7.1717901696      -43.7209146431       11.6525289603  MEMB      78              0.0000000000
      9749        78  PMPG      C38            -5.9103778805      -42.6923514328       10.3311199368  MEMB      78              0.0000000000
      9750        78  PMPG      H8X            -5.2903062298      -43.6061262296       10.2092672521  MEMB      78              0.0000000000
      9751        78  PMPG      H8Y            -5.5197692681      -41.9799539228       11.0889038177  MEMB      78              0.0000000000
      9752        78  PMPG      C39            -5.9405726441      -41.8532980950        9.0648717259  MEMB      78              0.0000000000
      9753        78  PMPG      H9X            -6.4555642116      -40.9155486655        9.3644230357  MEMB      78              0.0000000000
      9754        78  PMPG      H9Y            -6.4552834332      -42.4677383033        8.2955498293  MEMB      78              0.0000000000
      9755        78  PMPG      C310           -4.5778537237      -41.3977370410        8.5810827510  MEMB      78              0.0000000000
      9756        78  PMPG      H10X           -3.9641847664      -42.3230659601        8.5423802055  MEMB      78              0.0000000000
      9757        78  PMPG      H10Y           -4.1191713013      -40.7231351158        9.3353000176  MEMB      78              0.0000000000
      9758        78  PMPG      C311           -4.6554511282      -40.8041174894        7.1509515775  MEMB      78              0.0000000000
      9759        78  PMPG      H11X           -3.6911606497      -40.4837143536        6.7017231234  MEMB      78              0.0000000000
      9760        78  PMPG      H11Y           -5.4574220257      -40.0352653996        7.1564536566  MEMB      78              0.0000000000
      9761        78  PMPG      C312           -5.1736447289      -41.7576288166        6.0161728220  MEMB      78              0.0000000000
      9762        78  PMPG      H12X           -6.1669285394      -42.1446623737        6.3290840039  MEMB      78              0.0000000000
      9763        78  PMPG      H12Y           -4.4978399108      -42.6236227595        5.8498510604  MEMB      78              0.0000000000
      9764        78  PMPG      C313           -5.2159070159      -41.2230071531        4.6415406078  MEMB      78              0.0000000000
      9765        78  PMPG      H13X           -5.4973359119      -42.1332555838        4.0700809593  MEMB      78              0.0000000000
      9766        78  PMPG      H13Y           -4.1850175544      -41.0002359111        4.2923120002  MEMB      78              0.0000000000
      9767        78  PMPG      C314           -6.2107930799      -39.9807977945        4.3815655025  MEMB      78              0.0000000000
      9768        78  PMPG      H14X           -5.8275564365      -39.2200245823        5.0947800045  MEMB      78              0.0000000000
      9769        78  PMPG      H14Y           -7.2766041940      -40.1500913887        4.6455870526  MEMB      78              0.0000000000
      9770        78  PMPG      C315           -6.0908908216      -39.4591391739        3.0111833501  MEMB      78              0.0000000000
      9771        78  PMPG      H15X           -6.3107403809      -40.2976408472        2.3162719757  MEMB      78              0.0000000000
      9772        78  PMPG      H15Y           -5.0799716538      -39.0386533131        2.8226223947  MEMB      78              0.0000000000
      9773        78  PMPG      C316           -7.1324019688      -38.4037020691        2.5316243667  MEMB      78              0.0000000000
      9774        78  PMPG      H16X           -8.1366629102      -38.8323831755        2.7365965218  MEMB      78              0.0000000000
      9775        78  PMPG      H16Y           -7.0164790613      -38.1937250250        1.4468238575  MEMB      78              0.0000000000
      9776        78  PMPG      H16Z           -6.9298329065      -37.4478809076        3.0604843873  MEMB      78              0.0000000000
      9777        79  PMPG      C13            12.7012860432       39.8117916570       18.4904634472  MEMB      79              0.0000000000
      9778        79  PMPG      H13A           12.7336315064       40.9198452898       18.4163560281  MEMB      79              0.0000000000
      9779        79  PMPG      H13B           13.3299853086       39.5381179477       17.6163003810  MEMB      79              0.0000000000
      9780        79  PMPG      OC3            11.3423462813       39.3860384560       18.2955022421  MEMB      79              0.0000000000
      9781        79  PMPG      HO3            10.8118444000       39.5691151288       19.0743800620  MEMB      79              0.0000000000
      9782        79  PMPG      C12            13.4553989520       39.3620650504       19.7742886937  MEMB      79              0.0000000000
      9783        79  PMPG      H12A           12.8754522993       39.7395093336       20.6483463195  MEMB      79              0.0000000000
      9784        79  PMPG      OC2            14.7532206970       39.9569793577       19.8164381280  MEMB      79              0.0000000000
      9785        79  PMPG      HO2            15.1787119177       39.5052784002       20.5777792514  MEMB      79              0.0000000000
      9786        79  PMPG      C11            13.5818367071       37.8107066484       19.9329340110  MEMB      79              0.0000000000
      9787        79  PMPG      H11A           12.5704507835       37.5342313098       20.3003314680  MEMB      79              0.0000000000
      9788        79  PMPG      H11B           14.3474421257       37.5792643161       20.7040395627  MEMB      79              0.0000000000
      9789        79  PMPG      P              14.0015533417       35.5850867978       18.7734594445  MEMB      79              0.0000000000
      9790        79  PMPG      O13            13.7361297898       35.0349662271       20.1608709334  MEMB      79              0.0000000000
      9791        79  PMPG      O14            15.2391557628       35.1254014729       18.1805794833  MEMB      79              0.0000000000
      9792        79  PMPG      O11            12.8121261697       35.1204158149       17.8954104311  MEMB      79              0.0000000000
      9793        79  PMPG      O12            13.9032652572       37.1759375195       18.6800531365  MEMB      79              0.0000000000
      9794        79  PMPG      C1             11.5417050446       35.7139496833       17.6752923773  MEMB      79              0.0000000000
      9795        79  PMPG      HA             11.5705086164       36.8148942665       17.8216222860  MEMB      79              0.0000000000
      9796        79  PMPG      HB             10.7667724539       35.2914416140       18.3500423004  MEMB      79              0.0000000000
      9797        79  PMPG      C2             11.1045040567       35.5533548618       16.1521608806  MEMB      79              0.0000000000
      9798        79  PMPG      HS             10.9924332218       34.4732351451       15.9174218756  MEMB      79              0.0000000000
      9799        79  PMPG      O21            12.1432685294       36.2046718776       15.4695351905  MEMB      79              0.0000000000
      9800        79  PMPG      C21            12.7925465359       35.6014197009       14.5182946733  MEMB      79              0.0000000000
      9801        79  PMPG      O22            12.5515422542       34.4687280600       14.1179188559  MEMB      79              0.0000000000
      9802        79  PMPG      C22            13.8617468554       36.4725968780       13.9979239573  MEMB      79              0.0000000000
      9803        79  PMPG      H2R            14.3208700404       37.0096611867       14.8552972089  MEMB      79              0.0000000000
      9804        79  PMPG      H2S            13.4211210633       37.2718360636       13.3643733159  MEMB      79              0.0000000000
      9805        79  PMPG      C3              9.7820598449       36.2672221383       16.0096242873  MEMB      79              0.0000000000
      9806        79  PMPG      HX              9.9464021269       37.3188391402       16.3280804252  MEMB      79              0.0000000000
      9807        79  PMPG      HY              9.0629174339       35.8836761009       16.7646394627  MEMB      79              0.0000000000
      9808        79  PMPG      O31             9.2818509005       36.1404816733       14.6696333457  MEMB      79              0.0000000000
      9809        79  PMPG      C31             8.1379955286       36.7557833981       14.4443255100  MEMB      79              0.0000000000
      9810        79  PMPG      O32             7.5286594834       37.5299625489       15.1917431981  MEMB      79              0.0000000000
      9811        79  PMPG      C32             7.5224038559       36.2044330124       13.1480320448  MEMB      79              0.0000000000
      9812        79  PMPG      H2X             6.4830366624       35.8425751262       13.3000036401  MEMB      79              0.0000000000
      9813        79  PMPG      H2Y             8.1533523665       35.3964035511       12.7198806406  MEMB      79              0.0000000000
      9814        79  PMPG      C23            14.9970600671       35.7287276839       13.3375421790  MEMB      79              0.0000000000
      9815        79  PMPG      H3R            14.6760250997       35.2682830541       12.3787676779  MEMB      79              0.0000000000
      9816        79  PMPG      H3S            15.3105619924       34.9134649051       14.0241161139  MEMB      79              0.0000000000
      9817        79  PMPG      C24            16.2614341044       36.6589779045       13.0880152562  MEMB      79              0.0000000000
      9818        79  PMPG      H4R            17.1616289440       36.0338246255       12.9059342638  MEMB      79              0.0000000000
      9819        79  PMPG      H4S            16.4171605900       37.3379775125       13.9534803525  MEMB      79              0.0000000000
      9820        79  PMPG      C25            16.1275491032       37.6114073898       11.9344986298  MEMB      79              0.0000000000
      9821        79  PMPG      H5R            16.8547590720       38.4254182041       12.1415567610  MEMB      79              0.0000000000
      9822        79  PMPG      H5S            15.1511923097       38.1410043971       11.9105119376  MEMB      79              0.0000000000
      9823        79  PMPG      C26            16.2198095253       36.9510015980       10.5298574577  MEMB      79              0.0000000000
      9824        79  PMPG      H6R            15.6321428312       36.0147690781       10.4183343526  MEMB      79              0.0000000000
      9825        79  PMPG      H6S            17.2469772237       36.5325945783       10.5945337604  MEMB      79              0.0000000000
      9826        79  PMPG      C27            16.2231627864       37.9083603473        9.3333184769  MEMB      79              0.0000000000
      9827        79  PMPG      H7R            16.7565559222       37.4583493236        8.4688516589  MEMB      79              0.0000000000
      9828        79  PMPG      H7S            16.8614131295       38.7724341670        9.6167514992  MEMB      79              0.0000000000
      9829        79  PMPG      C28            14.8588964282       38.4306704474        8.8771849360  MEMB      79              0.0000000000
      9830        79  PMPG      H8R            14.8333147209       38.9650311220        7.9034676547  MEMB      79              0.0000000000
      9831        79  PMPG      H8S            14.6427854566       39.2614518323        9.5824651736  MEMB      79              0.0000000000
      9832        79  PMPG      C29            13.6131695846       37.4806418912        9.1126381629  MEMB      79              0.0000000000
      9833        79  PMPG      H9R            13.4300452780       37.2509553242       10.1841003062  MEMB      79              0.0000000000
      9834        79  PMPG      C217           12.3934255367       37.6612415490        8.2489120989  MEMB      79              0.0000000000
      9835        79  PMPG      H17R           11.5114832163       37.4720422759        8.8483041642  MEMB      79              0.0000000000
      9836        79  PMPG      H17S           12.5482209676       38.4009535685        7.4731847643  MEMB      79              0.0000000000
      9837        79  PMPG      C210           13.2587155227       36.3913490595        8.1705877504  MEMB      79              0.0000000000
      9838        79  PMPG      H10R           12.8269781475       35.4995461923        8.6731930018  MEMB      79              0.0000000000
      9839        79  PMPG      C211           14.2193532231       36.3111645230        7.0712288579  MEMB      79              0.0000000000
      9840        79  PMPG      H11R           14.6982747065       37.2011662029        6.6098701134  MEMB      79              0.0000000000
      9841        79  PMPG      H11S           15.1442592136       35.7961569766        7.4083299237  MEMB      79              0.0000000000
      9842        79  PMPG      C212           13.6012989760       35.6876116408        5.6982903397  MEMB      79              0.0000000000
      9843        79  PMPG      H12R           14.3569319321       35.9705578968        4.9345625413  MEMB      79              0.0000000000
      9844        79  PMPG      H12S           12.7094717264       36.2816102077        5.4048098180  MEMB      79              0.0000000000
      9845        79  PMPG      C213           13.1842061017       34.2523172988        5.8920359707  MEMB      79              0.0000000000
      9846        79  PMPG      H13R           12.5726437439       34.1599514206        6.8149560189  MEMB      79              0.0000000000
      9847        79  PMPG      H13S           14.0662251902       33.5847231713        5.9953884761  MEMB      79              0.0000000000
      9848        79  PMPG      C214           12.1581427785       33.7340880514        4.6721074262  MEMB      79              0.0000000000
      9849        79  PMPG      H14R           11.4366934799       34.5771049107        4.6159449424  MEMB      79              0.0000000000
      9850        79  PMPG      H14S           11.7983565102       32.7384736983        5.0091934100  MEMB      79              0.0000000000
      9851        79  PMPG      C215           12.9092442284       33.4970997758        3.3315495641  MEMB      79              0.0000000000
      9852        79  PMPG      H15R           13.7544330986       32.8036838548        3.5294163695  MEMB      79              0.0000000000
      9853        79  PMPG      H15S           13.3980536269       34.4255498519        2.9663551317  MEMB      79              0.0000000000
      9854        79  PMPG      C216           12.0873139981       32.7714255636        2.2206484298  MEMB      79              0.0000000000
      9855        79  PMPG      H16R           11.3098247925       33.5165663191        1.9475235432  MEMB      79              0.0000000000
      9856        79  PMPG      H16S           11.5927937707       31.9418043417        2.7697386653  MEMB      79              0.0000000000
      9857        79  PMPG      H16T           12.5604905297       32.3050913109        1.3301669784  MEMB      79              0.0000000000
      9858        79  PMPG      C33             7.4706246436       37.2509567250       11.9578299140  MEMB      79              0.0000000000
      9859        79  PMPG      H3X             6.9389473200       38.1767714972       12.2652496058  MEMB      79              0.0000000000
      9860        79  PMPG      H3Y             6.9863803420       36.7893268696       11.0708539666  MEMB      79              0.0000000000
      9861        79  PMPG      C34             8.8565990325       37.7791372630       11.5119373191  MEMB      79              0.0000000000
      9862        79  PMPG      H4X             9.5849930740       36.9998917264       11.2012292004  MEMB      79              0.0000000000
      9863        79  PMPG      H4Y             9.4335938825       37.9842095415       12.4389450378  MEMB      79              0.0000000000
      9864        79  PMPG      C35             8.9809964080       38.8760020595       10.3897443772  MEMB      79              0.0000000000
      9865        79  PMPG      H5X             7.9685694495       39.3333756698       10.3786830501  MEMB      79              0.0000000000
      9866        79  PMPG      H5Y             9.2255460687       38.3941573811        9.4190003996  MEMB      79              0.0000000000
      9867        79  PMPG      C36            10.0519032794       39.9380712965       10.5872880587  MEMB      79              0.0000000000
      9868        79  PMPG      H6X            11.0392369011       39.4294664407       10.5587451426  MEMB      79              0.0000000000
      9869        79  PMPG      H6Y             9.9611818208       40.3882454281       11.5989371450  MEMB      79              0.0000000000
      9870        79  PMPG      C37            10.0254038010       41.0184808952        9.4682951196  MEMB      79              0.0000000000
      9871        79  PMPG      H7X            10.9784843225       41.5853424101        9.5363135925  MEMB      79              0.0000000000
      9872        79  PMPG      H7Y             9.1921662438       41.7422846498        9.5953559659  MEMB      79              0.0000000000
      9873        79  PMPG      C38             9.8596018910       40.4877109771        8.0693768482  MEMB      79              0.0000000000
      9874        79  PMPG      H8X             8.8761190653       40.0215607462        7.8462479470  MEMB      79              0.0000000000
      9875        79  PMPG      H8Y            10.6723309252       39.7453213149        7.9188798424  MEMB      79              0.0000000000
      9876        79  PMPG      C39             9.9770558132       41.6799059723        7.1043288862  MEMB      79              0.0000000000
      9877        79  PMPG      H9X            10.8804178351       42.2765767047        7.3538119465  MEMB      79              0.0000000000
      9878        79  PMPG      H9Y             9.1128583605       42.3254396084        7.3703547377  MEMB      79              0.0000000000
      9879        79  PMPG      C310           10.0068893575       41.4781446298        5.6042993382  MEMB      79              0.0000000000
      9880        79  PMPG      H10X           10.2648289870       42.4860216729        5.2144625282  MEMB      79              0.0000000000
      9881        79  PMPG      H10Y            8.9904466269       41.1966347574        5.2551316589  MEMB      79              0.0000000000
      9882        79  PMPG      C311           11.1210679684       40.4197331599        5.2026307106  MEMB      79              0.0000000000
      9883        79  PMPG      H11X           10.7233182887       39.4155041321        5.4627079461  MEMB      79              0.0000000000
      9884        79  PMPG      H11Y           12.0375157463       40.5780502504        5.8103973114  MEMB      79              0.0000000000
      9885        79  PMPG      C312           11.5331491991       40.6070103977        3.7238744228  MEMB      79              0.0000000000
      9886        79  PMPG      H12X           10.6201599255       40.7854540720        3.1164782021  MEMB      79              0.0000000000
      9887        79  PMPG      H12Y           11.9215518412       39.6034597840        3.4475585198  MEMB      79              0.0000000000
      9888        79  PMPG      C313           12.6723619717       41.6660121564        3.4894037532  MEMB      79              0.0000000000
      9889        79  PMPG      H13X           12.5000244892       42.5459012540        4.1454657338  MEMB      79              0.0000000000
      9890        79  PMPG      H13Y           12.7129634163       42.0497281776        2.4475628375  MEMB      79              0.0000000000
      9891        79  PMPG      C314           14.0585332548       41.0652012549        3.8049751385  MEMB      79              0.0000000000
      9892        79  PMPG      H14X           13.9142539185       40.7309064833        4.8546183238  MEMB      79              0.0000000000
      9893        79  PMPG      H14Y           14.8496726804       41.8426650887        3.8679757525  MEMB      79              0.0000000000
      9894        79  PMPG      C315           14.6693322122       39.9569894459        2.9571586571  MEMB      79              0.0000000000
      9895        79  PMPG      H15X           14.0835300751       39.0144790273        3.0103656814  MEMB      79              0.0000000000
      9896        79  PMPG      H15Y           15.6739725421       39.6977052496        3.3543866756  MEMB      79              0.0000000000
      9897        79  PMPG      C316           14.8234275724       40.3218623337        1.5397307183  MEMB      79              0.0000000000
      9898        79  PMPG      H16X           13.9307439169       40.0980133754        0.9173737783  MEMB      79              0.0000000000
      9899        79  PMPG      H16Y           15.5862881853       39.6891418060        1.0377057037  MEMB      79              0.0000000000
      9900        79  PMPG      H16Z           15.2567139945       41.3412532629        1.4535590784  MEMB      79              0.0000000000
      9901        80  PMPE      N              28.4925876114       25.3105684168       21.4486828993  MEMB      80              0.0000000000
      9902        80  PMPE      HN1            27.5990106212       25.2498243907       20.9200711157  MEMB      80              0.0000000000
      9903        80  PMPE      HN2            28.5009389052       24.5948566228       22.2031939570  MEMB      80              0.0000000000
      9904        80  PMPE      HN3            28.6748171196       26.2681146046       21.8113089701  MEMB      80              0.0000000000
      9905        80  PMPE      C12            29.5638536332       24.8321048052       20.4845433075  MEMB      80              0.0000000000
      9906        80  PMPE      H12A           29.2313050266       23.8617961167       20.0576551616  MEMB      80              0.0000000000
      9907        80  PMPE      H12B           30.4475625109       24.7755866450       21.1555017611  MEMB      80              0.0000000000
      9908        80  PMPE      C11            29.6793878897       25.7593054810       19.2191005789  MEMB      80              0.0000000000
      9909        80  PMPE      H11A           30.0007075222       26.7593303940       19.5810742919  MEMB      80              0.0000000000
      9910        80  PMPE      H11B           28.6613952369       25.8569915778       18.7849701079  MEMB      80              0.0000000000
      9911        80  PMPE      P              32.0350811790       25.3635223015       18.2550247937  MEMB      80              0.0000000000
      9912        80  PMPE      O13            32.5790083931       24.4335791703       19.2983870296  MEMB      80              0.0000000000
      9913        80  PMPE      O14            32.4352704768       26.7731459559       18.3206530367  MEMB      80              0.0000000000
      9914        80  PMPE      O11            32.5120909361       24.9027633427       16.7965406915  MEMB      80              0.0000000000
      9915        80  PMPE      O12            30.4467278899       25.2165353187       18.1770676615  MEMB      80              0.0000000000
      9916        80  PMPE      C1             31.6493377659       24.9582800611       15.7037493815  MEMB      80              0.0000000000
      9917        80  PMPE      HA             32.0550932478       25.7430870612       15.0301313662  MEMB      80              0.0000000000
      9918        80  PMPE      HB             30.5688168349       25.1646825885       15.8592928563  MEMB      80              0.0000000000
      9919        80  PMPE      C2             31.8235397995       23.6522635905       14.8301341254  MEMB      80              0.0000000000
      9920        80  PMPE      HS             31.2203240457       22.8729102950       15.3430280660  MEMB      80              0.0000000000
      9921        80  PMPE      O21            33.2100901163       23.4152709351       14.7174677782  MEMB      80              0.0000000000
      9922        80  PMPE      C21            33.5567641001       22.1951626244       14.5263225387  MEMB      80              0.0000000000
      9923        80  PMPE      O22            32.8039499102       21.2424609168       14.3773238177  MEMB      80              0.0000000000
      9924        80  PMPE      C22            35.0683402964       22.0830583657       14.4348117461  MEMB      80              0.0000000000
      9925        80  PMPE      H2R            35.2852755958       21.7377745162       15.4682717857  MEMB      80              0.0000000000
      9926        80  PMPE      H2S            35.4844833270       23.1061720473       14.3148779291  MEMB      80              0.0000000000
      9927        80  PMPE      C3             31.2966308640       23.8177783195       13.3426459708  MEMB      80              0.0000000000
      9928        80  PMPE      HX             30.2825255932       24.2408083377       13.5068316606  MEMB      80              0.0000000000
      9929        80  PMPE      HY             31.2464279507       22.8050953100       12.8884720998  MEMB      80              0.0000000000
      9930        80  PMPE      O31            32.2154264233       24.6709051427       12.5489788595  MEMB      80              0.0000000000
      9931        80  PMPE      C31            31.8011370347       25.5933925295       11.8065000201  MEMB      80              0.0000000000
      9932        80  PMPE      O32            30.6453378173       25.9362414821       11.6501617827  MEMB      80              0.0000000000
      9933        80  PMPE      C32            33.0418413162       26.1020118551       11.0789129646  MEMB      80              0.0000000000
      9934        80  PMPE      H2X            33.1727909092       25.5039191234       10.1518432529  MEMB      80              0.0000000000
      9935        80  PMPE      H2Y            33.9657671210       26.0779639049       11.6954385143  MEMB      80              0.0000000000
      9936        80  PMPE      C23            35.5288604283       21.1308536924       13.2983030314  MEMB      80              0.0000000000
      9937        80  PMPE      H3R            35.2642982676       20.0967831351       13.6065656024  MEMB      80              0.0000000000
      9938        80  PMPE      H3S            36.6331148675       21.2482885045       13.3322465217  MEMB      80              0.0000000000
      9939        80  PMPE      C24            35.0105435502       21.3740698265       11.8336479651  MEMB      80              0.0000000000
      9940        80  PMPE      H4R            33.9342726249       21.1258771800       11.7138051128  MEMB      80              0.0000000000
      9941        80  PMPE      H4S            35.6673260467       20.8486860023       11.1077493408  MEMB      80              0.0000000000
      9942        80  PMPE      C25            35.2501957964       22.8224747872       11.4138272668  MEMB      80              0.0000000000
      9943        80  PMPE      H5R            36.3187653474       23.0935801667       11.5516025594  MEMB      80              0.0000000000
      9944        80  PMPE      H5S            34.6768983710       23.5435282943       12.0349007794  MEMB      80              0.0000000000
      9945        80  PMPE      C26            34.9234522739       23.0254765501        9.8836022694  MEMB      80              0.0000000000
      9946        80  PMPE      H6R            35.7342522957       22.5548026677        9.2874558573  MEMB      80              0.0000000000
      9947        80  PMPE      H6S            35.0795338670       24.0990659752        9.6440920467  MEMB      80              0.0000000000
      9948        80  PMPE      C27            33.6310196766       22.4582795439        9.3506559718  MEMB      80              0.0000000000
      9949        80  PMPE      H7R            32.7546222392       23.0730389114        9.6478422400  MEMB      80              0.0000000000
      9950        80  PMPE      H7S            33.5112044324       21.3864686668        9.6174639272  MEMB      80              0.0000000000
      9951        80  PMPE      C28            33.6183461903       22.4964697797        7.7853751954  MEMB      80              0.0000000000
      9952        80  PMPE      H8R            32.8863555040       21.7959902858        7.3294815988  MEMB      80              0.0000000000
      9953        80  PMPE      H8S            34.6062551517       22.2775164500        7.3266630230  MEMB      80              0.0000000000
      9954        80  PMPE      C29            33.1669866212       23.8866442088        7.2254570167  MEMB      80              0.0000000000
      9955        80  PMPE      H9R            33.8409698790       24.7522243401        7.4010660381  MEMB      80              0.0000000000
      9956        80  PMPE      C217           31.6594437252       24.0130000977        6.9255830630  MEMB      80              0.0000000000
      9957        80  PMPE      H17R           31.2670053173       24.9899335701        7.1795157732  MEMB      80              0.0000000000
      9958        80  PMPE      H17S           31.0925701437       23.0994547970        7.0558829778  MEMB      80              0.0000000000
      9959        80  PMPE      C210           32.6523029176       23.9790171757        5.7292363219  MEMB      80              0.0000000000
      9960        80  PMPE      H10R           32.8359180030       24.9247345577        5.1758600049  MEMB      80              0.0000000000
      9961        80  PMPE      C211           32.5205598505       22.6913440684        4.9895802628  MEMB      80              0.0000000000
      9962        80  PMPE      H11R           31.7852832182       22.8842400678        4.1793452491  MEMB      80              0.0000000000
      9963        80  PMPE      H11S           31.9056143427       22.0077204101        5.6131354792  MEMB      80              0.0000000000
      9964        80  PMPE      C212           33.8600603546       22.0988692946        4.5094515443  MEMB      80              0.0000000000
      9965        80  PMPE      H12R           33.7314819094       21.3843069896        3.6685059611  MEMB      80              0.0000000000
      9966        80  PMPE      H12S           34.3091619611       21.5215374597        5.3457029884  MEMB      80              0.0000000000
      9967        80  PMPE      C213           34.8878581892       23.0824561662        3.9861502569  MEMB      80              0.0000000000
      9968        80  PMPE      H13R           35.6010112669       23.1754913243        4.8329550473  MEMB      80              0.0000000000
      9969        80  PMPE      H13S           34.4160943116       24.0376378785        3.6708921017  MEMB      80              0.0000000000
      9970        80  PMPE      C214           35.7603502587       22.5277657827        2.8637585783  MEMB      80              0.0000000000
      9971        80  PMPE      H14R           34.9746604328       22.4427764024        2.0828679817  MEMB      80              0.0000000000
      9972        80  PMPE      H14S           36.1544043504       21.5392483879        3.1829379462  MEMB      80              0.0000000000
      9973        80  PMPE      C215           36.9035984437       23.4247624177        2.3099809751  MEMB      80              0.0000000000
      9974        80  PMPE      H15R           37.7053018229       22.8992059505        1.7483899890  MEMB      80              0.0000000000
      9975        80  PMPE      H15S           37.5488589013       23.7398826872        3.1577178463  MEMB      80              0.0000000000
      9976        80  PMPE      C216           36.5039413177       24.7560673995        1.5981169853  MEMB      80              0.0000000000
      9977        80  PMPE      H16R           37.3828707146       25.3077527718        1.2013192846  MEMB      80              0.0000000000
      9978        80  PMPE      H16S           35.8840042995       24.5926178525        0.6907667369  MEMB      80              0.0000000000
      9979        80  PMPE      H16T           35.8889681125       25.4071400149        2.2555619202  MEMB      80              0.0000000000
      9980        80  PMPE      C33            32.8133862353       27.6244501998       10.7010431687  MEMB      80              0.0000000000
      9981        80  PMPE      H3X            33.8134707898       28.1054825469       10.6485082150  MEMB      80              0.0000000000
      9982        80  PMPE      H3Y            32.3331767652       28.1702389989       11.5411820726  MEMB      80              0.0000000000
      9983        80  PMPE      C34            31.8374782315       27.8363258556        9.5173653081  MEMB      80              0.0000000000
      9984        80  PMPE      H4X            30.8483060580       27.3709301480        9.7155231014  MEMB      80              0.0000000000
      9985        80  PMPE      H4Y            32.2945203279       27.2842887064        8.6684318074  MEMB      80              0.0000000000
      9986        80  PMPE      C35            31.7891355279       29.3648697942        9.2218959236  MEMB      80              0.0000000000
      9987        80  PMPE      H5X            32.7924748813       29.6868387510        8.8698054365  MEMB      80              0.0000000000
      9988        80  PMPE      H5Y            31.6101293020       29.9971971339       10.1176857284  MEMB      80              0.0000000000
      9989        80  PMPE      C36            30.7002422427       29.6584513553        8.2079347129  MEMB      80              0.0000000000
      9990        80  PMPE      H6X            30.7433339778       30.7684001264        8.1860910666  MEMB      80              0.0000000000
      9991        80  PMPE      H6Y            29.6695612411       29.3908699108        8.5248229697  MEMB      80              0.0000000000
      9992        80  PMPE      C37            30.9387453714       28.9980069498        6.8432489819  MEMB      80              0.0000000000
      9993        80  PMPE      H7X            30.1255360451       29.3345326381        6.1651908543  MEMB      80              0.0000000000
      9994        80  PMPE      H7Y            30.7123587469       27.9385948180        7.0896553668  MEMB      80              0.0000000000
      9995        80  PMPE      C38            32.3136297443       29.3439142054        6.2133611454  MEMB      80              0.0000000000
      9996        80  PMPE      H8X            33.1533415480       28.7559463732        6.6417285519  MEMB      80              0.0000000000
      9997        80  PMPE      H8Y            32.4796731101       30.3548396185        6.6432226769  MEMB      80              0.0000000000
      9998        80  PMPE      C39            32.4673080488       29.4111504191        4.6707270730  MEMB      80              0.0000000000
      9999        80  PMPE      H9X            33.2912493604       30.0382000831        4.2679238774  MEMB      80              0.0000000000
     10000        80  PMPE      H9Y            31.5622501640       29.9040198387        4.2556716052  MEMB      80              0.0000000000
     10001        80  PMPE      C310           32.6813033628       28.0222676367        4.0355833470  MEMB      80              0.0000000000
     10002        80  PMPE      H10X           32.0117730576       27.3637191522        4.6291863966  MEMB      80              0.0000000000
     10003        80  PMPE      H10Y           33.7398784415       27.7420749379        4.2232851997  MEMB      80              0.0000000000
     10004        80  PMPE      C311           32.2857715550       27.9804882264        2.6123758236  MEMB      80              0.0000000000
     10005        80  PMPE      H11X           32.7467560306       28.7899804487        2.0069530278  MEMB      80              0.0000000000
     10006        80  PMPE      H11Y           31.2352298077       28.3020202039        2.7776032585  MEMB      80              0.0000000000
     10007        80  PMPE      C312           32.5762114855       26.6253765682        1.9047171491  MEMB      80              0.0000000000
     10008        80  PMPE      H12X           33.6105510545       26.4399002580        2.2653568895  MEMB      80              0.0000000000
     10009        80  PMPE      H12Y           32.6072918144       26.9345453490        0.8380535140  MEMB      80              0.0000000000
     10010        80  PMPE      C313           31.5022137672       25.5098916456        2.2192438335  MEMB      80              0.0000000000
     10011        80  PMPE      H13X           30.5438682441       25.9375469315        1.8545436347  MEMB      80              0.0000000000
     10012        80  PMPE      H13Y           31.2592157059       25.3925731813        3.2969773391  MEMB      80              0.0000000000
     10013        80  PMPE      C314           31.9088872543       24.2095324957        1.4789668046  MEMB      80              0.0000000000
     10014        80  PMPE      H14X           32.7103446694       23.7741623818        2.1133481824  MEMB      80              0.0000000000
     10015        80  PMPE      H14Y           32.3563148423       24.4104293092        0.4820852966  MEMB      80              0.0000000000
     10016        80  PMPE      C315           30.7030601313       23.2637731884        1.2177387719  MEMB      80              0.0000000000
     10017        80  PMPE      H15X           29.9699689287       23.6708540662        0.4889149937  MEMB      80              0.0000000000
     10018        80  PMPE      H15Y           30.3309536907       23.2360576958        2.2642035607  MEMB      80              0.0000000000
     10019        80  PMPE      C316           31.2687954340       21.8938632062        0.7637878817  MEMB      80              0.0000000000
     10020        80  PMPE      H16X           31.7786232183       22.0406204312       -0.2123569968  MEMB      80              0.0000000000
     10021        80  PMPE      H16Y           30.4942698325       21.1229655214        0.5634185557  MEMB      80              0.0000000000
     10022        80  PMPE      H16Z           31.9949697202       21.4344653275        1.4680225918  MEMB      80              0.0000000000
     10023        81  POPE      N             -38.9855647576       -2.5724539428       19.4154610805  MEMB      81              0.0000000000
     10024        81  POPE      HN1           -38.4147368635       -2.8797805578       18.6022539377  MEMB      81              0.0000000000
     10025        81  POPE      HN2           -38.9711062361       -1.5883477937       19.7515054897  MEMB      81              0.0000000000
     10026        81  POPE      HN3           -38.6155595061       -3.0291528909       20.2734367103  MEMB      81              0.0000000000
     10027        81  POPE      C12           -40.4179678965       -2.9800911191       19.0105789757  MEMB      81              0.0000000000
     10028        81  POPE      H12A          -40.7029111334       -2.1693017432       18.3064846043  MEMB      81              0.0000000000
     10029        81  POPE      H12B          -41.0835779427       -2.9886452915       19.9000793466  MEMB      81              0.0000000000
     10030        81  POPE      C11           -40.4648897152       -4.3494010518       18.3994867173  MEMB      81              0.0000000000
     10031        81  POPE      H11A          -39.8419170096       -4.4833818384       17.4893904364  MEMB      81              0.0000000000
     10032        81  POPE      H11B          -41.5124286580       -4.6035431507       18.1304235996  MEMB      81              0.0000000000
     10033        81  POPE      P             -39.8479506151       -6.7523334444       19.0730189936  MEMB      81              0.0000000000
     10034        81  POPE      O13           -39.9037376332       -7.6040705349       20.2830986865  MEMB      81              0.0000000000
     10035        81  POPE      O14           -38.5315359463       -6.8408819439       18.3259020455  MEMB      81              0.0000000000
     10036        81  POPE      O11           -41.0347790470       -7.0145334922       18.0560368200  MEMB      81              0.0000000000
     10037        81  POPE      O12           -40.0501087843       -5.2297591113       19.4364166438  MEMB      81              0.0000000000
     10038        81  POPE      C1            -42.0803851237       -7.9372399656       18.5429581204  MEMB      81              0.0000000000
     10039        81  POPE      HA            -42.6946543756       -7.3147116762       19.2281244095  MEMB      81              0.0000000000
     10040        81  POPE      HB            -41.7291645587       -8.7994879632       19.1491705723  MEMB      81              0.0000000000
     10041        81  POPE      C2            -43.0734863968       -8.2993097101       17.4355724711  MEMB      81              0.0000000000
     10042        81  POPE      HS            -43.8022303668       -9.0670951870       17.7728532866  MEMB      81              0.0000000000
     10043        81  POPE      O21           -42.2871544191       -8.7575660126       16.3172067553  MEMB      81              0.0000000000
     10044        81  POPE      C21           -41.5283793001       -9.8165010018       16.3253918605  MEMB      81              0.0000000000
     10045        81  POPE      O22           -41.4190171204      -10.5904384946       17.2501441245  MEMB      81              0.0000000000
     10046        81  POPE      C22           -40.8789641855      -10.0872504880       14.9674888088  MEMB      81              0.0000000000
     10047        81  POPE      H2R           -41.4853899799       -9.7343467027       14.1060787125  MEMB      81              0.0000000000
     10048        81  POPE      H2S           -40.8514412389      -11.1883400070       14.8220046828  MEMB      81              0.0000000000
     10049        81  POPE      C3            -43.9468870098       -7.1418047090       16.9303871034  MEMB      81              0.0000000000
     10050        81  POPE      HX            -44.4177629361       -6.7964464813       17.8755456464  MEMB      81              0.0000000000
     10051        81  POPE      HY            -44.7578037188       -7.4204812200       16.2239351574  MEMB      81              0.0000000000
     10052        81  POPE      O31           -43.0733005682       -6.1602819396       16.3048362154  MEMB      81              0.0000000000
     10053        81  POPE      C31           -43.7282580574       -5.0069025668       16.0029730194  MEMB      81              0.0000000000
     10054        81  POPE      O32           -44.8738060402       -4.8153290850       16.0769960119  MEMB      81              0.0000000000
     10055        81  POPE      C32           -42.6828235825       -3.9476876558       15.7132323771  MEMB      81              0.0000000000
     10056        81  POPE      H2X           -41.6611461422       -4.3301949408       15.5030310172  MEMB      81              0.0000000000
     10057        81  POPE      H2Y           -42.5222540537       -3.3196558972       16.6155152762  MEMB      81              0.0000000000
     10058        81  POPE      C23           -39.5045489237       -9.4698080123       14.8619150913  MEMB      81              0.0000000000
     10059        81  POPE      H3R           -39.0541466086       -9.9370236218       13.9601567273  MEMB      81              0.0000000000
     10060        81  POPE      H3S           -38.9106571606       -9.9084169329       15.6921170686  MEMB      81              0.0000000000
     10061        81  POPE      C24           -39.3902426182       -8.0086370647       14.9995397618  MEMB      81              0.0000000000
     10062        81  POPE      H4R           -38.3264539232       -7.6941381376       14.9381801355  MEMB      81              0.0000000000
     10063        81  POPE      H4S           -39.7369200642       -7.7485816377       16.0225289537  MEMB      81              0.0000000000
     10064        81  POPE      C25           -40.2650632374       -7.1749709923       14.0288205024  MEMB      81              0.0000000000
     10065        81  POPE      H5R           -40.3848616465       -6.2250454811       14.5923901840  MEMB      81              0.0000000000
     10066        81  POPE      H5S           -41.2888545891       -7.6008528020       13.9595624882  MEMB      81              0.0000000000
     10067        81  POPE      C26           -39.5827251476       -7.0928115901       12.5980650646  MEMB      81              0.0000000000
     10068        81  POPE      H6R           -38.4733602118       -7.1226631130       12.6504049732  MEMB      81              0.0000000000
     10069        81  POPE      H6S           -40.0047755157       -6.1760177242       12.1336476682  MEMB      81              0.0000000000
     10070        81  POPE      C27           -39.8034272259       -8.2748701799       11.6484503755  MEMB      81              0.0000000000
     10071        81  POPE      H7R           -40.8835654158       -8.5261074608       11.5813483966  MEMB      81              0.0000000000
     10072        81  POPE      H7S           -39.4060342454       -9.2104386182       12.0969046362  MEMB      81              0.0000000000
     10073        81  POPE      C28           -39.3017474378       -8.0169576982       10.1684963569  MEMB      81              0.0000000000
     10074        81  POPE      H8R           -39.6835578492       -7.0287591800        9.8338235816  MEMB      81              0.0000000000
     10075        81  POPE      H8S           -39.6562675679       -8.8809499234        9.5667034188  MEMB      81              0.0000000000
     10076        81  POPE      C29           -37.7899112351       -8.0212331929       10.1626476007  MEMB      81              0.0000000000
     10077        81  POPE      H91           -37.3954326570       -8.8402581142       10.7819902741  MEMB      81              0.0000000000
     10078        81  POPE      C210          -36.9600079527       -7.1823550931        9.5398784332  MEMB      81              0.0000000000
     10079        81  POPE      H101          -35.8808096065       -7.3950957724        9.5483730578  MEMB      81              0.0000000000
     10080        81  POPE      C211          -37.3349097138       -5.9892163846        8.6335607270  MEMB      81              0.0000000000
     10081        81  POPE      H11R          -37.1012974056       -5.0328094459        9.1483734276  MEMB      81              0.0000000000
     10082        81  POPE      H11S          -38.3528691946       -6.1141834782        8.2064051187  MEMB      81              0.0000000000
     10083        81  POPE      C212          -36.4358192382       -5.8290971993        7.3039075307  MEMB      81              0.0000000000
     10084        81  POPE      H12R          -36.4288424255       -6.7797285419        6.7289528658  MEMB      81              0.0000000000
     10085        81  POPE      H12S          -35.3511565353       -5.6840329198        7.4956998791  MEMB      81              0.0000000000
     10086        81  POPE      C213          -36.9814110604       -4.7845411797        6.3542098097  MEMB      81              0.0000000000
     10087        81  POPE      H13R          -36.1294594092       -4.3159036962        5.8167351851  MEMB      81              0.0000000000
     10088        81  POPE      H13S          -37.5444282831       -4.0156533128        6.9253002890  MEMB      81              0.0000000000
     10089        81  POPE      C214          -38.1445869913       -5.2774671457        5.4060439458  MEMB      81              0.0000000000
     10090        81  POPE      H14R          -39.0607135644       -5.3913076658        6.0241644204  MEMB      81              0.0000000000
     10091        81  POPE      H14S          -37.8898873279       -6.2575768757        4.9490607067  MEMB      81              0.0000000000
     10092        81  POPE      C215          -38.3504003647       -4.1781766462        4.2437949579  MEMB      81              0.0000000000
     10093        81  POPE      H15R          -37.3234026685       -3.8462040619        3.9803729527  MEMB      81              0.0000000000
     10094        81  POPE      H15S          -38.9885056981       -3.3158438913        4.5328014591  MEMB      81              0.0000000000
     10095        81  POPE      C216          -38.9343705155       -4.8511662484        3.0212019870  MEMB      81              0.0000000000
     10096        81  POPE      H16R          -39.9535860357       -5.2495681969        3.2130262729  MEMB      81              0.0000000000
     10097        81  POPE      H16S          -38.2779904847       -5.7265475667        2.8283433198  MEMB      81              0.0000000000
     10098        81  POPE      C217          -39.0091508023       -3.8008513085        1.8954862580  MEMB      81              0.0000000000
     10099        81  POPE      H17R          -38.9796478521       -4.3633920073        0.9378863698  MEMB      81              0.0000000000
     10100        81  POPE      H17S          -38.0683484615       -3.2295032910        2.0463949044  MEMB      81              0.0000000000
     10101        81  POPE      C218          -40.2166125673       -2.9755046262        2.0008866638  MEMB      81              0.0000000000
     10102        81  POPE      H18R          -41.0977708374       -3.6519320569        1.9828023125  MEMB      81              0.0000000000
     10103        81  POPE      H18S          -40.1346011344       -2.3163599885        1.1103109074  MEMB      81              0.0000000000
     10104        81  POPE      H18T          -40.1641972795       -2.4219384114        2.9627277259  MEMB      81              0.0000000000
     10105        81  POPE      C33           -43.2111439906       -3.0000989489       14.5928551494  MEMB      81              0.0000000000
     10106        81  POPE      H3X           -42.3355995211       -2.3913890691       14.2810616873  MEMB      81              0.0000000000
     10107        81  POPE      H3Y           -43.9706500621       -2.3378561833       15.0607288362  MEMB      81              0.0000000000
     10108        81  POPE      C34           -43.6671716197       -3.7961208035       13.3618276754  MEMB      81              0.0000000000
     10109        81  POPE      H4X           -44.6289582567       -4.3358513963       13.4959106923  MEMB      81              0.0000000000
     10110        81  POPE      H4Y           -42.8946352301       -4.5577621960       13.1222218940  MEMB      81              0.0000000000
     10111        81  POPE      C35           -44.0658070344       -2.8755460189       12.1362508816  MEMB      81              0.0000000000
     10112        81  POPE      H5X           -44.7381334134       -2.1124616599       12.5834654371  MEMB      81              0.0000000000
     10113        81  POPE      H5Y           -44.7461645981       -3.3618642191       11.4048625308  MEMB      81              0.0000000000
     10114        81  POPE      C36           -42.8292827094       -2.2357303172       11.3511191125  MEMB      81              0.0000000000
     10115        81  POPE      H6X           -42.3038876153       -1.6130171546       12.1064396719  MEMB      81              0.0000000000
     10116        81  POPE      H6Y           -43.2612558747       -1.5620386548       10.5804957071  MEMB      81              0.0000000000
     10117        81  POPE      C37           -41.7578510631       -3.2398832935       10.8071975918  MEMB      81              0.0000000000
     10118        81  POPE      H7X           -41.4951444484       -4.0250648282       11.5480051877  MEMB      81              0.0000000000
     10119        81  POPE      H7Y           -40.8645862592       -2.5941470592       10.6678286086  MEMB      81              0.0000000000
     10120        81  POPE      C38           -42.2666424841       -3.8589010083        9.4885385344  MEMB      81              0.0000000000
     10121        81  POPE      H8X           -42.6066015592       -2.9773430079        8.9040690661  MEMB      81              0.0000000000
     10122        81  POPE      H8Y           -43.1921956482       -4.4630152379        9.6013135947  MEMB      81              0.0000000000
     10123        81  POPE      C39           -41.0484090316       -4.4510154425        8.6303615336  MEMB      81              0.0000000000
     10124        81  POPE      H9X           -40.2481505687       -4.7330806488        9.3475416164  MEMB      81              0.0000000000
     10125        81  POPE      H9Y           -40.5398697651       -3.7325577548        7.9524774868  MEMB      81              0.0000000000
     10126        81  POPE      C310          -41.4334975247       -5.7432832766        7.7876440414  MEMB      81              0.0000000000
     10127        81  POPE      H10X          -41.5955500740       -6.5619663914        8.5210045961  MEMB      81              0.0000000000
     10128        81  POPE      H10Y          -40.5708147319       -6.2178476635        7.2729710028  MEMB      81              0.0000000000
     10129        81  POPE      C311          -42.4798801025       -5.4550049595        6.7089177146  MEMB      81              0.0000000000
     10130        81  POPE      H11X          -43.4268418657       -5.0494109852        7.1249440340  MEMB      81              0.0000000000
     10131        81  POPE      H11Y          -42.7184206466       -6.4427914483        6.2598103090  MEMB      81              0.0000000000
     10132        81  POPE      C312          -41.8514389570       -4.6368994802        5.5697285735  MEMB      81              0.0000000000
     10133        81  POPE      H12X          -41.2972804772       -5.3054000959        4.8766657972  MEMB      81              0.0000000000
     10134        81  POPE      H12Y          -41.1582659885       -3.8475803278        5.9314021814  MEMB      81              0.0000000000
     10135        81  POPE      C313          -42.9390889684       -3.9257917390        4.7695089924  MEMB      81              0.0000000000
     10136        81  POPE      H13X          -43.7305634657       -4.6557071009        4.4954425336  MEMB      81              0.0000000000
     10137        81  POPE      H13Y          -42.3635750335       -3.6074997432        3.8740788257  MEMB      81              0.0000000000
     10138        81  POPE      C314          -43.5472082261       -2.6351920366        5.3961131725  MEMB      81              0.0000000000
     10139        81  POPE      H14X          -42.7313003408       -2.2449539714        6.0413487126  MEMB      81              0.0000000000
     10140        81  POPE      H14Y          -44.2774715163       -2.9169446290        6.1845616323  MEMB      81              0.0000000000
     10141        81  POPE      C315          -43.9186105064       -1.3642820603        4.5817619572  MEMB      81              0.0000000000
     10142        81  POPE      H15X          -43.0496713863       -0.8081153482        4.1695185917  MEMB      81              0.0000000000
     10143        81  POPE      H15Y          -44.4430393868       -0.5934525818        5.1860113028  MEMB      81              0.0000000000
     10144        81  POPE      C316          -44.8733109670       -1.7386150817        3.4647527175  MEMB      81              0.0000000000
     10145        81  POPE      H16X          -45.2749457763       -0.7455042146        3.1702358782  MEMB      81              0.0000000000
     10146        81  POPE      H16Y          -45.7879384406       -2.2743589776        3.7975535820  MEMB      81              0.0000000000
     10147        81  POPE      H16Z          -44.4299537622       -2.3221211249        2.6297229985  MEMB      81              0.0000000000
     10148        82  PMPE      N              34.4757277716       16.4858543201       19.3058644685  MEMB      82              0.0000000000
     10149        82  PMPE      HN1            34.2178453214       17.2288860514       19.9863058357  MEMB      82              0.0000000000
     10150        82  PMPE      HN2            34.0141411150       16.7387283743       18.4088737132  MEMB      82              0.0000000000
     10151        82  PMPE      HN3            34.1738258008       15.5679957291       19.6905605177  MEMB      82              0.0000000000
     10152        82  PMPE      C12            35.9256188961       16.2382101850       19.1414092480  MEMB      82              0.0000000000
     10153        82  PMPE      H12A           36.2002018966       15.4675465389       18.3897427409  MEMB      82              0.0000000000
     10154        82  PMPE      H12B           36.4192688100       15.9217168989       20.0850524841  MEMB      82              0.0000000000
     10155        82  PMPE      C11            36.4533985194       17.5584163775       18.6523434325  MEMB      82              0.0000000000
     10156        82  PMPE      H11A           36.1135640325       17.7735144830       17.6166956333  MEMB      82              0.0000000000
     10157        82  PMPE      H11B           37.5641142766       17.5405607923       18.6700220873  MEMB      82              0.0000000000
     10158        82  PMPE      P              35.8558749626       20.0900883817       18.9605155168  MEMB      82              0.0000000000
     10159        82  PMPE      O13            36.9041580764       21.0264760917       19.4273931675  MEMB      82              0.0000000000
     10160        82  PMPE      O14            34.5013243597       20.3691397464       19.4534521419  MEMB      82              0.0000000000
     10161        82  PMPE      O11            35.8655975151       19.9410394604       17.4975946617  MEMB      82              0.0000000000
     10162        82  PMPE      O12            36.1457134672       18.6351066402       19.5614273646  MEMB      82              0.0000000000
     10163        82  PMPE      C1             36.6708206413       20.7237372296       16.6701149927  MEMB      82              0.0000000000
     10164        82  PMPE      HA             37.7516553175       20.6490288000       16.9161558584  MEMB      82              0.0000000000
     10165        82  PMPE      HB             36.4094636455       21.7880296224       16.8525841372  MEMB      82              0.0000000000
     10166        82  PMPE      C2             36.4837795903       20.3731051143       15.1643324187  MEMB      82              0.0000000000
     10167        82  PMPE      HS             35.5278255885       20.8141169942       14.8093937610  MEMB      82              0.0000000000
     10168        82  PMPE      O21            36.3152696755       18.9444598868       15.0202068571  MEMB      82              0.0000000000
     10169        82  PMPE      C21            35.3691571262       18.4835938728       14.1701039945  MEMB      82              0.0000000000
     10170        82  PMPE      O22            34.6501028912       19.2672220872       13.5026289436  MEMB      82              0.0000000000
     10171        82  PMPE      C22            35.4163133722       16.9617912154       14.0661674786  MEMB      82              0.0000000000
     10172        82  PMPE      H2R            34.7059134484       16.5778453732       13.3031220029  MEMB      82              0.0000000000
     10173        82  PMPE      H2S            35.0748320816       16.6458751873       15.0750822005  MEMB      82              0.0000000000
     10174        82  PMPE      C3             37.6206212092       20.9204479755       14.2340371118  MEMB      82              0.0000000000
     10175        82  PMPE      HX             38.5237489290       20.3732400345       14.5793553370  MEMB      82              0.0000000000
     10176        82  PMPE      HY             37.7795863210       22.0143362023       14.3456598177  MEMB      82              0.0000000000
     10177        82  PMPE      O31            37.3865643003       20.5585258490       12.8981559980  MEMB      82              0.0000000000
     10178        82  PMPE      C31            38.3374440321       20.9148915516       12.0446224856  MEMB      82              0.0000000000
     10179        82  PMPE      O32            39.2244379991       21.6799720649       12.3185208431  MEMB      82              0.0000000000
     10180        82  PMPE      C32            37.9655535312       20.2978468300       10.7548905888  MEMB      82              0.0000000000
     10181        82  PMPE      H2X            37.3955368692       19.3449858163       10.7930730689  MEMB      82              0.0000000000
     10182        82  PMPE      H2Y            38.8658129762       20.0621238210       10.1480226803  MEMB      82              0.0000000000
     10183        82  PMPE      C23            36.8790127715       16.3066647573       13.8252244720  MEMB      82              0.0000000000
     10184        82  PMPE      H3R            36.8600284192       15.3222177533       14.3398353265  MEMB      82              0.0000000000
     10185        82  PMPE      H3S            37.5084969123       16.9918577884       14.4323335835  MEMB      82              0.0000000000
     10186        82  PMPE      C24            37.2060824175       16.3396846736       12.3839857048  MEMB      82              0.0000000000
     10187        82  PMPE      H4R            38.2998039719       16.1743278299       12.2802970237  MEMB      82              0.0000000000
     10188        82  PMPE      H4S            37.1121196887       17.4004227346       12.0672416018  MEMB      82              0.0000000000
     10189        82  PMPE      C25            36.4259561147       15.4385369623       11.4434861243  MEMB      82              0.0000000000
     10190        82  PMPE      H5R            35.3333393982       15.5768421614       11.5897102384  MEMB      82              0.0000000000
     10191        82  PMPE      H5S            36.7269859545       14.3950984461       11.6778742845  MEMB      82              0.0000000000
     10192        82  PMPE      C26            36.4095565478       15.8789913962        9.9918186738  MEMB      82              0.0000000000
     10193        82  PMPE      H6R            35.9604772346       16.8875413981       10.1162208088  MEMB      82              0.0000000000
     10194        82  PMPE      H6S            35.7044913221       15.1427394487        9.5500754830  MEMB      82              0.0000000000
     10195        82  PMPE      C27            37.7678255023       15.9674299142        9.2475739234  MEMB      82              0.0000000000
     10196        82  PMPE      H7R            38.3634662725       15.0355149303        9.3527779754  MEMB      82              0.0000000000
     10197        82  PMPE      H7S            38.4131790457       16.8097328201        9.5767626391  MEMB      82              0.0000000000
     10198        82  PMPE      C28            37.5963866805       16.3340586253        7.7519409073  MEMB      82              0.0000000000
     10199        82  PMPE      H8R            38.5412729388       16.7420283374        7.3335241978  MEMB      82              0.0000000000
     10200        82  PMPE      H8S            36.7621984980       17.0620822161        7.6601105659  MEMB      82              0.0000000000
     10201        82  PMPE      C29            37.2361566271       15.0673693137        6.9882977709  MEMB      82              0.0000000000
     10202        82  PMPE      H9R            36.3702571380       14.4861293101        7.3713115698  MEMB      82              0.0000000000
     10203        82  PMPE      C217           38.3732180175       14.1267583194        6.6858018248  MEMB      82              0.0000000000
     10204        82  PMPE      H17R           38.1722843236       13.0671800140        6.5867665844  MEMB      82              0.0000000000
     10205        82  PMPE      H17S           39.3606387985       14.4960757241        6.9337814223  MEMB      82              0.0000000000
     10206        82  PMPE      C210           37.5987163984       14.8057069617        5.5240623833  MEMB      82              0.0000000000
     10207        82  PMPE      H10R           36.8937988938       14.1554244049        4.9632205548  MEMB      82              0.0000000000
     10208        82  PMPE      C211           38.3399562154       15.9271173328        4.7983296323  MEMB      82              0.0000000000
     10209        82  PMPE      H11R           38.8572638742       15.5543586279        3.8885140132  MEMB      82              0.0000000000
     10210        82  PMPE      H11S           39.1800976484       16.3851267197        5.3628743908  MEMB      82              0.0000000000
     10211        82  PMPE      C212           37.3722097580       17.0637175827        4.4162166332  MEMB      82              0.0000000000
     10212        82  PMPE      H12R           37.9154890070       17.8577063932        3.8605635960  MEMB      82              0.0000000000
     10213        82  PMPE      H12S           36.9660836257       17.5712505566        5.3172119890  MEMB      82              0.0000000000
     10214        82  PMPE      C213           36.2405291351       16.5281243770        3.5721726189  MEMB      82              0.0000000000
     10215        82  PMPE      H13R           35.6377471112       15.7351269301        4.0642391799  MEMB      82              0.0000000000
     10216        82  PMPE      H13S           36.7263614969       16.0385863545        2.7011726761  MEMB      82              0.0000000000
     10217        82  PMPE      C214           35.1170858911       17.5711237232        3.2413947191  MEMB      82              0.0000000000
     10218        82  PMPE      H14R           35.5958395573       18.4385782267        2.7387637001  MEMB      82              0.0000000000
     10219        82  PMPE      H14S           34.7999738352       18.0148944278        4.2092939751  MEMB      82              0.0000000000
     10220        82  PMPE      C215           33.8547483099       17.0572328975        2.4783497966  MEMB      82              0.0000000000
     10221        82  PMPE      H15R           33.0978217586       17.8701411420        2.5020913570  MEMB      82              0.0000000000
     10222        82  PMPE      H15S           33.4873088150       16.1406894899        2.9875239968  MEMB      82              0.0000000000
     10223        82  PMPE      C216           34.1838543190       16.8629299321        0.9932694341  MEMB      82              0.0000000000
     10224        82  PMPE      H16R           34.8267588815       15.9598680700        0.9192802132  MEMB      82              0.0000000000
     10225        82  PMPE      H16S           33.2466694325       16.9082688542        0.3983326471  MEMB      82              0.0000000000
     10226        82  PMPE      H16T           34.8916399237       17.6368765454        0.6267073317  MEMB      82              0.0000000000
     10227        82  PMPE      C33            36.9824180902       21.2069103273        9.8609848115  MEMB      82              0.0000000000
     10228        82  PMPE      H3X            37.5333271769       22.1707007247        9.8170697085  MEMB      82              0.0000000000
     10229        82  PMPE      H3Y            36.0323682527       21.2074870549       10.4369413175  MEMB      82              0.0000000000
     10230        82  PMPE      C34            36.5317981128       20.6828672950        8.4746092359  MEMB      82              0.0000000000
     10231        82  PMPE      H4X            35.6214557538       21.2765921116        8.2441997816  MEMB      82              0.0000000000
     10232        82  PMPE      H4Y            36.3083832848       19.5947272593        8.4556817140  MEMB      82              0.0000000000
     10233        82  PMPE      C35            37.6343802133       20.8081037503        7.4370959755  MEMB      82              0.0000000000
     10234        82  PMPE      H5X            37.4405043621       20.1529064268        6.5610542745  MEMB      82              0.0000000000
     10235        82  PMPE      H5Y            38.6291568608       20.4474723843        7.7757480328  MEMB      82              0.0000000000
     10236        82  PMPE      C36            37.8930574182       22.2628544514        6.7470747140  MEMB      82              0.0000000000
     10237        82  PMPE      H6X            38.0410368118       23.0610970142        7.5055149338  MEMB      82              0.0000000000
     10238        82  PMPE      H6Y            37.0353807216       22.5590207829        6.1059838135  MEMB      82              0.0000000000
     10239        82  PMPE      C37            39.1586734898       22.1959686453        5.8646050923  MEMB      82              0.0000000000
     10240        82  PMPE      H7X            40.0108117983       21.6967783265        6.3735154453  MEMB      82              0.0000000000
     10241        82  PMPE      H7Y            39.5344923578       23.2199196002        5.6534044081  MEMB      82              0.0000000000
     10242        82  PMPE      C38            38.9378617553       21.5228153555        4.4854324813  MEMB      82              0.0000000000
     10243        82  PMPE      H8X            38.6562511214       20.5028021504        4.8239429983  MEMB      82              0.0000000000
     10244        82  PMPE      H8Y            39.9493943764       21.5127818389        4.0260614669  MEMB      82              0.0000000000
     10245        82  PMPE      C39            37.9146795190       22.2747458581        3.5262282897  MEMB      82              0.0000000000
     10246        82  PMPE      H9X            38.3576123364       23.2668157989        3.2940025627  MEMB      82              0.0000000000
     10247        82  PMPE      H9Y            36.9654854002       22.4800005184        4.0658779140  MEMB      82              0.0000000000
     10248        82  PMPE      C310           37.3812548353       21.5340724366        2.2915478385  MEMB      82              0.0000000000
     10249        82  PMPE      H10X           36.4548905815       22.0120696903        1.9072439005  MEMB      82              0.0000000000
     10250        82  PMPE      H10Y           36.9107070678       20.5418835309        2.4602690208  MEMB      82              0.0000000000
     10251        82  PMPE      C311           38.4296770797       21.3625774745        1.1811972583  MEMB      82              0.0000000000
     10252        82  PMPE      H11X           39.4951416785       21.2848148813        1.4862521155  MEMB      82              0.0000000000
     10253        82  PMPE      H11Y           38.3525170993       22.3238859724        0.6296050856  MEMB      82              0.0000000000
     10254        82  PMPE      C312           38.1039979148       20.2679250624        0.1677674018  MEMB      82              0.0000000000
     10255        82  PMPE      H12X           38.4782683935       20.5535233779       -0.8385518148  MEMB      82              0.0000000000
     10256        82  PMPE      H12Y           37.0179626014       20.2499847647       -0.0657414127  MEMB      82              0.0000000000
     10257        82  PMPE      C313           38.5856604230       18.8561880941        0.6209375530  MEMB      82              0.0000000000
     10258        82  PMPE      H13X           38.1829646562       18.6886023393        1.6427363411  MEMB      82              0.0000000000
     10259        82  PMPE      H13Y           39.6883538458       18.8765669402        0.7550009162  MEMB      82              0.0000000000
     10260        82  PMPE      C314           38.0972748687       17.7803534021       -0.2969379187  MEMB      82              0.0000000000
     10261        82  PMPE      H14X           37.2463612025       18.0447738819       -0.9605258797  MEMB      82              0.0000000000
     10262        82  PMPE      H14Y           37.7562443578       16.9041144138        0.2948596405  MEMB      82              0.0000000000
     10263        82  PMPE      C315           39.2001698649       17.3036717658       -1.2721765917  MEMB      82              0.0000000000
     10264        82  PMPE      H15X           40.1580777582       17.1160772985       -0.7415720572  MEMB      82              0.0000000000
     10265        82  PMPE      H15Y           39.3382473566       18.2398154609       -1.8543193681  MEMB      82              0.0000000000
     10266        82  PMPE      C316           38.7324745131       16.2979939796       -2.2281659487  MEMB      82              0.0000000000
     10267        82  PMPE      H16X           38.1493687306       15.4578978792       -1.7939444868  MEMB      82              0.0000000000
     10268        82  PMPE      H16Y           39.6219962447       15.8979461661       -2.7601740781  MEMB      82              0.0000000000
     10269        82  PMPE      H16Z           38.1176108368       16.7177759581       -3.0528138530  MEMB      82              0.0000000000
     10270        83  PYPG      C13             7.6533671444      -38.6088650246       20.7053377906  MEMB      83              0.0000000000
     10271        83  PYPG      H13A            8.1939884734      -37.7372917155       21.1324320946  MEMB      83              0.0000000000
     10272        83  PYPG      H13B            7.4103346696      -38.3300099120       19.6577233523  MEMB      83              0.0000000000
     10273        83  PYPG      OC3             6.3146400314      -38.7586947422       21.1736838277  MEMB      83              0.0000000000
     10274        83  PYPG      HO3             5.8342422550      -37.9280602098       21.2030810041  MEMB      83              0.0000000000
     10275        83  PYPG      C12             8.4913665199      -40.0101702628       20.6673062995  MEMB      83              0.0000000000
     10276        83  PYPG      H12A            7.7816244432      -40.8121427311       20.3576526469  MEMB      83              0.0000000000
     10277        83  PYPG      OC2             8.9751468948      -40.3297313259       21.9726331420  MEMB      83              0.0000000000
     10278        83  PYPG      HO2             9.5650032348      -41.0975959843       21.8077992728  MEMB      83              0.0000000000
     10279        83  PYPG      C11             9.6336849997      -39.9541252182       19.6559598571  MEMB      83              0.0000000000
     10280        83  PYPG      H11A           10.2864333372      -40.8392743911       19.8132861320  MEMB      83              0.0000000000
     10281        83  PYPG      H11B           10.2705174923      -39.1054081704       19.9852693345  MEMB      83              0.0000000000
     10282        83  PYPG      P              10.2934043148      -39.6347328377       17.1564561710  MEMB      83              0.0000000000
     10283        83  PYPG      O13            10.4740649049      -40.7424755431       16.1789037161  MEMB      83              0.0000000000
     10284        83  PYPG      O14            11.5457154673      -39.2897896518       17.8192583212  MEMB      83              0.0000000000
     10285        83  PYPG      O11             9.6240495130      -38.4227075387       16.3873157290  MEMB      83              0.0000000000
     10286        83  PYPG      O12             9.1593394100      -39.8969848548       18.2831451445  MEMB      83              0.0000000000
     10287        83  PYPG      C1              8.2314249329      -38.4549191279       16.0361891896  MEMB      83              0.0000000000
     10288        83  PYPG      HA              8.0467739560      -37.7094478000       15.2333829818  MEMB      83              0.0000000000
     10289        83  PYPG      HB              7.6441746538      -38.3169765935       16.9691575162  MEMB      83              0.0000000000
     10290        83  PYPG      C2              7.7038678712      -39.7709970303       15.3016907201  MEMB      83              0.0000000000
     10291        83  PYPG      HS              7.8471664646      -40.5960344257       16.0318275177  MEMB      83              0.0000000000
     10292        83  PYPG      O21             8.3962874279      -40.0699142410       14.0538814754  MEMB      83              0.0000000000
     10293        83  PYPG      C21             8.1732661538      -41.2550938409       13.6206242722  MEMB      83              0.0000000000
     10294        83  PYPG      O22             7.6709785445      -42.1901689764       14.2951024987  MEMB      83              0.0000000000
     10295        83  PYPG      C22             8.6882305967      -41.5087533608       12.1965400761  MEMB      83              0.0000000000
     10296        83  PYPG      H2R             7.9419418143      -42.1269000107       11.6531538429  MEMB      83              0.0000000000
     10297        83  PYPG      H2S             9.6981298461      -41.9692025573       12.1474386708  MEMB      83              0.0000000000
     10298        83  PYPG      C3              6.1992758166      -39.5878986416       15.0006107621  MEMB      83              0.0000000000
     10299        83  PYPG      HX              5.6087161397      -39.2884381443       15.8927338235  MEMB      83              0.0000000000
     10300        83  PYPG      HY              5.8023779057      -40.5199242813       14.5444075875  MEMB      83              0.0000000000
     10301        83  PYPG      O31             6.0524590617      -38.5846617373       13.9650041422  MEMB      83              0.0000000000
     10302        83  PYPG      C31             4.7974537501      -38.0649678971       13.8904890023  MEMB      83              0.0000000000
     10303        83  PYPG      O32             3.8335108325      -38.3933594006       14.4862592577  MEMB      83              0.0000000000
     10304        83  PYPG      C32             4.8682221826      -37.0820267496       12.8304417631  MEMB      83              0.0000000000
     10305        83  PYPG      H2X             3.8952096510      -36.8878750649       12.3305690201  MEMB      83              0.0000000000
     10306        83  PYPG      H2Y             5.1295909384      -36.0763778824       13.2237326889  MEMB      83              0.0000000000
     10307        83  PYPG      C23             8.9660387638      -40.1669894750       11.4931095718  MEMB      83              0.0000000000
     10308        83  PYPG      H3R             9.7007168041      -39.5265194413       12.0263702344  MEMB      83              0.0000000000
     10309        83  PYPG      H3S             7.9740701254      -39.6666915016       11.4884911388  MEMB      83              0.0000000000
     10310        83  PYPG      C24             9.2222585124      -40.2396655360        9.9463005309  MEMB      83              0.0000000000
     10311        83  PYPG      H4R             8.2620080824      -40.6801990777        9.6025409162  MEMB      83              0.0000000000
     10312        83  PYPG      H4S             9.9822661957      -41.0378183504        9.8060812217  MEMB      83              0.0000000000
     10313        83  PYPG      C25             9.6980354337      -39.0500682683        9.2171819332  MEMB      83              0.0000000000
     10314        83  PYPG      H5R            10.7208386765      -38.7408052764        9.5214029218  MEMB      83              0.0000000000
     10315        83  PYPG      H5S             9.0800964537      -38.1629493778        9.4730967935  MEMB      83              0.0000000000
     10316        83  PYPG      C26             9.7698446961      -39.2491954755        7.6664277026  MEMB      83              0.0000000000
     10317        83  PYPG      H6R             8.8207422804      -39.7058375450        7.3128697484  MEMB      83              0.0000000000
     10318        83  PYPG      H6S            10.6542277765      -39.8932716304        7.4731574061  MEMB      83              0.0000000000
     10319        83  PYPG      C27             9.8093869274      -37.9290433684        6.8430317599  MEMB      83              0.0000000000
     10320        83  PYPG      H7R             8.8295487151      -37.4104090316        6.9155330034  MEMB      83              0.0000000000
     10321        83  PYPG      H7S             9.8034928589      -38.2904001307        5.7924566361  MEMB      83              0.0000000000
     10322        83  PYPG      C28            11.0003074970      -36.9774271439        7.2030834918  MEMB      83              0.0000000000
     10323        83  PYPG      H8R            11.8971716644      -37.5099395802        7.5856892950  MEMB      83              0.0000000000
     10324        83  PYPG      H8S            10.7054181768      -36.5079755783        8.1658803435  MEMB      83              0.0000000000
     10325        83  PYPG      C29            11.3317570179      -35.8671185945        6.2194285400  MEMB      83              0.0000000000
     10326        83  PYPG      H9R            12.0476377190      -36.0094959050        5.3964805509  MEMB      83              0.0000000000
     10327        83  PYPG      C210           10.6875260593      -34.6808236451        6.1258683911  MEMB      83              0.0000000000
     10328        83  PYPG      H10R           10.9491762822      -34.0520366989        5.2620593088  MEMB      83              0.0000000000
     10329        83  PYPG      C211            9.5620589563      -34.1053227683        6.9911067889  MEMB      83              0.0000000000
     10330        83  PYPG      H11R            9.8341111293      -33.0820947769        7.3277266811  MEMB      83              0.0000000000
     10331        83  PYPG      H11S            9.3995843016      -34.7543128978        7.8780877298  MEMB      83              0.0000000000
     10332        83  PYPG      C212            8.3904549609      -33.8310719065        5.9749879806  MEMB      83              0.0000000000
     10333        83  PYPG      H12R            8.6086296372      -33.1724098829        5.1072983837  MEMB      83              0.0000000000
     10334        83  PYPG      H12S            7.7109169673      -33.1419643689        6.5205883472  MEMB      83              0.0000000000
     10335        83  PYPG      C213            7.5124250320      -35.0384707775        5.4841062817  MEMB      83              0.0000000000
     10336        83  PYPG      H13R            7.2414068187      -35.6059605901        6.3999806819  MEMB      83              0.0000000000
     10337        83  PYPG      H13S            8.2076708806      -35.7010892564        4.9256341500  MEMB      83              0.0000000000
     10338        83  PYPG      C214            6.2294621954      -34.8013902127        4.7417810228  MEMB      83              0.0000000000
     10339        83  PYPG      H14R            5.8096947524      -35.7746109102        4.4086770996  MEMB      83              0.0000000000
     10340        83  PYPG      H14S            5.5555693141      -34.3601864159        5.5069791086  MEMB      83              0.0000000000
     10341        83  PYPG      C215            6.3611153798      -33.8913534343        3.4868740110  MEMB      83              0.0000000000
     10342        83  PYPG      H15R            6.5543079141      -32.8275599359        3.7424929877  MEMB      83              0.0000000000
     10343        83  PYPG      H15S            5.3241313553      -33.9284078767        3.0898697864  MEMB      83              0.0000000000
     10344        83  PYPG      C216            7.3341408162      -34.4040337108        2.4765495959  MEMB      83              0.0000000000
     10345        83  PYPG      H16R            8.3594165156      -34.1668846957        2.8327687478  MEMB      83              0.0000000000
     10346        83  PYPG      H16S            7.2689010368      -33.8025613727        1.5447255648  MEMB      83              0.0000000000
     10347        83  PYPG      H16T            7.3881428198      -35.4811298660        2.2095876801  MEMB      83              0.0000000000
     10348        83  PYPG      C33             5.9135615953      -37.3371683650       11.6843931721  MEMB      83              0.0000000000
     10349        83  PYPG      H3X             5.9181268660      -38.4277648452       11.4724983813  MEMB      83              0.0000000000
     10350        83  PYPG      H3Y             6.9094550747      -37.0110201093       12.0533701267  MEMB      83              0.0000000000
     10351        83  PYPG      C34             5.5215894688      -36.4810224276       10.4733935810  MEMB      83              0.0000000000
     10352        83  PYPG      H4X             5.8446654036      -35.4539542403       10.7473895754  MEMB      83              0.0000000000
     10353        83  PYPG      H4Y             4.4305817557      -36.4980297654       10.2642657869  MEMB      83              0.0000000000
     10354        83  PYPG      C35             6.3440848628      -36.8097255395        9.2189497230  MEMB      83              0.0000000000
     10355        83  PYPG      H5X             7.3910128115      -36.9256026711        9.5722703203  MEMB      83              0.0000000000
     10356        83  PYPG      H5Y             6.4607068074      -36.0293332279        8.4368318381  MEMB      83              0.0000000000
     10357        83  PYPG      C36             5.7988057254      -37.9957013220        8.4542478255  MEMB      83              0.0000000000
     10358        83  PYPG      H6X             5.6259791521      -38.8982371490        9.0786523576  MEMB      83              0.0000000000
     10359        83  PYPG      H6Y             6.6458676687      -38.3718748320        7.8416299042  MEMB      83              0.0000000000
     10360        83  PYPG      C37             4.6098120492      -37.5291993327        7.5625544327  MEMB      83              0.0000000000
     10361        83  PYPG      H7X             3.8742940728      -36.9687576844        8.1783783859  MEMB      83              0.0000000000
     10362        83  PYPG      H7Y             5.0651258901      -36.7693097423        6.8920479865  MEMB      83              0.0000000000
     10363        83  PYPG      C38             3.9315611334      -38.7068201894        6.8653439401  MEMB      83              0.0000000000
     10364        83  PYPG      H8X             3.0300225628      -38.2571721949        6.3969798035  MEMB      83              0.0000000000
     10365        83  PYPG      H8Y             3.6099209317      -39.4141291995        7.6594371190  MEMB      83              0.0000000000
     10366        83  PYPG      C39             4.8389631335      -39.5034572421        5.8385484121  MEMB      83              0.0000000000
     10367        83  PYPG      H9X             4.2146794336      -40.3536496687        5.4896014665  MEMB      83              0.0000000000
     10368        83  PYPG      H9Y             5.6192574463      -40.0136834940        6.4428092150  MEMB      83              0.0000000000
     10369        83  PYPG      C310            5.3299895220      -38.7366726566        4.6191483892  MEMB      83              0.0000000000
     10370        83  PYPG      H10X            6.0725804554      -38.0117750992        5.0158890065  MEMB      83              0.0000000000
     10371        83  PYPG      H10Y            4.5991824350      -38.1953499667        3.9810172443  MEMB      83              0.0000000000
     10372        83  PYPG      C311            6.1321163247      -39.5544099189        3.5415824312  MEMB      83              0.0000000000
     10373        83  PYPG      H11X            5.5246768024      -39.8588848656        2.6625867077  MEMB      83              0.0000000000
     10374        83  PYPG      H11Y            6.6516255094      -40.3819241442        4.0704034610  MEMB      83              0.0000000000
     10375        83  PYPG      C312            7.3931894668      -38.7504941044        3.1305134844  MEMB      83              0.0000000000
     10376        83  PYPG      H12X            7.1364923066      -37.7725647813        2.6699900737  MEMB      83              0.0000000000
     10377        83  PYPG      H12Y            7.8968302201      -38.4161447180        4.0626495205  MEMB      83              0.0000000000
     10378        83  PYPG      C313            8.4135099901      -39.5667266939        2.3111173971  MEMB      83              0.0000000000
     10379        83  PYPG      H13X            8.2293896551      -40.6180393803        2.6196010354  MEMB      83              0.0000000000
     10380        83  PYPG      H13Y            8.2600686449      -39.5489492365        1.2109082224  MEMB      83              0.0000000000
     10381        83  PYPG      C314            9.9361982507      -39.3984672208        2.5761194957  MEMB      83              0.0000000000
     10382        83  PYPG      H14X           10.1391639557      -39.5281529251        3.6606964353  MEMB      83              0.0000000000
     10383        83  PYPG      H14Y           10.6075555128      -40.1206845744        2.0642573240  MEMB      83              0.0000000000
     10384        83  PYPG      C315           10.4593388565      -38.0102781043        2.1271885895  MEMB      83              0.0000000000
     10385        83  PYPG      H15X            9.8495731983      -37.2614725480        2.6765482471  MEMB      83              0.0000000000
     10386        83  PYPG      H15Y           11.5348054771      -37.8738226318        2.3702366906  MEMB      83              0.0000000000
     10387        83  PYPG      C316           10.4485966456      -37.9418014805        0.6390484878  MEMB      83              0.0000000000
     10388        83  PYPG      H16X            9.4710545621      -37.9002200064        0.1127375890  MEMB      83              0.0000000000
     10389        83  PYPG      H16Y           11.1081711606      -38.7051249404        0.1736248444  MEMB      83              0.0000000000
     10390        83  PYPG      H16Z           10.9484172006      -36.9838253577        0.3806260472  MEMB      83              0.0000000000
     10391        84  PMPG      C13            39.0469474935      -10.0165340849       21.1594649958  MEMB      84              0.0000000000
     10392        84  PMPG      H13A           38.5695090115       -9.0134933518       21.1762785146  MEMB      84              0.0000000000
     10393        84  PMPG      H13B           38.8331723562      -10.6913285568       22.0157789522  MEMB      84              0.0000000000
     10394        84  PMPG      OC3            40.4817369092       -9.7621331179       21.2469211442  MEMB      84              0.0000000000
     10395        84  PMPG      HO3            41.0023469082      -10.3551095997       20.7001632956  MEMB      84              0.0000000000
     10396        84  PMPG      C12            38.7041700590      -10.6905545227       19.8400997366  MEMB      84              0.0000000000
     10397        84  PMPG      H12A           37.6258248107      -10.9702654615       19.8814803613  MEMB      84              0.0000000000
     10398        84  PMPG      OC2            39.4649765973      -11.8897500845       19.6879672094  MEMB      84              0.0000000000
     10399        84  PMPG      HO2            39.2693983599      -12.1597844892       18.7640909118  MEMB      84              0.0000000000
     10400        84  PMPG      C11            38.8460243751       -9.9390593661       18.5647018376  MEMB      84              0.0000000000
     10401        84  PMPG      H11A           37.9811205087       -9.2430936024       18.5211841653  MEMB      84              0.0000000000
     10402        84  PMPG      H11B           38.8068100808      -10.6597603150       17.7200874500  MEMB      84              0.0000000000
     10403        84  PMPG      P              41.4136000024       -9.9393508711       17.8626238491  MEMB      84              0.0000000000
     10404        84  PMPG      O13            42.6310690984       -9.2925736326       18.4276824953  MEMB      84              0.0000000000
     10405        84  PMPG      O14            41.1870158415       -9.7858812987       16.3969970641  MEMB      84              0.0000000000
     10406        84  PMPG      O11            41.4158012289      -11.5158877368       18.2995320916  MEMB      84              0.0000000000
     10407        84  PMPG      O12            40.1561583914       -9.2934492843       18.5140096046  MEMB      84              0.0000000000
     10408        84  PMPG      C1             42.3363815789      -12.0101384447       19.1636186761  MEMB      84              0.0000000000
     10409        84  PMPG      HA             42.0750903012      -11.8184059168       20.2262975958  MEMB      84              0.0000000000
     10410        84  PMPG      HB             43.3258843354      -11.5227044211       19.0309018503  MEMB      84              0.0000000000
     10411        84  PMPG      C2             42.4702532280      -13.4730727848       18.9178223640  MEMB      84              0.0000000000
     10412        84  PMPG      HS             43.3647003662      -13.8583516433       19.4524677258  MEMB      84              0.0000000000
     10413        84  PMPG      O21            42.5366854963      -13.7118340016       17.5079755360  MEMB      84              0.0000000000
     10414        84  PMPG      C21            43.5169708994      -13.2572461347       16.7614699130  MEMB      84              0.0000000000
     10415        84  PMPG      O22            44.4618881662      -12.5880961789       17.1316026557  MEMB      84              0.0000000000
     10416        84  PMPG      C22            43.4301034546      -13.6595521432       15.2631487037  MEMB      84              0.0000000000
     10417        84  PMPG      H2R            42.9422272318      -14.6530736804       15.1671677752  MEMB      84              0.0000000000
     10418        84  PMPG      H2S            44.4074283999      -13.7441097208       14.7416058900  MEMB      84              0.0000000000
     10419        84  PMPG      C3             41.1924074964      -14.3215618478       19.3427277754  MEMB      84              0.0000000000
     10420        84  PMPG      HX             41.1015650117      -14.2395981623       20.4469698823  MEMB      84              0.0000000000
     10421        84  PMPG      HY             41.4120906862      -15.3566441451       19.0041057106  MEMB      84              0.0000000000
     10422        84  PMPG      O31            39.9767289135      -13.7328119386       18.8166737247  MEMB      84              0.0000000000
     10423        84  PMPG      C31            39.5513091248      -14.1657813171       17.6402802769  MEMB      84              0.0000000000
     10424        84  PMPG      O32            39.9679048580      -15.1488824381       17.0805566588  MEMB      84              0.0000000000
     10425        84  PMPG      C32            38.2927730135      -13.4053408326       17.0950545161  MEMB      84              0.0000000000
     10426        84  PMPG      H2X            37.9170369621      -12.6129355028       17.7771374715  MEMB      84              0.0000000000
     10427        84  PMPG      H2Y            37.4255148078      -14.0996076022       17.0817214136  MEMB      84              0.0000000000
     10428        84  PMPG      C23            42.6197178052      -12.6680227501       14.4279311434  MEMB      84              0.0000000000
     10429        84  PMPG      H3R            43.1649755227      -11.7000531267       14.4208917167  MEMB      84              0.0000000000
     10430        84  PMPG      H3S            41.6313376589      -12.5689060848       14.9255268828  MEMB      84              0.0000000000
     10431        84  PMPG      C24            42.5242009069      -13.0261629146       12.9648891325  MEMB      84              0.0000000000
     10432        84  PMPG      H4R            43.5476349465      -13.3601800643       12.6904140092  MEMB      84              0.0000000000
     10433        84  PMPG      H4S            42.1797601662      -12.1974227853       12.3100065845  MEMB      84              0.0000000000
     10434        84  PMPG      C25            41.4913946356      -14.1610456250       12.6845966865  MEMB      84              0.0000000000
     10435        84  PMPG      H5R            40.5500402111      -13.9700996682       13.2429090652  MEMB      84              0.0000000000
     10436        84  PMPG      H5S            41.8909161663      -15.1495010676       12.9971022842  MEMB      84              0.0000000000
     10437        84  PMPG      C26            40.9495714654      -14.1410729963       11.2087974854  MEMB      84              0.0000000000
     10438        84  PMPG      H6R            41.7666782077      -14.6007175790       10.6126562205  MEMB      84              0.0000000000
     10439        84  PMPG      H6S            40.7482095224      -13.1099011168       10.8476062999  MEMB      84              0.0000000000
     10440        84  PMPG      C27            39.6333581282      -14.9096521919       11.0085775735  MEMB      84              0.0000000000
     10441        84  PMPG      H7R            38.8578124128      -14.4090935812       11.6268745988  MEMB      84              0.0000000000
     10442        84  PMPG      H7S            39.7182118042      -15.9919823297       11.2445494077  MEMB      84              0.0000000000
     10443        84  PMPG      C28            39.1734512595      -14.9291862365        9.4828145448  MEMB      84              0.0000000000
     10444        84  PMPG      H8R            38.1585265620      -15.3800004025        9.5146799783  MEMB      84              0.0000000000
     10445        84  PMPG      H8S            39.8771605981      -15.4999827583        8.8399267028  MEMB      84              0.0000000000
     10446        84  PMPG      C29            38.9898549130      -13.5628983160        8.9248173550  MEMB      84              0.0000000000
     10447        84  PMPG      H9R            38.6438654263      -12.7959730305        9.6503771105  MEMB      84              0.0000000000
     10448        84  PMPG      C217           40.0738739186      -13.1730221032        7.8569202069  MEMB      84              0.0000000000
     10449        84  PMPG      H17R           40.3193502636      -12.1269858557        7.7211318964  MEMB      84              0.0000000000
     10450        84  PMPG      H17S           40.5886110393      -14.0508302538        7.4862615268  MEMB      84              0.0000000000
     10451        84  PMPG      C210           38.5591578307      -13.2983790550        7.4817186166  MEMB      84              0.0000000000
     10452        84  PMPG      H10R           38.0875232665      -12.3136096215        7.2765089974  MEMB      84              0.0000000000
     10453        84  PMPG      C211           38.1357472553      -14.5023860338        6.6491718887  MEMB      84              0.0000000000
     10454        84  PMPG      H11R           39.0472007327      -15.1184707556        6.4942108495  MEMB      84              0.0000000000
     10455        84  PMPG      H11S           37.3848263666      -15.0848445780        7.2246551762  MEMB      84              0.0000000000
     10456        84  PMPG      C212           37.4834203342      -13.9606376625        5.3425637435  MEMB      84              0.0000000000
     10457        84  PMPG      H12R           38.0745624492      -13.1315305326        4.8982070157  MEMB      84              0.0000000000
     10458        84  PMPG      H12S           36.5090506754      -13.5335247352        5.6627190469  MEMB      84              0.0000000000
     10459        84  PMPG      C213           37.4252455845      -15.0748897558        4.3323781172  MEMB      84              0.0000000000
     10460        84  PMPG      H13R           36.8271878131      -15.8592616288        4.8436592448  MEMB      84              0.0000000000
     10461        84  PMPG      H13S           38.4185410156      -15.5183571216        4.1064975312  MEMB      84              0.0000000000
     10462        84  PMPG      C214           36.7265739872      -14.7222605264        3.0017240382  MEMB      84              0.0000000000
     10463        84  PMPG      H14R           35.7642918883      -14.2785528402        3.3355755948  MEMB      84              0.0000000000
     10464        84  PMPG      H14S           36.6446665831      -15.5489619347        2.2640390296  MEMB      84              0.0000000000
     10465        84  PMPG      C215           37.4776462325      -13.7338925469        2.0410385818  MEMB      84              0.0000000000
     10466        84  PMPG      H15R           38.5305717803      -14.0597715096        1.9014971136  MEMB      84              0.0000000000
     10467        84  PMPG      H15S           37.5181123370      -12.7325070950        2.5205287721  MEMB      84              0.0000000000
     10468        84  PMPG      C216           36.9349354372      -13.5827859212        0.6738996184  MEMB      84              0.0000000000
     10469        84  PMPG      H16R           35.8530045491      -13.3329200025        0.7101437633  MEMB      84              0.0000000000
     10470        84  PMPG      H16S           37.0511751977      -14.4402931032       -0.0228729205  MEMB      84              0.0000000000
     10471        84  PMPG      H16T           37.3292525641      -12.6800069830        0.1602600400  MEMB      84              0.0000000000
     10472        84  PMPG      C33            38.4987939970      -12.7264084625       15.6765000083  MEMB      84              0.0000000000
     10473        84  PMPG      H3X            38.6628982176      -13.4985471134       14.8947118811  MEMB      84              0.0000000000
     10474        84  PMPG      H3Y            39.5344280586      -12.3247332330       15.6974740482  MEMB      84              0.0000000000
     10475        84  PMPG      C34            37.4544126320      -11.6867989544       15.4964716753  MEMB      84              0.0000000000
     10476        84  PMPG      H4X            37.0482273502      -11.1694071603       16.3918153439  MEMB      84              0.0000000000
     10477        84  PMPG      H4Y            36.6377669883      -12.1824468454       14.9292470649  MEMB      84              0.0000000000
     10478        84  PMPG      C35            37.8694706090      -10.5404246331       14.5095539138  MEMB      84              0.0000000000
     10479        84  PMPG      H5X            38.8155091010      -10.0932838853       14.8829131378  MEMB      84              0.0000000000
     10480        84  PMPG      H5Y            37.0844397878       -9.7558166998       14.5589302013  MEMB      84              0.0000000000
     10481        84  PMPG      C36            38.0434988112      -10.9664734051       13.0353828522  MEMB      84              0.0000000000
     10482        84  PMPG      H6X            37.1561064308      -11.2862705836       12.4483688805  MEMB      84              0.0000000000
     10483        84  PMPG      H6Y            38.6309049632      -11.9094806462       13.0389061997  MEMB      84              0.0000000000
     10484        84  PMPG      C37            38.7452617600       -9.8124038627       12.3672904145  MEMB      84              0.0000000000
     10485        84  PMPG      H7X            39.6490839565       -9.5158033009       12.9412716122  MEMB      84              0.0000000000
     10486        84  PMPG      H7Y            38.1213764971       -8.8944746687       12.4172318004  MEMB      84              0.0000000000
     10487        84  PMPG      C38            39.1207907753       -9.9691460747       10.8766803248  MEMB      84              0.0000000000
     10488        84  PMPG      H8X            38.2936358436      -10.4653976029       10.3254358915  MEMB      84              0.0000000000
     10489        84  PMPG      H8Y            39.9893992789      -10.6611021785       10.9088833060  MEMB      84              0.0000000000
     10490        84  PMPG      C39            39.5006601326       -8.6377703686       10.1986599824  MEMB      84              0.0000000000
     10491        84  PMPG      H9X            40.4188728530       -8.2635548533       10.6998280058  MEMB      84              0.0000000000
     10492        84  PMPG      H9Y            38.6992573986       -7.8876816084       10.3702459169  MEMB      84              0.0000000000
     10493        84  PMPG      C310           39.8984829294       -8.9625825030        8.7440278450  MEMB      84              0.0000000000
     10494        84  PMPG      H10X           40.4738332325       -9.9043162850        8.8722084419  MEMB      84              0.0000000000
     10495        84  PMPG      H10Y           40.6263518100       -8.1582350120        8.5041250523  MEMB      84              0.0000000000
     10496        84  PMPG      C311           38.7009534311       -8.9605093384        7.7431561023  MEMB      84              0.0000000000
     10497        84  PMPG      H11X           38.0592037249       -8.0642259754        7.8815559733  MEMB      84              0.0000000000
     10498        84  PMPG      H11Y           38.1501992110       -9.8860061795        8.0160052921  MEMB      84              0.0000000000
     10499        84  PMPG      C312           39.1158977783       -9.0924902982        6.2853474834  MEMB      84              0.0000000000
     10500        84  PMPG      H12X           39.6683871830      -10.0507862849        6.1816891664  MEMB      84              0.0000000000
     10501        84  PMPG      H12Y           39.8160662647       -8.2674565863        6.0335443819  MEMB      84              0.0000000000
     10502        84  PMPG      C313           37.8918058803       -9.0831273537        5.4007002351  MEMB      84              0.0000000000
     10503        84  PMPG      H13X           37.3889065198       -8.0959609558        5.4838597328  MEMB      84              0.0000000000
     10504        84  PMPG      H13Y           37.3448978474      -10.0395406660        5.5438300137  MEMB      84              0.0000000000
     10505        84  PMPG      C314           38.2156883890       -9.0037468984        3.8721862686  MEMB      84              0.0000000000
     10506        84  PMPG      H14X           38.6048031176       -7.9747773582        3.7168404689  MEMB      84              0.0000000000
     10507        84  PMPG      H14Y           37.2115855865       -9.1721916814        3.4275241729  MEMB      84              0.0000000000
     10508        84  PMPG      C315           39.3427624157       -9.9560204028        3.3228772424  MEMB      84              0.0000000000
     10509        84  PMPG      H15X           39.1402076955      -11.0178297081        3.5794972797  MEMB      84              0.0000000000
     10510        84  PMPG      H15Y           40.2825436355       -9.6865850288        3.8506422905  MEMB      84              0.0000000000
     10511        84  PMPG      C316           39.4761899273       -9.8888159414        1.7907781732  MEMB      84              0.0000000000
     10512        84  PMPG      H16X           38.6602858640      -10.5339366658        1.4003405829  MEMB      84              0.0000000000
     10513        84  PMPG      H16Y           40.3946294510      -10.3215125144        1.3395974018  MEMB      84              0.0000000000
     10514        84  PMPG      H16Z           39.0845398678       -8.9137683266        1.4299272029  MEMB      84              0.0000000000
     10515        85  PYPG      C13           -34.5955006224      -19.1509483369       19.7232817703  MEMB      85              0.0000000000
     10516        85  PYPG      H13A          -34.1691588351      -18.6524201249       18.8266082819  MEMB      85              0.0000000000
     10517        85  PYPG      H13B          -35.4155629780      -18.4996797759       20.0943180724  MEMB      85              0.0000000000
     10518        85  PYPG      OC3           -33.6315151667      -19.4313918026       20.7133591771  MEMB      85              0.0000000000
     10519        85  PYPG      HO3           -34.0667127127      -19.5419057996       21.5618811989  MEMB      85              0.0000000000
     10520        85  PYPG      C12           -35.3264704428      -20.4378147891       19.3541137789  MEMB      85              0.0000000000
     10521        85  PYPG      H12A          -35.7866626495      -20.8367782276       20.2878323380  MEMB      85              0.0000000000
     10522        85  PYPG      OC2           -34.3981601889      -21.4095143875       18.8702947496  MEMB      85              0.0000000000
     10523        85  PYPG      HO2           -34.9816156801      -22.1280034406       18.5415547147  MEMB      85              0.0000000000
     10524        85  PYPG      C11           -36.5008464898      -20.3609057798       18.3160309388  MEMB      85              0.0000000000
     10525        85  PYPG      H11A          -37.1237287007      -21.2791802631       18.3718045391  MEMB      85              0.0000000000
     10526        85  PYPG      H11B          -35.9470854327      -20.2077358594       17.3651322074  MEMB      85              0.0000000000
     10527        85  PYPG      P             -38.8047309084      -19.1572524393       18.6694136878  MEMB      85              0.0000000000
     10528        85  PYPG      O13           -39.2397770366      -17.7530989948       18.6735081908  MEMB      85              0.0000000000
     10529        85  PYPG      O14           -39.2128492082      -19.8261741321       19.9484898075  MEMB      85              0.0000000000
     10530        85  PYPG      O11           -39.2749855143      -19.8092949688       17.2424059202  MEMB      85              0.0000000000
     10531        85  PYPG      O12           -37.2508354318      -19.1730123700       18.4891019800  MEMB      85              0.0000000000
     10532        85  PYPG      C1            -39.5034480128      -19.0549201322       16.0250459986  MEMB      85              0.0000000000
     10533        85  PYPG      HA            -39.0189444333      -18.0551646944       16.0169016449  MEMB      85              0.0000000000
     10534        85  PYPG      HB            -40.5690054489      -18.7404308178       16.0228343573  MEMB      85              0.0000000000
     10535        85  PYPG      C2            -39.0270708340      -19.8432421012       14.8098469513  MEMB      85              0.0000000000
     10536        85  PYPG      HS            -39.3144332955      -19.2678024619       13.9039700523  MEMB      85              0.0000000000
     10537        85  PYPG      O21           -39.7268630809      -21.1493847328       14.7083565303  MEMB      85              0.0000000000
     10538        85  PYPG      C21           -40.9221543439      -21.1996476258       14.1875123408  MEMB      85              0.0000000000
     10539        85  PYPG      O22           -41.5854358622      -20.2962901884       13.7071038893  MEMB      85              0.0000000000
     10540        85  PYPG      C22           -41.4313011098      -22.6441991150       14.1933636180  MEMB      85              0.0000000000
     10541        85  PYPG      H2R           -42.5022683557      -22.4466767426       13.9735121235  MEMB      85              0.0000000000
     10542        85  PYPG      H2S           -41.2811840441      -23.1149807914       15.1884267948  MEMB      85              0.0000000000
     10543        85  PYPG      C3            -37.5513670438      -20.0893330305       14.7871581229  MEMB      85              0.0000000000
     10544        85  PYPG      HX            -37.2037206133      -20.9533688679       15.3928848150  MEMB      85              0.0000000000
     10545        85  PYPG      HY            -36.9503807564      -19.2306169752       15.1555911385  MEMB      85              0.0000000000
     10546        85  PYPG      O31           -36.9805130083      -20.1777484366       13.4722325851  MEMB      85              0.0000000000
     10547        85  PYPG      C31           -36.7988711569      -21.4451263786       12.9761557536  MEMB      85              0.0000000000
     10548        85  PYPG      O32           -37.0848627512      -22.5202280493       13.5284284084  MEMB      85              0.0000000000
     10549        85  PYPG      C32           -36.1519489628      -21.3948963541       11.5894853198  MEMB      85              0.0000000000
     10550        85  PYPG      H2X           -35.1563326648      -20.9218481329       11.7283898212  MEMB      85              0.0000000000
     10551        85  PYPG      H2Y           -35.9872358556      -22.4378988711       11.2440348274  MEMB      85              0.0000000000
     10552        85  PYPG      C23           -40.6844525172      -23.3618399961       13.0918820946  MEMB      85              0.0000000000
     10553        85  PYPG      H3R           -41.1057872214      -24.3896796899       13.1104233056  MEMB      85              0.0000000000
     10554        85  PYPG      H3S           -39.6290305712      -23.5164078822       13.4025497752  MEMB      85              0.0000000000
     10555        85  PYPG      C24           -40.5659439695      -22.7165569194       11.6879792419  MEMB      85              0.0000000000
     10556        85  PYPG      H4R           -39.9308417463      -23.3263326335       11.0103809478  MEMB      85              0.0000000000
     10557        85  PYPG      H4S           -40.0774656920      -21.7334205403       11.8587216803  MEMB      85              0.0000000000
     10558        85  PYPG      C25           -41.8865458853      -22.4469966521       10.9082439444  MEMB      85              0.0000000000
     10559        85  PYPG      H5R           -42.6275933441      -21.9336271464       11.5575678016  MEMB      85              0.0000000000
     10560        85  PYPG      H5S           -42.4870574857      -23.2883689002       10.5010589966  MEMB      85              0.0000000000
     10561        85  PYPG      C26           -41.4855594906      -21.5169942191        9.7192715444  MEMB      85              0.0000000000
     10562        85  PYPG      H6R           -40.6202085589      -21.9595664162        9.1811100560  MEMB      85              0.0000000000
     10563        85  PYPG      H6S           -41.1239983578      -20.5332111547       10.0877356080  MEMB      85              0.0000000000
     10564        85  PYPG      C27           -42.6066906776      -21.2366414904        8.7029617897  MEMB      85              0.0000000000
     10565        85  PYPG      H7R           -42.4994509863      -20.3657819508        8.0214748447  MEMB      85              0.0000000000
     10566        85  PYPG      H7S           -43.6073242500      -21.1090902326        9.1685628104  MEMB      85              0.0000000000
     10567        85  PYPG      C28           -42.8899724116      -22.3387879177        7.7060450340  MEMB      85              0.0000000000
     10568        85  PYPG      H8R           -43.8594396540      -22.0687327364        7.2353807814  MEMB      85              0.0000000000
     10569        85  PYPG      H8S           -43.0814352639      -23.3399681967        8.1479739193  MEMB      85              0.0000000000
     10570        85  PYPG      C29           -41.9242089365      -22.5007702015        6.5730283151  MEMB      85              0.0000000000
     10571        85  PYPG      H9R           -41.1608751645      -23.2885174079        6.6553442087  MEMB      85              0.0000000000
     10572        85  PYPG      C210          -42.0015903273      -21.8661452657        5.4241621288  MEMB      85              0.0000000000
     10573        85  PYPG      H10R          -41.2034989605      -21.9754574853        4.6750954506  MEMB      85              0.0000000000
     10574        85  PYPG      C211          -43.0794844681      -20.8486012509        5.0387951570  MEMB      85              0.0000000000
     10575        85  PYPG      H11R          -43.8676620218      -20.7628313357        5.8170893865  MEMB      85              0.0000000000
     10576        85  PYPG      H11S          -43.5034889865      -21.0934394335        4.0415017718  MEMB      85              0.0000000000
     10577        85  PYPG      C212          -42.5104091643      -19.4026862714        4.8901494002  MEMB      85              0.0000000000
     10578        85  PYPG      H12R          -42.0053171659      -19.2671144177        5.8703651530  MEMB      85              0.0000000000
     10579        85  PYPG      H12S          -43.3582473120      -18.7351229812        4.6258560200  MEMB      85              0.0000000000
     10580        85  PYPG      C213          -41.3752316464      -19.2222766508        3.8819518061  MEMB      85              0.0000000000
     10581        85  PYPG      H13R          -40.5221581548      -19.7128046363        4.3976730661  MEMB      85              0.0000000000
     10582        85  PYPG      H13S          -41.0912608894      -18.1490233478        3.9244860857  MEMB      85              0.0000000000
     10583        85  PYPG      C214          -41.6686406485      -19.7270042971        2.4709579113  MEMB      85              0.0000000000
     10584        85  PYPG      H14R          -42.7014130231      -20.0833604654        2.2691869364  MEMB      85              0.0000000000
     10585        85  PYPG      H14S          -41.4909063408      -18.9179482128        1.7305797015  MEMB      85              0.0000000000
     10586        85  PYPG      C215          -40.8273200656      -20.9579009916        1.9141684964  MEMB      85              0.0000000000
     10587        85  PYPG      H15R          -41.2661630104      -21.8872982351        2.3360198623  MEMB      85              0.0000000000
     10588        85  PYPG      H15S          -39.7405395662      -20.8181612700        2.0977499074  MEMB      85              0.0000000000
     10589        85  PYPG      C216          -40.9620549849      -21.1967424869        0.4433324131  MEMB      85              0.0000000000
     10590        85  PYPG      H16R          -42.0009228260      -21.0707289433        0.0702446327  MEMB      85              0.0000000000
     10591        85  PYPG      H16S          -40.5551905903      -22.1470515795        0.0362757723  MEMB      85              0.0000000000
     10592        85  PYPG      H16T          -40.3587473209      -20.4153997938       -0.0664167127  MEMB      85              0.0000000000
     10593        85  PYPG      C33           -37.0788807045      -20.5119116601       10.6375799081  MEMB      85              0.0000000000
     10594        85  PYPG      H3X           -37.4070360303      -19.6483004557       11.2546790774  MEMB      85              0.0000000000
     10595        85  PYPG      H3Y           -38.0080676628      -21.0281075400       10.3143557717  MEMB      85              0.0000000000
     10596        85  PYPG      C34           -36.3563995903      -20.1543082624        9.3777149770  MEMB      85              0.0000000000
     10597        85  PYPG      H4X           -36.1680511076      -21.0671888085        8.7731537003  MEMB      85              0.0000000000
     10598        85  PYPG      H4Y           -35.3957984870      -19.6890391626        9.6860849105  MEMB      85              0.0000000000
     10599        85  PYPG      C35           -37.0881187760      -19.1448918529        8.5310622763  MEMB      85              0.0000000000
     10600        85  PYPG      H5X           -37.1409959378      -18.1905826033        9.0974715130  MEMB      85              0.0000000000
     10601        85  PYPG      H5Y           -38.0985118654      -19.4936273539        8.2280609191  MEMB      85              0.0000000000
     10602        85  PYPG      C36           -36.4044350449      -18.9470006690        7.1859324382  MEMB      85              0.0000000000
     10603        85  PYPG      H6X           -35.3254763921      -18.7533596281        7.3666867236  MEMB      85              0.0000000000
     10604        85  PYPG      H6Y           -36.7112166916      -18.0425021709        6.6184045785  MEMB      85              0.0000000000
     10605        85  PYPG      C37           -36.5685435916      -20.1964897474        6.2215280918  MEMB      85              0.0000000000
     10606        85  PYPG      H7X           -36.3394249026      -21.0615697882        6.8799069581  MEMB      85              0.0000000000
     10607        85  PYPG      H7Y           -37.6180700386      -20.3378257817        5.8856136567  MEMB      85              0.0000000000
     10608        85  PYPG      C38           -35.6169794483      -20.1447014006        5.0374349785  MEMB      85              0.0000000000
     10609        85  PYPG      H8X           -34.5669803230      -19.9112514821        5.3155077777  MEMB      85              0.0000000000
     10610        85  PYPG      H8Y           -36.0139079206      -19.3003014587        4.4343125301  MEMB      85              0.0000000000
     10611        85  PYPG      C39           -35.6355604506      -21.4046179136        4.0991748157  MEMB      85              0.0000000000
     10612        85  PYPG      H9X           -35.0665208194      -21.0453989834        3.2151633061  MEMB      85              0.0000000000
     10613        85  PYPG      H9Y           -36.6833100698      -21.5424076161        3.7563117992  MEMB      85              0.0000000000
     10614        85  PYPG      C310          -35.0468583326      -22.7329757774        4.6514723700  MEMB      85              0.0000000000
     10615        85  PYPG      H10X          -35.6607660026      -22.9439409596        5.5530991622  MEMB      85              0.0000000000
     10616        85  PYPG      H10Y          -33.9655464170      -22.7620568418        4.9049274990  MEMB      85              0.0000000000
     10617        85  PYPG      C311          -35.4265371918      -23.9537310414        3.8955533863  MEMB      85              0.0000000000
     10618        85  PYPG      H11X          -36.5139305437      -24.1810271537        3.8802768738  MEMB      85              0.0000000000
     10619        85  PYPG      H11Y          -34.9715166767      -24.8798860376        4.3072750529  MEMB      85              0.0000000000
     10620        85  PYPG      C312          -34.9773958839      -23.8832463443        2.3633042200  MEMB      85              0.0000000000
     10621        85  PYPG      H12X          -35.7718826787      -23.1751466791        2.0443901724  MEMB      85              0.0000000000
     10622        85  PYPG      H12Y          -34.0908097739      -23.2620765723        2.1134350054  MEMB      85              0.0000000000
     10623        85  PYPG      C313          -35.1538262402      -25.2141526480        1.6082077760  MEMB      85              0.0000000000
     10624        85  PYPG      H13X          -35.4287761268      -24.9830592840        0.5568663792  MEMB      85              0.0000000000
     10625        85  PYPG      H13Y          -34.2423585950      -25.8462400708        1.6715630367  MEMB      85              0.0000000000
     10626        85  PYPG      C314          -36.3115584178      -26.1961899603        2.0958742604  MEMB      85              0.0000000000
     10627        85  PYPG      H14X          -36.1991970967      -26.5013718259        3.1582111682  MEMB      85              0.0000000000
     10628        85  PYPG      H14Y          -37.2799360037      -25.6801661173        1.9218478294  MEMB      85              0.0000000000
     10629        85  PYPG      C315          -36.4986526894      -27.4688578897        1.2062926856  MEMB      85              0.0000000000
     10630        85  PYPG      H15X          -36.2213202889      -27.1607717861        0.1755214697  MEMB      85              0.0000000000
     10631        85  PYPG      H15Y          -35.9016078356      -28.2805228949        1.6743291334  MEMB      85              0.0000000000
     10632        85  PYPG      C316          -37.9275994109      -27.9915705260        1.1802044055  MEMB      85              0.0000000000
     10633        85  PYPG      H16X          -38.7038228299      -27.1987003037        1.1240360782  MEMB      85              0.0000000000
     10634        85  PYPG      H16Y          -38.0190601555      -28.5482767232        2.1373010936  MEMB      85              0.0000000000
     10635        85  PYPG      H16Z          -38.0527480664      -28.7503426177        0.3783789448  MEMB      85              0.0000000000
     10636        86  PMPE      N             -15.6133013083      -41.5024376843       18.5298118190  MEMB      86              0.0000000000
     10637        86  PMPE      HN1           -16.3026534029      -41.4339887783       17.7541132131  MEMB      86              0.0000000000
     10638        86  PMPE      HN2           -15.0661716009      -42.3583314751       18.3068884164  MEMB      86              0.0000000000
     10639        86  PMPE      HN3           -16.1821927412      -41.5806083876       19.3969058310  MEMB      86              0.0000000000
     10640        86  PMPE      C12           -14.6023618687      -40.3703918635       18.5254561945  MEMB      86              0.0000000000
     10641        86  PMPE      H12A          -14.3493806051      -40.0109313623       17.5051083139  MEMB      86              0.0000000000
     10642        86  PMPE      H12B          -13.7199212381      -40.7679438389       19.0709579976  MEMB      86              0.0000000000
     10643        86  PMPE      C11           -15.0834719623      -39.1929291623       19.3916996576  MEMB      86              0.0000000000
     10644        86  PMPE      H11A          -14.3267698606      -38.3855359696       19.2925074427  MEMB      86              0.0000000000
     10645        86  PMPE      H11B          -15.2051366550      -39.5208972743       20.4461926952  MEMB      86              0.0000000000
     10646        86  PMPE      P             -16.8283720034      -37.3359953957       19.1377069304  MEMB      86              0.0000000000
     10647        86  PMPE      O13           -16.0908143670      -36.2414055126       18.5240074555  MEMB      86              0.0000000000
     10648        86  PMPE      O14           -17.0393885498      -37.1730449222       20.6426939512  MEMB      86              0.0000000000
     10649        86  PMPE      O11           -18.2492243659      -37.4489166529       18.4007174076  MEMB      86              0.0000000000
     10650        86  PMPE      O12           -16.2915743687      -38.7550340037       18.8479065820  MEMB      86              0.0000000000
     10651        86  PMPE      C1            -19.4393395185      -38.0687632920       18.8567142242  MEMB      86              0.0000000000
     10652        86  PMPE      HA            -20.0873621015      -37.3860814763       19.4469118078  MEMB      86              0.0000000000
     10653        86  PMPE      HB            -19.0909041046      -38.8873068940       19.5222216155  MEMB      86              0.0000000000
     10654        86  PMPE      C2            -20.2936393142      -38.8375012070       17.7622814390  MEMB      86              0.0000000000
     10655        86  PMPE      HS            -21.0234682757      -39.4331365990       18.3512547250  MEMB      86              0.0000000000
     10656        86  PMPE      O21           -19.4413669684      -39.5953220891       16.8913274126  MEMB      86              0.0000000000
     10657        86  PMPE      C21           -19.9834369083      -40.5915337488       16.2850422424  MEMB      86              0.0000000000
     10658        86  PMPE      O22           -21.0968630526      -41.0628443135       16.5069613106  MEMB      86              0.0000000000
     10659        86  PMPE      C22           -19.1929290434      -40.9440323648       15.0014311008  MEMB      86              0.0000000000
     10660        86  PMPE      H2R           -18.3802294326      -41.6648305150       15.2344335885  MEMB      86              0.0000000000
     10661        86  PMPE      H2S           -18.7481325788      -40.0880202705       14.4503224500  MEMB      86              0.0000000000
     10662        86  PMPE      C3            -21.1579024449      -37.8165539307       17.0358484568  MEMB      86              0.0000000000
     10663        86  PMPE      HX            -21.6418462091      -37.2083045357       17.8296697012  MEMB      86              0.0000000000
     10664        86  PMPE      HY            -21.8986179213      -38.4384667513       16.4891435784  MEMB      86              0.0000000000
     10665        86  PMPE      O31           -20.3053504181      -36.9171443095       16.2067873710  MEMB      86              0.0000000000
     10666        86  PMPE      C31           -20.4318343631      -37.0867611245       14.8584915746  MEMB      86              0.0000000000
     10667        86  PMPE      O32           -21.0576784465      -38.0121603002       14.3052798824  MEMB      86              0.0000000000
     10668        86  PMPE      C32           -19.6977446942      -35.9577663684       14.1490878576  MEMB      86              0.0000000000
     10669        86  PMPE      H2X           -18.9791519400      -35.4990192047       14.8614758872  MEMB      86              0.0000000000
     10670        86  PMPE      H2Y           -20.4173285323      -35.1413368690       13.9255643455  MEMB      86              0.0000000000
     10671        86  PMPE      C23           -20.2469165693      -41.7135480385       14.0129822380  MEMB      86              0.0000000000
     10672        86  PMPE      H3R           -21.1735984489      -41.1126375585       13.8926155088  MEMB      86              0.0000000000
     10673        86  PMPE      H3S           -20.7120592414      -42.6098010808       14.4763325763  MEMB      86              0.0000000000
     10674        86  PMPE      C24           -19.7110977491      -42.0667687107       12.6044049729  MEMB      86              0.0000000000
     10675        86  PMPE      H4R           -20.2811046973      -42.9682500326       12.2933673031  MEMB      86              0.0000000000
     10676        86  PMPE      H4S           -18.6297050982      -42.3214058393       12.6128489705  MEMB      86              0.0000000000
     10677        86  PMPE      C25           -19.8793060065      -40.9889656706       11.6053209227  MEMB      86              0.0000000000
     10678        86  PMPE      H5R           -19.2437250305      -40.1209155921       11.8825335358  MEMB      86              0.0000000000
     10679        86  PMPE      H5S           -20.9323045990      -40.6355766855       11.6304491674  MEMB      86              0.0000000000
     10680        86  PMPE      C26           -19.5290352128      -41.2621845211       10.0624314857  MEMB      86              0.0000000000
     10681        86  PMPE      H6R           -19.6060003607      -40.2037833485        9.7335173862  MEMB      86              0.0000000000
     10682        86  PMPE      H6S           -20.3907748438      -41.6909205038        9.5075337853  MEMB      86              0.0000000000
     10683        86  PMPE      C27           -18.2164623316      -41.9595890133        9.7417450818  MEMB      86              0.0000000000
     10684        86  PMPE      H7R           -18.3596424730      -43.0586211809        9.6646191348  MEMB      86              0.0000000000
     10685        86  PMPE      H7S           -17.4054796289      -41.8557632153       10.4939740730  MEMB      86              0.0000000000
     10686        86  PMPE      C28           -17.5670540425      -41.4695117896        8.3927842958  MEMB      86              0.0000000000
     10687        86  PMPE      H8R           -17.0703915226      -42.3766714842        7.9869413788  MEMB      86              0.0000000000
     10688        86  PMPE      H8S           -16.9853741708      -40.5334999220        8.5336791468  MEMB      86              0.0000000000
     10689        86  PMPE      C29           -18.6680865913      -41.1179933111        7.3559956454  MEMB      86              0.0000000000
     10690        86  PMPE      H9R           -19.2098759284      -40.1566970141        7.4852029912  MEMB      86              0.0000000000
     10691        86  PMPE      C217          -19.4555465261      -42.2318774060        6.5712569807  MEMB      86              0.0000000000
     10692        86  PMPE      H17R          -20.4341552342      -41.8246622491        6.3490198862  MEMB      86              0.0000000000
     10693        86  PMPE      H17S          -19.0955467657      -43.2419476904        6.4194449894  MEMB      86              0.0000000000
     10694        86  PMPE      C210          -18.4157749075      -41.2859431133        5.9153845935  MEMB      86              0.0000000000
     10695        86  PMPE      H10R          -18.8552553382      -40.5097492125        5.2530395025  MEMB      86              0.0000000000
     10696        86  PMPE      C211          -17.0498172055      -41.8505492733        5.3883918758  MEMB      86              0.0000000000
     10697        86  PMPE      H11R          -16.8948633824      -42.9350599784        5.5731805119  MEMB      86              0.0000000000
     10698        86  PMPE      H11S          -16.2009537631      -41.2823369707        5.8252976326  MEMB      86              0.0000000000
     10699        86  PMPE      C212          -16.9949981421      -41.6896491212        3.8582704873  MEMB      86              0.0000000000
     10700        86  PMPE      H12R          -16.9812457460      -40.5980140180        3.6522008645  MEMB      86              0.0000000000
     10701        86  PMPE      H12S          -17.9032371008      -42.1662233242        3.4313058492  MEMB      86              0.0000000000
     10702        86  PMPE      C213          -15.6818476214      -42.3572464142        3.3538813309  MEMB      86              0.0000000000
     10703        86  PMPE      H13R          -15.3911500582      -42.9387864441        4.2547854797  MEMB      86              0.0000000000
     10704        86  PMPE      H13S          -14.8821570603      -41.6141189805        3.1475384741  MEMB      86              0.0000000000
     10705        86  PMPE      C214          -15.7988976387      -43.2839515126        2.1070498118  MEMB      86              0.0000000000
     10706        86  PMPE      H14R          -16.4273839882      -42.6855831994        1.4133048673  MEMB      86              0.0000000000
     10707        86  PMPE      H14S          -16.4234967732      -44.1559508276        2.3965567965  MEMB      86              0.0000000000
     10708        86  PMPE      C215          -14.4447431466      -43.7462974803        1.4181740933  MEMB      86              0.0000000000
     10709        86  PMPE      H15R          -14.6631214663      -44.5585887442        0.6923557503  MEMB      86              0.0000000000
     10710        86  PMPE      H15S          -13.8920095199      -44.1092195908        2.3109762342  MEMB      86              0.0000000000
     10711        86  PMPE      C216          -13.6415427527      -42.6347703193        0.6187614625  MEMB      86              0.0000000000
     10712        86  PMPE      H16R          -12.8142195957      -43.0826366039        0.0277679940  MEMB      86              0.0000000000
     10713        86  PMPE      H16S          -14.3210370266      -42.1562305780       -0.1185371673  MEMB      86              0.0000000000
     10714        86  PMPE      H16T          -13.3325602135      -41.8851094558        1.3782741946  MEMB      86              0.0000000000
     10715        86  PMPE      C33           -19.0577524899      -36.4556499165       12.8291695201  MEMB      86              0.0000000000
     10716        86  PMPE      H3X           -19.8921887312      -36.7556077890       12.1597949077  MEMB      86              0.0000000000
     10717        86  PMPE      H3Y           -18.6997864865      -37.4739825122       13.0921904295  MEMB      86              0.0000000000
     10718        86  PMPE      C34           -17.9905665154      -35.5553247737       12.2463538963  MEMB      86              0.0000000000
     10719        86  PMPE      H4X           -17.5773417039      -35.0802440187       13.1617031869  MEMB      86              0.0000000000
     10720        86  PMPE      H4Y           -18.5632782119      -34.7437442831       11.7486998108  MEMB      86              0.0000000000
     10721        86  PMPE      C35           -16.9944838879      -36.1470246110       11.2625592285  MEMB      86              0.0000000000
     10722        86  PMPE      H5X           -16.4820670117      -37.0523620234       11.6525778676  MEMB      86              0.0000000000
     10723        86  PMPE      H5Y           -16.2658499275      -35.3700210402       10.9468395134  MEMB      86              0.0000000000
     10724        86  PMPE      C36           -17.5969612534      -36.5485061741        9.9223957444  MEMB      86              0.0000000000
     10725        86  PMPE      H6X           -18.1570892436      -35.7409582657        9.4042794530  MEMB      86              0.0000000000
     10726        86  PMPE      H6Y           -18.3227902496      -37.3662907849       10.1191739607  MEMB      86              0.0000000000
     10727        86  PMPE      C37           -16.5778027233      -37.1033104492        8.9301546502  MEMB      86              0.0000000000
     10728        86  PMPE      H7X           -16.2378576871      -37.9969695931        9.4959570605  MEMB      86              0.0000000000
     10729        86  PMPE      H7Y           -15.9189573858      -36.2144006993        8.8297402304  MEMB      86              0.0000000000
     10730        86  PMPE      C38           -17.2051740700      -37.5524378999        7.5060501771  MEMB      86              0.0000000000
     10731        86  PMPE      H8X           -17.8240046461      -38.4391932661        7.7610685465  MEMB      86              0.0000000000
     10732        86  PMPE      H8Y           -16.3591343573      -37.9787436499        6.9257046632  MEMB      86              0.0000000000
     10733        86  PMPE      C39           -17.9424330896      -36.5493919199        6.7335307657  MEMB      86              0.0000000000
     10734        86  PMPE      H9X           -17.3566341380      -35.6080674177        6.6623333255  MEMB      86              0.0000000000
     10735        86  PMPE      H9Y           -18.8470660529      -36.2122446545        7.2833412058  MEMB      86              0.0000000000
     10736        86  PMPE      C310          -18.2240782584      -37.0399422703        5.2799575850  MEMB      86              0.0000000000
     10737        86  PMPE      H10X          -19.0195289285      -36.3846642516        4.8650006303  MEMB      86              0.0000000000
     10738        86  PMPE      H10Y          -18.5722508193      -38.0942976922        5.3177977228  MEMB      86              0.0000000000
     10739        86  PMPE      C311          -17.0840419564      -37.1484080158        4.2236957829  MEMB      86              0.0000000000
     10740        86  PMPE      H11X          -16.3420725643      -37.9663929810        4.3449501043  MEMB      86              0.0000000000
     10741        86  PMPE      H11Y          -16.5356566911      -36.2018094860        4.4174634773  MEMB      86              0.0000000000
     10742        86  PMPE      C312          -17.5882023091      -37.2075314839        2.7914916407  MEMB      86              0.0000000000
     10743        86  PMPE      H12X          -18.3205039266      -36.4254801954        2.4974654364  MEMB      86              0.0000000000
     10744        86  PMPE      H12Y          -18.1547781698      -38.1554719303        2.6701588897  MEMB      86              0.0000000000
     10745        86  PMPE      C313          -16.5318114588      -37.1296277116        1.6501960886  MEMB      86              0.0000000000
     10746        86  PMPE      H13X          -15.7034855382      -36.4941213670        2.0301037803  MEMB      86              0.0000000000
     10747        86  PMPE      H13Y          -16.9895084293      -36.5644525829        0.8103079603  MEMB      86              0.0000000000
     10748        86  PMPE      C314          -15.8388949174      -38.4004791010        1.2000023032  MEMB      86              0.0000000000
     10749        86  PMPE      H14X          -16.6888115748      -39.0989580743        1.0447908336  MEMB      86              0.0000000000
     10750        86  PMPE      H14Y          -15.2369404941      -38.8040909235        2.0420648481  MEMB      86              0.0000000000
     10751        86  PMPE      C315          -15.0597302350      -38.2936029222       -0.0785239794  MEMB      86              0.0000000000
     10752        86  PMPE      H15X          -15.8962054701      -37.9229327997       -0.7087877321  MEMB      86              0.0000000000
     10753        86  PMPE      H15Y          -14.8008276104      -39.3133318322       -0.4355164301  MEMB      86              0.0000000000
     10754        86  PMPE      C316          -13.8626693886      -37.3425683231        0.0232395017  MEMB      86              0.0000000000
     10755        86  PMPE      H16X          -13.1103721746      -37.5389151613        0.8168501333  MEMB      86              0.0000000000
     10756        86  PMPE      H16Y          -14.1498821376      -36.2865917524        0.2149262431  MEMB      86              0.0000000000
     10757        86  PMPE      H16Z          -13.3932940102      -37.3549934675       -0.9836625152  MEMB      86              0.0000000000
     10758        87  PMPE      N              36.6367795268      -19.8360864174       18.4208592890  MEMB      87              0.0000000000
     10759        87  PMPE      HN1            37.3819687072      -20.5232310939       18.6535075375  MEMB      87              0.0000000000
     10760        87  PMPE      HN2            35.7187869902      -20.3242752918       18.4445529757  MEMB      87              0.0000000000
     10761        87  PMPE      HN3            36.8992238976      -19.3535766279       17.5377358095  MEMB      87              0.0000000000
     10762        87  PMPE      C12            36.6645682513      -18.8618927597       19.5472751452  MEMB      87              0.0000000000
     10763        87  PMPE      H12A           35.8953158484      -19.3168833528       20.2072411078  MEMB      87              0.0000000000
     10764        87  PMPE      H12B           36.2261989083      -17.8644554232       19.3298534221  MEMB      87              0.0000000000
     10765        87  PMPE      C11            38.0347584265      -18.6689074029       20.2762678020  MEMB      87              0.0000000000
     10766        87  PMPE      H11A           38.2655539464      -19.5901062066       20.8528501395  MEMB      87              0.0000000000
     10767        87  PMPE      H11B           37.7692149052      -17.8725502345       21.0040196600  MEMB      87              0.0000000000
     10768        87  PMPE      P              40.2486231578      -19.0687641899       18.7993021412  MEMB      87              0.0000000000
     10769        87  PMPE      O13            40.1501908022      -20.5363341268       19.0571737339  MEMB      87              0.0000000000
     10770        87  PMPE      O14            41.5206294206      -18.4328290125       19.0297314130  MEMB      87              0.0000000000
     10771        87  PMPE      O11            39.7968762165      -18.7898839993       17.3459190948  MEMB      87              0.0000000000
     10772        87  PMPE      O12            39.1050346357      -18.2245840071       19.5234713791  MEMB      87              0.0000000000
     10773        87  PMPE      C1             39.3555878144      -17.4994272838       16.8734685044  MEMB      87              0.0000000000
     10774        87  PMPE      HA             40.0996367688      -16.7260855665       17.1609660495  MEMB      87              0.0000000000
     10775        87  PMPE      HB             38.4556728787      -17.1229417263       17.4051946408  MEMB      87              0.0000000000
     10776        87  PMPE      C2             39.2553199454      -17.6171488696       15.3197432922  MEMB      87              0.0000000000
     10777        87  PMPE      HS             38.9039578653      -16.6486238867       14.9040210730  MEMB      87              0.0000000000
     10778        87  PMPE      O21            38.3324540127      -18.6480596361       14.9041103395  MEMB      87              0.0000000000
     10779        87  PMPE      C21            37.0711762566      -18.4392288492       14.9668936287  MEMB      87              0.0000000000
     10780        87  PMPE      O22            36.4355084262      -17.4805992413       15.4547579482  MEMB      87              0.0000000000
     10781        87  PMPE      C22            36.3697927543      -19.5839214092       14.2494008393  MEMB      87              0.0000000000
     10782        87  PMPE      H2R            35.4370460343      -19.6316081271       14.8510905250  MEMB      87              0.0000000000
     10783        87  PMPE      H2S            36.8358871797      -20.5885079566       14.3381856862  MEMB      87              0.0000000000
     10784        87  PMPE      C3             40.6488452382      -17.8723392272       14.7077989694  MEMB      87              0.0000000000
     10785        87  PMPE      HX             41.4141410878      -18.0673318824       15.4892215440  MEMB      87              0.0000000000
     10786        87  PMPE      HY             40.9456391811      -16.8830660815       14.2984417674  MEMB      87              0.0000000000
     10787        87  PMPE      O31            40.5986800017      -18.9024254811       13.7070092986  MEMB      87              0.0000000000
     10788        87  PMPE      C31            41.1717512935      -18.6008650787       12.5730194115  MEMB      87              0.0000000000
     10789        87  PMPE      O32            41.8564311728      -17.6063806038       12.3291194556  MEMB      87              0.0000000000
     10790        87  PMPE      C32            40.9649075276      -19.7547134358       11.6215692596  MEMB      87              0.0000000000
     10791        87  PMPE      H2X            39.8600200755      -19.7723553404       11.5065326266  MEMB      87              0.0000000000
     10792        87  PMPE      H2Y            41.2342790745      -20.7476553521       12.0408858302  MEMB      87              0.0000000000
     10793        87  PMPE      C23            36.0358308606      -19.2934589740       12.7587990337  MEMB      87              0.0000000000
     10794        87  PMPE      H3R            35.9719484543      -18.2317710613       12.4377711348  MEMB      87              0.0000000000
     10795        87  PMPE      H3S            35.0066966657      -19.6706697302       12.5773726003  MEMB      87              0.0000000000
     10796        87  PMPE      C24            36.9238118456      -20.2182374110       11.8467224360  MEMB      87              0.0000000000
     10797        87  PMPE      H4R            36.7428357060      -21.3111463414       11.9310936144  MEMB      87              0.0000000000
     10798        87  PMPE      H4S            37.9347120310      -20.0849332367       12.2878935633  MEMB      87              0.0000000000
     10799        87  PMPE      C25            36.9729326733      -19.7886184933       10.3609603632  MEMB      87              0.0000000000
     10800        87  PMPE      H5R            37.8617158860      -20.2975490666        9.9304086058  MEMB      87              0.0000000000
     10801        87  PMPE      H5S            37.2116844159      -18.7146563725       10.2062866645  MEMB      87              0.0000000000
     10802        87  PMPE      C26            35.7188335019      -20.2044992648        9.6259496489  MEMB      87              0.0000000000
     10803        87  PMPE      H6R            34.8080879954      -19.7566387813       10.0779278962  MEMB      87              0.0000000000
     10804        87  PMPE      H6S            35.6991193687      -21.2896780681        9.8632666019  MEMB      87              0.0000000000
     10805        87  PMPE      C27            35.7970559922      -19.8427032539        8.1467799333  MEMB      87              0.0000000000
     10806        87  PMPE      H7R            36.1657798722      -18.8060658329        7.9926806854  MEMB      87              0.0000000000
     10807        87  PMPE      H7S            34.7464796237      -19.8905938515        7.7885665690  MEMB      87              0.0000000000
     10808        87  PMPE      C28            36.6262596938      -20.7293089527        7.1969365884  MEMB      87              0.0000000000
     10809        87  PMPE      H8R            37.6941544183      -20.5087928766        7.4097611700  MEMB      87              0.0000000000
     10810        87  PMPE      H8S            36.4848307527      -20.3320017391        6.1690913745  MEMB      87              0.0000000000
     10811        87  PMPE      C29            36.2663603877      -22.1649916049        7.4970835768  MEMB      87              0.0000000000
     10812        87  PMPE      H9R            35.2079412496      -22.4955560739        7.5663428600  MEMB      87              0.0000000000
     10813        87  PMPE      C217           37.2605394254      -22.8030842732        8.4596108578  MEMB      87              0.0000000000
     10814        87  PMPE      H17R           36.6400701267      -23.2650293165        9.2175775643  MEMB      87              0.0000000000
     10815        87  PMPE      H17S           38.0278779923      -22.1247504635        8.8116672398  MEMB      87              0.0000000000
     10816        87  PMPE      C210           37.1828750423      -23.2327136679        7.0542157381  MEMB      87              0.0000000000
     10817        87  PMPE      H10R           36.7290610798      -24.2459526534        7.0127300949  MEMB      87              0.0000000000
     10818        87  PMPE      C211           38.3110962721      -22.9276902319        6.0905783740  MEMB      87              0.0000000000
     10819        87  PMPE      H11R           39.0753342080      -23.7289164457        5.9994854042  MEMB      87              0.0000000000
     10820        87  PMPE      H11S           38.9351125055      -22.0921546573        6.4737296772  MEMB      87              0.0000000000
     10821        87  PMPE      C212           37.7132614006      -22.4640595659        4.7025572147  MEMB      87              0.0000000000
     10822        87  PMPE      H12R           36.9614461560      -21.6526645132        4.8061571128  MEMB      87              0.0000000000
     10823        87  PMPE      H12S           37.1806968980      -23.3668064821        4.3341236005  MEMB      87              0.0000000000
     10824        87  PMPE      C213           38.8459132947      -22.1167012347        3.7454715308  MEMB      87              0.0000000000
     10825        87  PMPE      H13R           39.6715290737      -22.8428003924        3.9050326278  MEMB      87              0.0000000000
     10826        87  PMPE      H13S           39.3027022585      -21.1341050132        3.9907660374  MEMB      87              0.0000000000
     10827        87  PMPE      C214           38.4442689323      -21.9209050402        2.3106747167  MEMB      87              0.0000000000
     10828        87  PMPE      H14R           37.9094744659      -20.9491725266        2.2470216214  MEMB      87              0.0000000000
     10829        87  PMPE      H14S           37.8003642645      -22.7748994533        2.0100076219  MEMB      87              0.0000000000
     10830        87  PMPE      C215           39.6293879184      -22.0102917474        1.3606853887  MEMB      87              0.0000000000
     10831        87  PMPE      H15R           39.2067165750      -21.8712955425        0.3426732940  MEMB      87              0.0000000000
     10832        87  PMPE      H15S           40.1946012983      -22.9636039082        1.4384718069  MEMB      87              0.0000000000
     10833        87  PMPE      C216           40.6632706689      -20.8659198581        1.4210982283  MEMB      87              0.0000000000
     10834        87  PMPE      H16R           40.8837484133      -20.5190685637        0.3889144957  MEMB      87              0.0000000000
     10835        87  PMPE      H16S           40.1730414706      -19.9868587506        1.8914699015  MEMB      87              0.0000000000
     10836        87  PMPE      H16T           41.5786425296      -21.1446586770        1.9856518749  MEMB      87              0.0000000000
     10837        87  PMPE      C33            41.7245494830      -19.4803530174       10.2631391691  MEMB      87              0.0000000000
     10838        87  PMPE      H3X            42.8041231079      -19.6242041122       10.4825660357  MEMB      87              0.0000000000
     10839        87  PMPE      H3Y            41.6562979891      -18.4408605290        9.8769809371  MEMB      87              0.0000000000
     10840        87  PMPE      C34            41.3141606565      -20.4908341901        9.1064971187  MEMB      87              0.0000000000
     10841        87  PMPE      H4X            40.2081813932      -20.5962711786        9.1027439537  MEMB      87              0.0000000000
     10842        87  PMPE      H4Y            41.7702625438      -21.4428464721        9.4528563129  MEMB      87              0.0000000000
     10843        87  PMPE      C35            41.7426799725      -20.2793486985        7.6573155683  MEMB      87              0.0000000000
     10844        87  PMPE      H5X            41.2390877095      -20.9968306346        6.9747205320  MEMB      87              0.0000000000
     10845        87  PMPE      H5Y            42.8349916066      -20.4179436311        7.5091003698  MEMB      87              0.0000000000
     10846        87  PMPE      C36            41.3993670022      -18.8438587376        7.1565559494  MEMB      87              0.0000000000
     10847        87  PMPE      H6X            41.9624112848      -18.1548768577        7.8218426768  MEMB      87              0.0000000000
     10848        87  PMPE      H6Y            40.3088465607      -18.6521512927        7.2478494013  MEMB      87              0.0000000000
     10849        87  PMPE      C37            41.8964429903      -18.6077429935        5.7529669152  MEMB      87              0.0000000000
     10850        87  PMPE      H7X            42.5213207727      -19.4672388386        5.4287507929  MEMB      87              0.0000000000
     10851        87  PMPE      H7Y            42.6131385482      -17.7599228857        5.7962063824  MEMB      87              0.0000000000
     10852        87  PMPE      C38            40.7706865886      -18.3717578462        4.7156676168  MEMB      87              0.0000000000
     10853        87  PMPE      H8X            40.0697376959      -19.2334978833        4.6957719024  MEMB      87              0.0000000000
     10854        87  PMPE      H8Y            41.1647859329      -18.3798960389        3.6769470574  MEMB      87              0.0000000000
     10855        87  PMPE      C39            39.9673093361      -17.1176138815        5.0861567263  MEMB      87              0.0000000000
     10856        87  PMPE      H9X            40.6372095458      -16.2361456708        4.9935920313  MEMB      87              0.0000000000
     10857        87  PMPE      H9Y            39.5714134870      -17.2450036254        6.1163791224  MEMB      87              0.0000000000
     10858        87  PMPE      C310           38.7408839779      -16.7826774132        4.1216536659  MEMB      87              0.0000000000
     10859        87  PMPE      H10X           38.3215022024      -15.8285636453        4.5065005861  MEMB      87              0.0000000000
     10860        87  PMPE      H10Y           38.0771535037      -17.6618098438        4.2662518426  MEMB      87              0.0000000000
     10861        87  PMPE      C311           39.2065268957      -16.4382216811        2.7044942510  MEMB      87              0.0000000000
     10862        87  PMPE      H11X           39.9960498019      -17.2024147273        2.5402269320  MEMB      87              0.0000000000
     10863        87  PMPE      H11Y           39.6334180840      -15.4125101360        2.7034677064  MEMB      87              0.0000000000
     10864        87  PMPE      C312           38.0872180425      -16.4925421801        1.6754802832  MEMB      87              0.0000000000
     10865        87  PMPE      H12X           38.4963285922      -16.1349025591        0.7064380478  MEMB      87              0.0000000000
     10866        87  PMPE      H12Y           37.2788117485      -15.8504608500        2.0860060232  MEMB      87              0.0000000000
     10867        87  PMPE      C313           37.4335189528      -17.8594543079        1.5159744991  MEMB      87              0.0000000000
     10868        87  PMPE      H13X           37.1106888082      -18.2168955321        2.5171427614  MEMB      87              0.0000000000
     10869        87  PMPE      H13Y           38.1071643286      -18.6262304851        1.0771385556  MEMB      87              0.0000000000
     10870        87  PMPE      C314           36.1930494473      -17.8932740707        0.6041287613  MEMB      87              0.0000000000
     10871        87  PMPE      H14X           36.4826091426      -17.3725637594       -0.3336009568  MEMB      87              0.0000000000
     10872        87  PMPE      H14Y           35.3999799517      -17.2294015534        1.0098804484  MEMB      87              0.0000000000
     10873        87  PMPE      C315           35.6524722365      -19.3322682072        0.4561271164  MEMB      87              0.0000000000
     10874        87  PMPE      H15X           35.5616232733      -19.6163926267        1.5263326809  MEMB      87              0.0000000000
     10875        87  PMPE      H15Y           36.4138897513      -19.9797751276       -0.0289491980  MEMB      87              0.0000000000
     10876        87  PMPE      C316           34.4082561796      -19.5283746241       -0.3455548743  MEMB      87              0.0000000000
     10877        87  PMPE      H16X           33.5062176715      -18.9987700194        0.0288315547  MEMB      87              0.0000000000
     10878        87  PMPE      H16Y           34.1635018509      -20.6090035055       -0.2639597702  MEMB      87              0.0000000000
     10879        87  PMPE      H16Z           34.5711403402      -19.3001519684       -1.4205912475  MEMB      87              0.0000000000
     10880        88  PYPG      C13           -36.7565805034       16.7820024310       18.9220068764  MEMB      88              0.0000000000
     10881        88  PYPG      H13A          -36.9649958870       16.8040883502       17.8309541097  MEMB      88              0.0000000000
     10882        88  PYPG      H13B          -37.1706185224       17.7746080579       19.2006240156  MEMB      88              0.0000000000
     10883        88  PYPG      OC3           -35.3770114422       16.8916860559       19.2058698109  MEMB      88              0.0000000000
     10884        88  PYPG      HO3           -35.0533140287       16.0085163267       19.0139546716  MEMB      88              0.0000000000
     10885        88  PYPG      C12           -37.4971398735       15.5451579627       19.5660070969  MEMB      88              0.0000000000
     10886        88  PYPG      H12A          -37.4806526142       15.6881581222       20.6714744934  MEMB      88              0.0000000000
     10887        88  PYPG      OC2           -36.7923031607       14.3393895907       19.2670610626  MEMB      88              0.0000000000
     10888        88  PYPG      HO2           -37.4020978063       13.6408850419       19.5910344035  MEMB      88              0.0000000000
     10889        88  PYPG      C11           -38.9373058021       15.4530545031       19.1181002440  MEMB      88              0.0000000000
     10890        88  PYPG      H11A          -39.2785344121       14.4834005155       19.5395918471  MEMB      88              0.0000000000
     10891        88  PYPG      H11B          -39.0627601535       15.4290789920       18.0144665297  MEMB      88              0.0000000000
     10892        88  PYPG      P             -41.0050010087       16.9355707048       18.8231324021  MEMB      88              0.0000000000
     10893        88  PYPG      O13           -40.5940027001       17.7784861927       17.6513372883  MEMB      88              0.0000000000
     10894        88  PYPG      O14           -42.0554261956       17.5935821624       19.5891851979  MEMB      88              0.0000000000
     10895        88  PYPG      O11           -41.5886570431       15.6628711497       18.2147621085  MEMB      88              0.0000000000
     10896        88  PYPG      O12           -39.7661032585       16.4740162544       19.6425378964  MEMB      88              0.0000000000
     10897        88  PYPG      C1            -42.2979131863       14.6643244303       18.9407448544  MEMB      88              0.0000000000
     10898        88  PYPG      HA            -43.1991952819       15.1580917298       19.3628888667  MEMB      88              0.0000000000
     10899        88  PYPG      HB            -41.6208821744       14.2492034244       19.7176776865  MEMB      88              0.0000000000
     10900        88  PYPG      C2            -42.6622872230       13.3498875231       18.1343925983  MEMB      88              0.0000000000
     10901        88  PYPG      HS            -42.4762909538       12.5332914670       18.8643907302  MEMB      88              0.0000000000
     10902        88  PYPG      O21           -41.7107051155       13.1912641493       17.1420257003  MEMB      88              0.0000000000
     10903        88  PYPG      C21           -40.5745590844       12.6337542068       17.4463848457  MEMB      88              0.0000000000
     10904        88  PYPG      O22           -40.2166992436       12.0844958671       18.4586851482  MEMB      88              0.0000000000
     10905        88  PYPG      C22           -39.5392448668       12.7344329497       16.2768306004  MEMB      88              0.0000000000
     10906        88  PYPG      H2R           -38.5579012021       12.8862114612       16.7750766155  MEMB      88              0.0000000000
     10907        88  PYPG      H2S           -39.7548767202       13.6175776736       15.6381762484  MEMB      88              0.0000000000
     10908        88  PYPG      C3            -43.9943215537       13.2208914689       17.5252737084  MEMB      88              0.0000000000
     10909        88  PYPG      HX            -44.7308525651       13.5183515608       18.3020363523  MEMB      88              0.0000000000
     10910        88  PYPG      HY            -44.2121230795       12.1588301451       17.2825610704  MEMB      88              0.0000000000
     10911        88  PYPG      O31           -44.0474060746       14.0789351007       16.3512858258  MEMB      88              0.0000000000
     10912        88  PYPG      C31           -43.8273270365       13.5453940096       15.1280043059  MEMB      88              0.0000000000
     10913        88  PYPG      O32           -43.5005477545       12.4253903811       14.9312306277  MEMB      88              0.0000000000
     10914        88  PYPG      C32           -44.2543967190       14.6841008065       14.1009042500  MEMB      88              0.0000000000
     10915        88  PYPG      H2X           -45.0202140004       14.3671647081       13.3610416980  MEMB      88              0.0000000000
     10916        88  PYPG      H2Y           -44.5894496654       15.4957157338       14.7815967793  MEMB      88              0.0000000000
     10917        88  PYPG      C23           -39.8825029316       11.5235688898       15.3805819915  MEMB      88              0.0000000000
     10918        88  PYPG      H3R           -40.9290772318       11.6857548011       15.0448750934  MEMB      88              0.0000000000
     10919        88  PYPG      H3S           -39.8674034706       10.5388531258       15.8948074634  MEMB      88              0.0000000000
     10920        88  PYPG      C24           -38.9361792308       11.3302294272       14.2160823894  MEMB      88              0.0000000000
     10921        88  PYPG      H4R           -37.9834090534       10.8861628234       14.5757416325  MEMB      88              0.0000000000
     10922        88  PYPG      H4S           -38.6003085445       12.2100949282       13.6267196106  MEMB      88              0.0000000000
     10923        88  PYPG      C25           -39.5600727253       10.4627691646       13.1186898408  MEMB      88              0.0000000000
     10924        88  PYPG      H5R           -40.3807829876        9.7976726076       13.4627859983  MEMB      88              0.0000000000
     10925        88  PYPG      H5S           -38.8044720971        9.7954978819       12.6516373692  MEMB      88              0.0000000000
     10926        88  PYPG      C26           -40.1755960861       11.3042648448       11.9762066616  MEMB      88              0.0000000000
     10927        88  PYPG      H6R           -39.3662323961       11.8740803374       11.4716657968  MEMB      88              0.0000000000
     10928        88  PYPG      H6S           -40.9934154275       11.9482593639       12.3644888712  MEMB      88              0.0000000000
     10929        88  PYPG      C27           -40.8676544930       10.3723843307       10.9123928233  MEMB      88              0.0000000000
     10930        88  PYPG      H7R           -41.4805578658        9.6539839197       11.4976889796  MEMB      88              0.0000000000
     10931        88  PYPG      H7S           -40.1255133861        9.7023492917       10.4280369161  MEMB      88              0.0000000000
     10932        88  PYPG      C28           -41.7917671306       11.0159904726        9.9884081125  MEMB      88              0.0000000000
     10933        88  PYPG      H8R           -41.2805196459       11.9424158021        9.6497597011  MEMB      88              0.0000000000
     10934        88  PYPG      H8S           -42.6038141626       11.3728434202       10.6574057154  MEMB      88              0.0000000000
     10935        88  PYPG      C29           -42.1064346151       10.1159753450        8.8704668777  MEMB      88              0.0000000000
     10936        88  PYPG      H9R           -42.0380252237        9.0489166047        9.1287419285  MEMB      88              0.0000000000
     10937        88  PYPG      C210          -42.5988745965       10.6117187870        7.6565566632  MEMB      88              0.0000000000
     10938        88  PYPG      H10R          -42.7368695381        9.9254019888        6.8080714827  MEMB      88              0.0000000000
     10939        88  PYPG      C211          -42.8410486544       12.0362569669        7.3456313497  MEMB      88              0.0000000000
     10940        88  PYPG      H11R          -42.0709680557       12.6568750460        7.8517252596  MEMB      88              0.0000000000
     10941        88  PYPG      H11S          -43.8369311992       12.3632122997        7.7139238418  MEMB      88              0.0000000000
     10942        88  PYPG      C212          -42.6078315825       12.1770732235        5.8607732687  MEMB      88              0.0000000000
     10943        88  PYPG      H12R          -43.0558425998       13.1469271727        5.5558302783  MEMB      88              0.0000000000
     10944        88  PYPG      H12S          -43.1927044982       11.4674437049        5.2373395442  MEMB      88              0.0000000000
     10945        88  PYPG      C213          -41.1315634973       12.2402904809        5.4978364378  MEMB      88              0.0000000000
     10946        88  PYPG      H13R          -40.6739765056       11.2333107270        5.6023678393  MEMB      88              0.0000000000
     10947        88  PYPG      H13S          -40.4480185603       12.8692005177        6.1073925701  MEMB      88              0.0000000000
     10948        88  PYPG      C214          -40.9613974888       12.5461677987        4.0308592964  MEMB      88              0.0000000000
     10949        88  PYPG      H14R          -41.2380482140       13.6056700690        3.8431348695  MEMB      88              0.0000000000
     10950        88  PYPG      H14S          -39.8830691887       12.4616085674        3.7771302140  MEMB      88              0.0000000000
     10951        88  PYPG      C215          -41.5935701661       11.4557736967        3.1199088976  MEMB      88              0.0000000000
     10952        88  PYPG      H15R          -41.3178775004       11.7742440863        2.0918563971  MEMB      88              0.0000000000
     10953        88  PYPG      H15S          -42.6904140911       11.4466028781        3.2964596977  MEMB      88              0.0000000000
     10954        88  PYPG      C216          -40.9342928785       10.0778783153        3.2331372899  MEMB      88              0.0000000000
     10955        88  PYPG      H16R          -39.8287186110        9.9896971757        3.1679402180  MEMB      88              0.0000000000
     10956        88  PYPG      H16S          -41.4002408935        9.4521618901        2.4421297889  MEMB      88              0.0000000000
     10957        88  PYPG      H16T          -41.1804929245        9.6860448046        4.2431738468  MEMB      88              0.0000000000
     10958        88  PYPG      C33           -42.9939521870       15.0550700212       13.3198392899  MEMB      88              0.0000000000
     10959        88  PYPG      H3X           -43.3964629920       15.7635105404       12.5645792353  MEMB      88              0.0000000000
     10960        88  PYPG      H3Y           -42.5596581677       14.1633023999       12.8193795196  MEMB      88              0.0000000000
     10961        88  PYPG      C34           -42.0083096837       15.9006867908       14.1251699244  MEMB      88              0.0000000000
     10962        88  PYPG      H4X           -41.9274480383       15.3305364392       15.0752811461  MEMB      88              0.0000000000
     10963        88  PYPG      H4Y           -42.4194398677       16.9057799982       14.3598627638  MEMB      88              0.0000000000
     10964        88  PYPG      C35           -40.6066154733       16.0934775044       13.6081673526  MEMB      88              0.0000000000
     10965        88  PYPG      H5X           -40.0817278409       15.1159780256       13.5506474885  MEMB      88              0.0000000000
     10966        88  PYPG      H5Y           -40.0652108348       16.6330013796       14.4144651698  MEMB      88              0.0000000000
     10967        88  PYPG      C36           -40.4852615907       16.7522473901       12.2449130326  MEMB      88              0.0000000000
     10968        88  PYPG      H6X           -41.2428659169       17.5648595311       12.2406465897  MEMB      88              0.0000000000
     10969        88  PYPG      H6Y           -40.9755294836       16.1670154134       11.4377808778  MEMB      88              0.0000000000
     10970        88  PYPG      C37           -39.0210111305       17.1314288090       11.8956931290  MEMB      88              0.0000000000
     10971        88  PYPG      H7X           -39.0965384096       17.9887351324       11.1930960772  MEMB      88              0.0000000000
     10972        88  PYPG      H7Y           -38.6629561491       17.4590932115       12.8950696508  MEMB      88              0.0000000000
     10973        88  PYPG      C38           -38.1174658193       15.9667826526       11.5031201383  MEMB      88              0.0000000000
     10974        88  PYPG      H8X           -38.1784567264       15.3283187389       12.4102943811  MEMB      88              0.0000000000
     10975        88  PYPG      H8Y           -37.1098329491       16.4113436478       11.3569608679  MEMB      88              0.0000000000
     10976        88  PYPG      C39           -38.5310856174       15.1791745600       10.2400452831  MEMB      88              0.0000000000
     10977        88  PYPG      H9X           -38.5147772022       15.8953990847        9.3908821618  MEMB      88              0.0000000000
     10978        88  PYPG      H9Y           -39.6075803095       14.9410578897       10.3770875261  MEMB      88              0.0000000000
     10979        88  PYPG      C310          -37.6528919103       13.9392352486       10.1452414251  MEMB      88              0.0000000000
     10980        88  PYPG      H10X          -37.7675860338       13.4590595032       11.1405296676  MEMB      88              0.0000000000
     10981        88  PYPG      H10Y          -36.6545479069       14.4130957431       10.0308446399  MEMB      88              0.0000000000
     10982        88  PYPG      C311          -37.9506526410       12.9476884554        9.0331630771  MEMB      88              0.0000000000
     10983        88  PYPG      H11X          -38.9315707788       12.4867891510        9.2774834895  MEMB      88              0.0000000000
     10984        88  PYPG      H11Y          -37.3309642413       12.0399362885        9.1953144343  MEMB      88              0.0000000000
     10985        88  PYPG      C312          -37.7976956206       13.5674418283        7.6341045573  MEMB      88              0.0000000000
     10986        88  PYPG      H12X          -38.4567511902       12.9142608439        7.0231043450  MEMB      88              0.0000000000
     10987        88  PYPG      H12Y          -38.1786973782       14.6110644125        7.6308189344  MEMB      88              0.0000000000
     10988        88  PYPG      C313          -36.4268364232       13.3234126561        7.0073242642  MEMB      88              0.0000000000
     10989        88  PYPG      H13X          -35.6060531973       13.8640484923        7.5253482556  MEMB      88              0.0000000000
     10990        88  PYPG      H13Y          -36.1681781307       12.2554475854        6.8434101873  MEMB      88              0.0000000000
     10991        88  PYPG      C314          -36.3565117297       14.0539109475        5.6623969377  MEMB      88              0.0000000000
     10992        88  PYPG      H14X          -36.9876488233       14.9512881896        5.8376146793  MEMB      88              0.0000000000
     10993        88  PYPG      H14Y          -35.3088258476       14.2854161697        5.3741606313  MEMB      88              0.0000000000
     10994        88  PYPG      C315          -36.9756616623       13.1523566494        4.5254602178  MEMB      88              0.0000000000
     10995        88  PYPG      H15X          -36.3400200460       12.3318866888        4.1290901691  MEMB      88              0.0000000000
     10996        88  PYPG      H15Y          -38.0225166749       12.8438120049        4.7333436811  MEMB      88              0.0000000000
     10997        88  PYPG      C316          -37.1773448537       14.1073600225        3.2783241001  MEMB      88              0.0000000000
     10998        88  PYPG      H16X          -36.1578449541       14.5037542947        3.0838710855  MEMB      88              0.0000000000
     10999        88  PYPG      H16Y          -37.9977084571       14.8310206346        3.4723356591  MEMB      88              0.0000000000
     11000        88  PYPG      H16Z          -37.4462819612       13.5843473705        2.3357463899  MEMB      88              0.0000000000
     11001        89  PMPG      C13           -28.9048950057      -30.2163226086       21.4523623844  MEMB      89              0.0000000000
     11002        89  PMPG      H13A          -29.4169695389      -31.2014908185       21.4916596289  MEMB      89              0.0000000000
     11003        89  PMPG      H13B          -28.3616904269      -30.1746685009       22.4206157989  MEMB      89              0.0000000000
     11004        89  PMPG      OC3           -30.0467962783      -29.3772073225       21.5321945211  MEMB      89              0.0000000000
     11005        89  PMPG      HO3           -29.8288212087      -28.4540455812       21.6800434239  MEMB      89              0.0000000000
     11006        89  PMPG      C12           -27.8961928993      -29.9973022187       20.1909615941  MEMB      89              0.0000000000
     11007        89  PMPG      H12A          -26.9563714588      -30.5521325604       20.4182895334  MEMB      89              0.0000000000
     11008        89  PMPG      OC2           -27.5694569902      -28.6133656648       20.0567820481  MEMB      89              0.0000000000
     11009        89  PMPG      HO2           -27.0814659079      -28.5831389146       19.2049206232  MEMB      89              0.0000000000
     11010        89  PMPG      C11           -28.4230287229      -30.5322641039       18.8385097979  MEMB      89              0.0000000000
     11011        89  PMPG      H11A          -27.6861313093      -30.2884716288       18.0436082294  MEMB      89              0.0000000000
     11012        89  PMPG      H11B          -29.2942449846      -29.8539105054       18.7154660229  MEMB      89              0.0000000000
     11013        89  PMPG      P             -28.7856107614      -32.6837779826       17.5559491618  MEMB      89              0.0000000000
     11014        89  PMPG      O13           -30.0327313329      -32.2120931942       16.9427877587  MEMB      89              0.0000000000
     11015        89  PMPG      O14           -28.6234429751      -34.1144826571       17.8055819152  MEMB      89              0.0000000000
     11016        89  PMPG      O11           -27.5855934034      -32.1479773798       16.7108057896  MEMB      89              0.0000000000
     11017        89  PMPG      O12           -28.6994696364      -31.9016158679       18.9140650272  MEMB      89              0.0000000000
     11018        89  PMPG      C1            -26.3103272061      -32.6137799443       17.1006770655  MEMB      89              0.0000000000
     11019        89  PMPG      HA            -26.2657407706      -33.7066046892       17.2957855114  MEMB      89              0.0000000000
     11020        89  PMPG      HB            -25.8657788650      -31.9542244251       17.8763602988  MEMB      89              0.0000000000
     11021        89  PMPG      C2            -25.2813463590      -32.3835843245       15.9613527878  MEMB      89              0.0000000000
     11022        89  PMPG      HS            -24.2223969001      -32.4351067107       16.2934558758  MEMB      89              0.0000000000
     11023        89  PMPG      O21           -25.6172527699      -31.2092189908       15.1820209308  MEMB      89              0.0000000000
     11024        89  PMPG      C21           -25.3127698809      -30.0475493081       15.7086284278  MEMB      89              0.0000000000
     11025        89  PMPG      O22           -24.6363508741      -29.8757806023       16.6921255463  MEMB      89              0.0000000000
     11026        89  PMPG      C22           -25.9288539327      -28.9893678911       14.7162777143  MEMB      89              0.0000000000
     11027        89  PMPG      H2R           -25.3304073754      -29.0142678554       13.7805622447  MEMB      89              0.0000000000
     11028        89  PMPG      H2S           -25.6640399401      -27.9723096733       15.0765377660  MEMB      89              0.0000000000
     11029        89  PMPG      C3            -25.3796410873      -33.6012319478       14.9896203250  MEMB      89              0.0000000000
     11030        89  PMPG      HX            -25.3486586395      -34.5605302792       15.5491807248  MEMB      89              0.0000000000
     11031        89  PMPG      HY            -24.5636672448      -33.5092902217       14.2412526675  MEMB      89              0.0000000000
     11032        89  PMPG      O31           -26.7173133169      -33.6134094990       14.4645626805  MEMB      89              0.0000000000
     11033        89  PMPG      C31           -26.9526344716      -33.4043312243       13.1704591231  MEMB      89              0.0000000000
     11034        89  PMPG      O32           -26.1492545874      -33.2239940554       12.3158518961  MEMB      89              0.0000000000
     11035        89  PMPG      C32           -28.4845778721      -33.3498541697       12.8938307589  MEMB      89              0.0000000000
     11036        89  PMPG      H2X           -28.9722875667      -32.7978136470       13.7255226235  MEMB      89              0.0000000000
     11037        89  PMPG      H2Y           -28.7981258847      -34.4151145452       12.8587758246  MEMB      89              0.0000000000
     11038        89  PMPG      C23           -27.3980040478      -29.4368700030       14.3268237399  MEMB      89              0.0000000000
     11039        89  PMPG      H3R           -27.9756685867      -29.5713310263       15.2662626325  MEMB      89              0.0000000000
     11040        89  PMPG      H3S           -27.3731219528      -30.3820054303       13.7433678025  MEMB      89              0.0000000000
     11041        89  PMPG      C24           -28.2444960104      -28.3859162291       13.5842515384  MEMB      89              0.0000000000
     11042        89  PMPG      H4R           -28.3400113542      -27.3961253598       14.0797430567  MEMB      89              0.0000000000
     11043        89  PMPG      H4S           -29.2145985993      -28.8575401944       13.3181822617  MEMB      89              0.0000000000
     11044        89  PMPG      C25           -27.6725719549      -28.0743535370       12.2205261067  MEMB      89              0.0000000000
     11045        89  PMPG      H5R           -27.5308439001      -29.0874793070       11.7871555909  MEMB      89              0.0000000000
     11046        89  PMPG      H5S           -26.6769748355      -27.6133863737       12.3955019725  MEMB      89              0.0000000000
     11047        89  PMPG      C26           -28.5412749054      -27.1879761649       11.3393082891  MEMB      89              0.0000000000
     11048        89  PMPG      H6R           -28.5791062655      -26.1259772840       11.6634201110  MEMB      89              0.0000000000
     11049        89  PMPG      H6S           -29.5946644555      -27.5173788372       11.4665310141  MEMB      89              0.0000000000
     11050        89  PMPG      C27           -28.0257660441      -27.1932217356        9.9073480976  MEMB      89              0.0000000000
     11051        89  PMPG      H7R           -26.9402971552      -27.0476162200       10.0941038131  MEMB      89              0.0000000000
     11052        89  PMPG      H7S           -28.4231998057      -26.3384513708        9.3193569559  MEMB      89              0.0000000000
     11053        89  PMPG      C28           -28.2897254055      -28.5144417271        9.1127693805  MEMB      89              0.0000000000
     11054        89  PMPG      H8R           -29.3773814185      -28.7145407223        9.0065345430  MEMB      89              0.0000000000
     11055        89  PMPG      H8S           -27.9180513538      -29.3680214688        9.7190541228  MEMB      89              0.0000000000
     11056        89  PMPG      C29           -27.5352895511      -28.4141326000        7.8489445420  MEMB      89              0.0000000000
     11057        89  PMPG      H9R           -26.4273018332      -28.4390153277        7.9268215423  MEMB      89              0.0000000000
     11058        89  PMPG      C217          -28.0912137055      -29.2340459553        6.7843599461  MEMB      89              0.0000000000
     11059        89  PMPG      H17R          -27.3291076004      -29.6280374704        6.1234105033  MEMB      89              0.0000000000
     11060        89  PMPG      H17S          -29.0400774200      -29.6983039510        7.0231301786  MEMB      89              0.0000000000
     11061        89  PMPG      C210          -28.0457212552      -27.6585051073        6.6364923856  MEMB      89              0.0000000000
     11062        89  PMPG      H10R          -27.3726171461      -27.2738082383        5.8407157237  MEMB      89              0.0000000000
     11063        89  PMPG      C211          -29.5003718667      -27.2032654483        6.5933852696  MEMB      89              0.0000000000
     11064        89  PMPG      H11R          -30.1067209528      -27.6477848183        7.4113489446  MEMB      89              0.0000000000
     11065        89  PMPG      H11S          -29.5537612423      -26.0958072836        6.6641448862  MEMB      89              0.0000000000
     11066        89  PMPG      C212          -30.1418938327      -27.4932827122        5.1756695107  MEMB      89              0.0000000000
     11067        89  PMPG      H12R          -31.0960376525      -26.9377008773        5.0521418322  MEMB      89              0.0000000000
     11068        89  PMPG      H12S          -30.3992008622      -28.5679065858        5.0603546508  MEMB      89              0.0000000000
     11069        89  PMPG      C213          -29.1806482592      -27.2412408729        3.9721155469  MEMB      89              0.0000000000
     11070        89  PMPG      H13R          -28.1831312801      -27.6790300427        4.1903387325  MEMB      89              0.0000000000
     11071        89  PMPG      H13S          -29.0019132220      -26.1450228630        3.9460164690  MEMB      89              0.0000000000
     11072        89  PMPG      C214          -29.8899583740      -27.8219481424        2.7648362082  MEMB      89              0.0000000000
     11073        89  PMPG      H14R          -30.8722768499      -27.3112292955        2.6724360629  MEMB      89              0.0000000000
     11074        89  PMPG      H14S          -30.0642968715      -28.9157685160        2.8513475634  MEMB      89              0.0000000000
     11075        89  PMPG      C215          -29.0308855025      -27.7807076761        1.5384095930  MEMB      89              0.0000000000
     11076        89  PMPG      H15R          -28.1533287352      -28.4612978866        1.5702271992  MEMB      89              0.0000000000
     11077        89  PMPG      H15S          -28.5782403499      -26.8058060395        1.2573400220  MEMB      89              0.0000000000
     11078        89  PMPG      C216          -29.7307842763      -28.3468832283        0.2401497587  MEMB      89              0.0000000000
     11079        89  PMPG      H16R          -30.6899819321      -27.8659246968       -0.0478432894  MEMB      89              0.0000000000
     11080        89  PMPG      H16S          -29.9804414431      -29.4109215535        0.4396853425  MEMB      89              0.0000000000
     11081        89  PMPG      H16T          -29.0176931851      -28.2502147878       -0.6063016542  MEMB      89              0.0000000000
     11082        89  PMPG      C33           -28.5807639921      -32.6534360704       11.5719628451  MEMB      89              0.0000000000
     11083        89  PMPG      H3X           -28.1293086032      -33.1935512090       10.7124367117  MEMB      89              0.0000000000
     11084        89  PMPG      H3Y           -28.2383306715      -31.5967744576       11.5949122166  MEMB      89              0.0000000000
     11085        89  PMPG      C34           -30.0478083721      -32.4548825241       11.0566071776  MEMB      89              0.0000000000
     11086        89  PMPG      H4X           -30.6504027116      -31.8569248107       11.7732992337  MEMB      89              0.0000000000
     11087        89  PMPG      H4Y           -30.5780808026      -33.4172093023       10.8921102585  MEMB      89              0.0000000000
     11088        89  PMPG      C35           -30.1779037035      -31.8889565749        9.6133406317  MEMB      89              0.0000000000
     11089        89  PMPG      H5X           -29.4325836765      -32.3815569550        8.9529135181  MEMB      89              0.0000000000
     11090        89  PMPG      H5Y           -29.9447679948      -30.8032176980        9.6471011501  MEMB      89              0.0000000000
     11091        89  PMPG      C36           -31.5404505584      -31.9964232488        8.8799390495  MEMB      89              0.0000000000
     11092        89  PMPG      H6X           -32.1853377876      -31.1887824287        9.2875642486  MEMB      89              0.0000000000
     11093        89  PMPG      H6Y           -32.0957397357      -32.9242825052        9.1349916613  MEMB      89              0.0000000000
     11094        89  PMPG      C37           -31.2912363933      -31.8648697723        7.3792558690  MEMB      89              0.0000000000
     11095        89  PMPG      H7X           -30.6133400044      -31.0375742938        7.0786565512  MEMB      89              0.0000000000
     11096        89  PMPG      H7Y           -32.2429912382      -31.4972437528        6.9395573759  MEMB      89              0.0000000000
     11097        89  PMPG      C38           -30.7726028807      -33.1332099063        6.7205624938  MEMB      89              0.0000000000
     11098        89  PMPG      H8X           -31.5126635522      -33.9497791047        6.8614397668  MEMB      89              0.0000000000
     11099        89  PMPG      H8Y           -29.8237657137      -33.5092691961        7.1594346040  MEMB      89              0.0000000000
     11100        89  PMPG      C39           -30.6398624007      -33.0302077756        5.1783991748  MEMB      89              0.0000000000
     11101        89  PMPG      H9X           -31.6780501767      -32.9166982317        4.7994498962  MEMB      89              0.0000000000
     11102        89  PMPG      H9Y           -30.2540515235      -33.9814669140        4.7534550436  MEMB      89              0.0000000000
     11103        89  PMPG      C310          -29.6255264827      -32.0225705928        4.6258409126  MEMB      89              0.0000000000
     11104        89  PMPG      H10X          -28.7015781309      -32.3922145865        5.1198086204  MEMB      89              0.0000000000
     11105        89  PMPG      H10Y          -29.9818468072      -31.0495926131        5.0266792910  MEMB      89              0.0000000000
     11106        89  PMPG      C311          -29.5803379864      -32.0662617447        3.1272470334  MEMB      89              0.0000000000
     11107        89  PMPG      H11X          -30.4303365367      -31.5050992187        2.6834899176  MEMB      89              0.0000000000
     11108        89  PMPG      H11Y          -29.7045757535      -33.1291155934        2.8285373272  MEMB      89              0.0000000000
     11109        89  PMPG      C312          -28.2807899413      -31.5258116686        2.4544135141  MEMB      89              0.0000000000
     11110        89  PMPG      H12X          -28.0200571970      -30.4847529078        2.7417042940  MEMB      89              0.0000000000
     11111        89  PMPG      H12Y          -28.4405418100      -31.7202492232        1.3722886847  MEMB      89              0.0000000000
     11112        89  PMPG      C313          -27.0328463964      -32.3875951273        2.7994128045  MEMB      89              0.0000000000
     11113        89  PMPG      H13X          -27.3642429448      -33.4219071170        2.5655412367  MEMB      89              0.0000000000
     11114        89  PMPG      H13Y          -26.9523954280      -32.4279241787        3.9067624644  MEMB      89              0.0000000000
     11115        89  PMPG      C314          -25.7972720185      -32.0236047654        2.0816489919  MEMB      89              0.0000000000
     11116        89  PMPG      H14X          -26.0073317101      -32.0252720035        0.9906894892  MEMB      89              0.0000000000
     11117        89  PMPG      H14Y          -25.0148197650      -32.7345351268        2.4232156660  MEMB      89              0.0000000000
     11118        89  PMPG      C315          -25.3552724038      -30.4837938006        2.2773314276  MEMB      89              0.0000000000
     11119        89  PMPG      H15X          -25.4410925744      -30.2897111261        3.3678759314  MEMB      89              0.0000000000
     11120        89  PMPG      H15Y          -25.9634390592      -29.8190724931        1.6272543260  MEMB      89              0.0000000000
     11121        89  PMPG      C316          -23.8878819433      -30.0756261526        1.8161920969  MEMB      89              0.0000000000
     11122        89  PMPG      H16X          -23.1624404210      -30.7081546288        2.3711355274  MEMB      89              0.0000000000
     11123        89  PMPG      H16Y          -23.7419937527      -28.9934989015        2.0212230451  MEMB      89              0.0000000000
     11124        89  PMPG      H16Z          -23.8450027974      -30.2382988965        0.7180025324  MEMB      89              0.0000000000
     11125        90  PMPE      N             -32.7731071180       23.1246091166       18.1792692495  MEMB      90              0.0000000000
     11126        90  PMPE      HN1           -32.5020240920       24.1286024724       18.1687276241  MEMB      90              0.0000000000
     11127        90  PMPE      HN2           -31.9703894791       22.4888158875       17.9975788508  MEMB      90              0.0000000000
     11128        90  PMPE      HN3           -33.5526585889       22.9408765345       17.5158372475  MEMB      90              0.0000000000
     11129        90  PMPE      C12           -33.2059996659       22.8215094324       19.5432391964  MEMB      90              0.0000000000
     11130        90  PMPE      H12A          -32.4705451255       23.2805980871       20.2379800252  MEMB      90              0.0000000000
     11131        90  PMPE      H12B          -33.1402688407       21.7261699600       19.7171121536  MEMB      90              0.0000000000
     11132        90  PMPE      C11           -34.5816098840       23.3538465451       19.9015607310  MEMB      90              0.0000000000
     11133        90  PMPE      H11A          -34.4559312206       24.3455151645       20.3864516893  MEMB      90              0.0000000000
     11134        90  PMPE      H11B          -34.9997726705       22.6658636470       20.6671588207  MEMB      90              0.0000000000
     11135        90  PMPE      P             -36.9483381311       23.8949833922       18.9606270078  MEMB      90              0.0000000000
     11136        90  PMPE      O13           -36.9019781868       25.1378394254       19.7350696842  MEMB      90              0.0000000000
     11137        90  PMPE      O14           -37.6332842204       22.7376147748       19.4530285831  MEMB      90              0.0000000000
     11138        90  PMPE      O11           -37.4771639132       24.2447285818       17.4600787055  MEMB      90              0.0000000000
     11139        90  PMPE      O12           -35.4714124808       23.3756879317       18.7671268447  MEMB      90              0.0000000000
     11140        90  PMPE      C1            -36.8261639411       25.3792874119       16.8939698183  MEMB      90              0.0000000000
     11141        90  PMPE      HA            -35.7547581073       25.4958982798       17.1638076329  MEMB      90              0.0000000000
     11142        90  PMPE      HB            -37.3730839579       26.3326548763       17.0561122799  MEMB      90              0.0000000000
     11143        90  PMPE      C2            -36.7431434494       25.2011016259       15.3262555585  MEMB      90              0.0000000000
     11144        90  PMPE      HS            -37.7438765455       24.9912197204       14.8917398156  MEMB      90              0.0000000000
     11145        90  PMPE      O21           -35.7846713391       24.1257476722       14.8650395509  MEMB      90              0.0000000000
     11146        90  PMPE      C21           -36.2868557293       23.0201800446       14.2586987355  MEMB      90              0.0000000000
     11147        90  PMPE      O22           -37.3513873478       22.9458226038       13.7197062136  MEMB      90              0.0000000000
     11148        90  PMPE      C22           -35.2215047766       21.8346087483       14.2768574749  MEMB      90              0.0000000000
     11149        90  PMPE      H2R           -35.6614107876       20.8435587511       14.0347343022  MEMB      90              0.0000000000
     11150        90  PMPE      H2S           -34.8435735993       21.7981207332       15.3209636936  MEMB      90              0.0000000000
     11151        90  PMPE      C3            -36.2637096283       26.5589127325       14.6329704309  MEMB      90              0.0000000000
     11152        90  PMPE      HX            -35.2436186816       26.6944723850       15.0517292080  MEMB      90              0.0000000000
     11153        90  PMPE      HY            -36.8915036307       27.4508494525       14.8442635731  MEMB      90              0.0000000000
     11154        90  PMPE      O31           -36.0764848191       26.3907175096       13.2204798896  MEMB      90              0.0000000000
     11155        90  PMPE      C31           -37.1574869545       26.3528713747       12.4712879142  MEMB      90              0.0000000000
     11156        90  PMPE      O32           -38.2901026418       26.5666285797       12.8333610964  MEMB      90              0.0000000000
     11157        90  PMPE      C32           -36.7191708057       26.1344832636       10.9817185361  MEMB      90              0.0000000000
     11158        90  PMPE      H2X           -36.3957512512       25.0817781931       10.8349781999  MEMB      90              0.0000000000
     11159        90  PMPE      H2Y           -35.9203726524       26.8829722324       10.7919640631  MEMB      90              0.0000000000
     11160        90  PMPE      C23           -33.9496842941       22.2313159992       13.5241725266  MEMB      90              0.0000000000
     11161        90  PMPE      H3R           -33.0668958017       21.5629337607       13.6151148148  MEMB      90              0.0000000000
     11162        90  PMPE      H3S           -33.6468609643       23.1889445343       13.9991108837  MEMB      90              0.0000000000
     11163        90  PMPE      C24           -34.1296357995       22.3793770285       12.0443230956  MEMB      90              0.0000000000
     11164        90  PMPE      H4R           -33.1864557172       22.6638653087       11.5307100733  MEMB      90              0.0000000000
     11165        90  PMPE      H4S           -34.8856042317       23.1342035335       11.7392499403  MEMB      90              0.0000000000
     11166        90  PMPE      C25           -34.6972696704       21.0571050209       11.4136506674  MEMB      90              0.0000000000
     11167        90  PMPE      H5R           -35.6320443421       20.6979042007       11.8947869373  MEMB      90              0.0000000000
     11168        90  PMPE      H5S           -33.8570823236       20.3332251267       11.4800133053  MEMB      90              0.0000000000
     11169        90  PMPE      C26           -35.0876631432       21.1941746674        9.9500998469  MEMB      90              0.0000000000
     11170        90  PMPE      H6R           -35.9248543494       21.9090345660        9.8004090025  MEMB      90              0.0000000000
     11171        90  PMPE      H6S           -35.3365594403       20.1471250068        9.6743126034  MEMB      90              0.0000000000
     11172        90  PMPE      C27           -34.0605637217       21.7368505314        9.0474980139  MEMB      90              0.0000000000
     11173        90  PMPE      H7R           -33.1400914182       21.1204924846        9.1320825992  MEMB      90              0.0000000000
     11174        90  PMPE      H7S           -33.8535929416       22.8010545681        9.2903007179  MEMB      90              0.0000000000
     11175        90  PMPE      C28           -34.5731832767       21.6568200775        7.5840345280  MEMB      90              0.0000000000
     11176        90  PMPE      H8R           -33.7223457057       21.9930090786        6.9536593608  MEMB      90              0.0000000000
     11177        90  PMPE      H8S           -35.4064353344       22.3533462702        7.3498051713  MEMB      90              0.0000000000
     11178        90  PMPE      C29           -34.9010143136       20.1496042946        7.1591332668  MEMB      90              0.0000000000
     11179        90  PMPE      H9R           -35.8938494053       19.7779346057        7.4914902560  MEMB      90              0.0000000000
     11180        90  PMPE      C217          -33.7600869723       19.1951325442        6.7334662052  MEMB      90              0.0000000000
     11181        90  PMPE      H17R          -33.9593793406       18.2090753953        7.1345423543  MEMB      90              0.0000000000
     11182        90  PMPE      H17S          -32.8635598410       19.7821005405        6.5766316435  MEMB      90              0.0000000000
     11183        90  PMPE      C210          -34.7374976265       19.7078112107        5.7016485378  MEMB      90              0.0000000000
     11184        90  PMPE      H10R          -35.4384435569       18.9376893063        5.3144692221  MEMB      90              0.0000000000
     11185        90  PMPE      C211          -34.2573026534       20.5558101544        4.5604670262  MEMB      90              0.0000000000
     11186        90  PMPE      H11R          -33.5995927036       19.8236143641        4.0450763926  MEMB      90              0.0000000000
     11187        90  PMPE      H11S          -33.5979830619       21.3838941651        4.8979514556  MEMB      90              0.0000000000
     11188        90  PMPE      C212          -35.4615650502       20.8596452021        3.6671095461  MEMB      90              0.0000000000
     11189        90  PMPE      H12R          -36.1098704348       19.9590818713        3.7219427963  MEMB      90              0.0000000000
     11190        90  PMPE      H12S          -35.0468039916       21.0563987274        2.6553865444  MEMB      90              0.0000000000
     11191        90  PMPE      C213          -36.4242647730       21.9943789544        4.1648473716  MEMB      90              0.0000000000
     11192        90  PMPE      H13R          -36.1696887008       22.9102884079        3.5898499900  MEMB      90              0.0000000000
     11193        90  PMPE      H13S          -36.0829628673       22.0432945994        5.2209926387  MEMB      90              0.0000000000
     11194        90  PMPE      C214          -37.9654748584       21.7484574222        3.9793075208  MEMB      90              0.0000000000
     11195        90  PMPE      H14R          -38.5330598897       22.1571210713        4.8425350055  MEMB      90              0.0000000000
     11196        90  PMPE      H14S          -38.0604186019       20.6460119963        4.0789106630  MEMB      90              0.0000000000
     11197        90  PMPE      C215          -38.4901917511       22.1488905305        2.6722806625  MEMB      90              0.0000000000
     11198        90  PMPE      H15R          -39.3979484170       21.5205118086        2.5480294997  MEMB      90              0.0000000000
     11199        90  PMPE      H15S          -37.8330071153       21.8927051897        1.8139122655  MEMB      90              0.0000000000
     11200        90  PMPE      C216          -38.8773217119       23.5808148462        2.5334810677  MEMB      90              0.0000000000
     11201        90  PMPE      H16R          -38.0814911422       24.3423328247        2.6786193806  MEMB      90              0.0000000000
     11202        90  PMPE      H16S          -39.3039477348       23.7484239822        1.5214443554  MEMB      90              0.0000000000
     11203        90  PMPE      H16T          -39.6489592951       23.7435710674        3.3160463841  MEMB      90              0.0000000000
     11204        90  PMPE      C33           -37.9137782272       26.3026779764       10.0180579120  MEMB      90              0.0000000000
     11205        90  PMPE      H3X           -38.2234100189       27.3696238399       10.0093708260  MEMB      90              0.0000000000
     11206        90  PMPE      H3Y           -38.7382424212       25.6785940051       10.4243819534  MEMB      90              0.0000000000
     11207        90  PMPE      C34           -37.7172437407       25.7469559563        8.6015509484  MEMB      90              0.0000000000
     11208        90  PMPE      H4X           -38.4462219289       26.1802503454        7.8837990289  MEMB      90              0.0000000000
     11209        90  PMPE      H4Y           -37.8259016041       24.6416849657        8.5717160820  MEMB      90              0.0000000000
     11210        90  PMPE      C35           -36.3946852692       25.9114027946        7.9217910818  MEMB      90              0.0000000000
     11211        90  PMPE      H5X           -36.2918889930       25.2403989533        7.0422981660  MEMB      90              0.0000000000
     11212        90  PMPE      H5Y           -35.5304767994       25.6130131240        8.5530026851  MEMB      90              0.0000000000
     11213        90  PMPE      C36           -36.2489612298       27.4366471537        7.2963162838  MEMB      90              0.0000000000
     11214        90  PMPE      H6X           -36.4629844578       28.1033841748        8.1588572885  MEMB      90              0.0000000000
     11215        90  PMPE      H6Y           -37.1261583636       27.5010781246        6.6175709980  MEMB      90              0.0000000000
     11216        90  PMPE      C37           -34.8517510008       27.8560374855        6.8051283021  MEMB      90              0.0000000000
     11217        90  PMPE      H7X           -34.2115948449       27.7846490044        7.7103492595  MEMB      90              0.0000000000
     11218        90  PMPE      H7Y           -34.8844153904       28.8832266143        6.3830656628  MEMB      90              0.0000000000
     11219        90  PMPE      C38           -34.2083019215       26.9686747039        5.7603142266  MEMB      90              0.0000000000
     11220        90  PMPE      H8X           -33.8502916466       25.9844401239        6.1310330353  MEMB      90              0.0000000000
     11221        90  PMPE      H8Y           -33.2442558391       27.4591834548        5.5066656061  MEMB      90              0.0000000000
     11222        90  PMPE      C39           -34.8913610839       26.8256086592        4.4023258966  MEMB      90              0.0000000000
     11223        90  PMPE      H9X           -34.9072383992       27.8191825268        3.9054564418  MEMB      90              0.0000000000
     11224        90  PMPE      H9Y           -35.9022481110       26.3739527498        4.4941708432  MEMB      90              0.0000000000
     11225        90  PMPE      C310          -34.1556758042       25.8039862533        3.4586173879  MEMB      90              0.0000000000
     11226        90  PMPE      H10X          -34.6387881507       25.8695080989        2.4603034371  MEMB      90              0.0000000000
     11227        90  PMPE      H10Y          -34.3416677094       24.7972581126        3.8901576269  MEMB      90              0.0000000000
     11228        90  PMPE      C311          -32.7061920242       26.0897995310        3.1304261360  MEMB      90              0.0000000000
     11229        90  PMPE      H11X          -32.0246279239       26.1613273770        4.0048835377  MEMB      90              0.0000000000
     11230        90  PMPE      H11Y          -32.6302364217       26.9607086095        2.4448098116  MEMB      90              0.0000000000
     11231        90  PMPE      C312          -32.1234920514       24.9653643565        2.4269799670  MEMB      90              0.0000000000
     11232        90  PMPE      H12X          -32.4346058798       24.0751658621        3.0144114198  MEMB      90              0.0000000000
     11233        90  PMPE      H12Y          -31.0365266200       25.1801997882        2.5086695775  MEMB      90              0.0000000000
     11234        90  PMPE      C313          -32.4630989322       24.9152867899        0.8692985093  MEMB      90              0.0000000000
     11235        90  PMPE      H13X          -32.2757273361       25.9613682841        0.5453756942  MEMB      90              0.0000000000
     11236        90  PMPE      H13Y          -33.5209261851       24.5972416167        0.7502630423  MEMB      90              0.0000000000
     11237        90  PMPE      C314          -31.6409049116       23.9004807358        0.1010018989  MEMB      90              0.0000000000
     11238        90  PMPE      H14X          -31.8618027437       22.8411407401        0.3526444612  MEMB      90              0.0000000000
     11239        90  PMPE      H14Y          -30.6359917194       24.1507473513        0.5032929037  MEMB      90              0.0000000000
     11240        90  PMPE      C315          -31.6965108576       24.0993737731       -1.4115195959  MEMB      90              0.0000000000
     11241        90  PMPE      H15X          -31.1017378073       25.0314943675       -1.5197616524  MEMB      90              0.0000000000
     11242        90  PMPE      H15Y          -32.7493976803       24.2617506852       -1.7267720574  MEMB      90              0.0000000000
     11243        90  PMPE      C316          -30.9781782031       23.0151657551       -2.2513963496  MEMB      90              0.0000000000
     11244        90  PMPE      H16X          -31.1683898676       21.9881854834       -1.8726451350  MEMB      90              0.0000000000
     11245        90  PMPE      H16Y          -29.9033352296       23.1792371448       -2.4796801148  MEMB      90              0.0000000000
     11246        90  PMPE      H16Z          -31.5245975345       23.1885305213       -3.2030733718  MEMB      90              0.0000000000
     11247        91  OYPE      N              38.5145663684       12.7410946201       16.4594566851  MEMB      91              0.0000000000
     11248        91  OYPE      HN1            38.7050741719       12.5346593841       15.4581115917  MEMB      91              0.0000000000
     11249        91  OYPE      HN2            37.7907550290       12.0492086569       16.7405096848  MEMB      91              0.0000000000
     11250        91  OYPE      HN3            38.2200344310       13.7037154167       16.7206308125  MEMB      91              0.0000000000
     11251        91  OYPE      C12            39.7805448834       12.4289008723       17.3578076344  MEMB      91              0.0000000000
     11252        91  OYPE      H12A           40.5060255865       13.2227859955       17.0789795961  MEMB      91              0.0000000000
     11253        91  OYPE      H12B           40.1063866791       11.4123543562       17.0499419470  MEMB      91              0.0000000000
     11254        91  OYPE      C11            39.4641646066       12.4719715667       18.8721441274  MEMB      91              0.0000000000
     11255        91  OYPE      H11A           39.3461726920       11.4284470278       19.2347120038  MEMB      91              0.0000000000
     11256        91  OYPE      H11B           38.5106401558       13.0236915348       19.0160784459  MEMB      91              0.0000000000
     11257        91  OYPE      P              41.9472306005       12.6122215280       19.9129299614  MEMB      91              0.0000000000
     11258        91  OYPE      O13            41.9569708437       11.9223243414       21.2163779583  MEMB      91              0.0000000000
     11259        91  OYPE      O14            42.9435543745       13.6589439069       19.6573609610  MEMB      91              0.0000000000
     11260        91  OYPE      O11            42.2226601172       11.4281400659       18.8441096362  MEMB      91              0.0000000000
     11261        91  OYPE      O12            40.4357714089       13.0991798988       19.6798130263  MEMB      91              0.0000000000
     11262        91  OYPE      C1             43.5192573449       11.2115177961       18.2745085415  MEMB      91              0.0000000000
     11263        91  OYPE      HA             43.8542740455       10.1721172902       18.4787923196  MEMB      91              0.0000000000
     11264        91  OYPE      HB             44.2068146614       11.9256057307       18.7761700559  MEMB      91              0.0000000000
     11265        91  OYPE      C2             43.7081117348       11.4570754532       16.7655619449  MEMB      91              0.0000000000
     11266        91  OYPE      HS             44.7928717095       11.5206777976       16.5341073301  MEMB      91              0.0000000000
     11267        91  OYPE      O21            42.9574840295       12.7102315383       16.4074786714  MEMB      91              0.0000000000
     11268        91  OYPE      C21            43.1815884192       13.1598659049       15.1271456397  MEMB      91              0.0000000000
     11269        91  OYPE      O22            43.8654638235       12.6106191481       14.3317268440  MEMB      91              0.0000000000
     11270        91  OYPE      C22            42.2843796950       14.4117674446       14.8943275055  MEMB      91              0.0000000000
     11271        91  OYPE      H2R            42.8513710510       15.3580105744       15.0264850755  MEMB      91              0.0000000000
     11272        91  OYPE      H2S            41.5062506821       14.3900200242       15.6870210927  MEMB      91              0.0000000000
     11273        91  OYPE      C3             43.2623312825       10.2562432264       15.9468747456  MEMB      91              0.0000000000
     11274        91  OYPE      HX             43.7038574277        9.3134978669       16.3349557742  MEMB      91              0.0000000000
     11275        91  OYPE      HY             43.6449826105       10.4169255211       14.9163021391  MEMB      91              0.0000000000
     11276        91  OYPE      O31            41.8373716918       10.0825474773       15.7967092494  MEMB      91              0.0000000000
     11277        91  OYPE      C31            41.3449952344        8.9619377308       15.2574429156  MEMB      91              0.0000000000
     11278        91  OYPE      O32            42.0433696983        8.0957692089       14.7955142374  MEMB      91              0.0000000000
     11279        91  OYPE      C32            39.8204484496        8.8928864727       15.3037849852  MEMB      91              0.0000000000
     11280        91  OYPE      H2X            39.3860182806        7.9568595911       14.8921473127  MEMB      91              0.0000000000
     11281        91  OYPE      H2Y            39.4639428998        8.9704337950       16.3531711391  MEMB      91              0.0000000000
     11282        91  OYPE      C23            41.7706783346       14.5129067746       13.5007305158  MEMB      91              0.0000000000
     11283        91  OYPE      H3R            41.1756114227       13.6066090557       13.2581593972  MEMB      91              0.0000000000
     11284        91  OYPE      H3S            42.6388468480       14.5248625814       12.8075769356  MEMB      91              0.0000000000
     11285        91  OYPE      C24            40.9416864525       15.7419057421       13.3966670769  MEMB      91              0.0000000000
     11286        91  OYPE      H4R            41.5544473736       16.5700110724       13.8127038529  MEMB      91              0.0000000000
     11287        91  OYPE      H4S            40.0395808996       15.6879890629       14.0429019232  MEMB      91              0.0000000000
     11288        91  OYPE      C25            40.6415784241       16.2648316996       11.9643500277  MEMB      91              0.0000000000
     11289        91  OYPE      H5R            41.5453957720       16.6104036836       11.4184425532  MEMB      91              0.0000000000
     11290        91  OYPE      H5S            40.0021490906       17.1677801789       12.0650235891  MEMB      91              0.0000000000
     11291        91  OYPE      C26            39.9163893124       15.2628568440       11.0372657247  MEMB      91              0.0000000000
     11292        91  OYPE      H6R            40.4987558111       14.3269860967       11.1762470245  MEMB      91              0.0000000000
     11293        91  OYPE      H6S            39.8877513147       15.6223640044        9.9864302262  MEMB      91              0.0000000000
     11294        91  OYPE      C27            38.3906283278       15.1381481528       11.2656596137  MEMB      91              0.0000000000
     11295        91  OYPE      H7R            37.9035445848       16.1261486357       11.4103168633  MEMB      91              0.0000000000
     11296        91  OYPE      H7S            38.1478586380       14.6413671385       12.2292948195  MEMB      91              0.0000000000
     11297        91  OYPE      C28            37.7339890208       14.1137846830       10.2586133540  MEMB      91              0.0000000000
     11298        91  OYPE      H8R            36.7319325680       13.8259231625       10.6424617931  MEMB      91              0.0000000000
     11299        91  OYPE      H8S            38.1412262722       13.0877887266       10.3843548426  MEMB      91              0.0000000000
     11300        91  OYPE      C29            37.4783611128       14.5240864797        8.8382622663  MEMB      91              0.0000000000
     11301        91  OYPE      H9R            36.7191139221       15.3189538919        8.7966728987  MEMB      91              0.0000000000
     11302        91  OYPE      C210           38.0670082321       13.9022283483        7.7034731830  MEMB      91              0.0000000000
     11303        91  OYPE      H10R           37.7151851895       14.1801804022        6.6990017340  MEMB      91              0.0000000000
     11304        91  OYPE      C211           39.0628744137       12.7561867201        7.6973252278  MEMB      91              0.0000000000
     11305        91  OYPE      H11R           39.3977914071       12.4467299207        8.7104333957  MEMB      91              0.0000000000
     11306        91  OYPE      H11S           40.0103307352       13.0619446333        7.2042132459  MEMB      91              0.0000000000
     11307        91  OYPE      C212           38.5999730920       11.2938923069        7.0375128995  MEMB      91              0.0000000000
     11308        91  OYPE      H12R           37.7091655543       10.9998430112        7.6327585587  MEMB      91              0.0000000000
     11309        91  OYPE      H12S           39.4153321853       10.5636495779        7.2279233972  MEMB      91              0.0000000000
     11310        91  OYPE      C213           38.1733516635       11.3896980153        5.6291345398  MEMB      91              0.0000000000
     11311        91  OYPE      H13R           38.7109333278       12.2720986473        5.2208500203  MEMB      91              0.0000000000
     11312        91  OYPE      H13S           37.0936094969       11.6494957987        5.5977796224  MEMB      91              0.0000000000
     11313        91  OYPE      C214           38.3150074305       10.0321887656        4.8603616785  MEMB      91              0.0000000000
     11314        91  OYPE      H14R           37.9738437761        9.2778488828        5.6012394084  MEMB      91              0.0000000000
     11315        91  OYPE      H14S           39.3966150782        9.7832847141        4.8104355224  MEMB      91              0.0000000000
     11316        91  OYPE      C215           37.5506253011        9.8894056199        3.5813588783  MEMB      91              0.0000000000
     11317        91  OYPE      H15R           36.4585281603        9.8017050513        3.7656235229  MEMB      91              0.0000000000
     11318        91  OYPE      H15S           37.6490956237        8.9286995823        3.0321168850  MEMB      91              0.0000000000
     11319        91  OYPE      C216           37.8206334977       10.9812129587        2.4450583101  MEMB      91              0.0000000000
     11320        91  OYPE      H16R           37.1017630209       11.0362208591        1.5997650585  MEMB      91              0.0000000000
     11321        91  OYPE      H16S           38.8561617679       10.8995663674        2.0509310122  MEMB      91              0.0000000000
     11322        91  OYPE      H16T           37.7658536265       11.9778040433        2.9330405189  MEMB      91              0.0000000000
     11323        91  OYPE      C33            39.2491275960       10.0505171426       14.4965132734  MEMB      91              0.0000000000
     11324        91  OYPE      H3X            39.7857893115       11.0088324614       14.6636864641  MEMB      91              0.0000000000
     11325        91  OYPE      H3Y            38.1820484151       10.1920846009       14.7715072198  MEMB      91              0.0000000000
     11326        91  OYPE      C34            39.2500739629        9.7263782946       13.0252571983  MEMB      91              0.0000000000
     11327        91  OYPE      H4X            39.2776086440        8.6239677994       12.8901497629  MEMB      91              0.0000000000
     11328        91  OYPE      H4Y            38.3679215006       10.1856946371       12.5301243341  MEMB      91              0.0000000000
     11329        91  OYPE      C35            40.6009992555       10.2537761674       12.4947486408  MEMB      91              0.0000000000
     11330        91  OYPE      H5X            41.4507144258        9.7500352577       13.0032273222  MEMB      91              0.0000000000
     11331        91  OYPE      H5Y            40.6556140348       11.3205921085       12.8001046628  MEMB      91              0.0000000000
     11332        91  OYPE      C36            40.7932710044       10.2923566341       10.9760621027  MEMB      91              0.0000000000
     11333        91  OYPE      H6X            40.9864188529        9.2508322526       10.6410360776  MEMB      91              0.0000000000
     11334        91  OYPE      H6Y            39.9201489825       10.7256069562       10.4428892108  MEMB      91              0.0000000000
     11335        91  OYPE      C37            41.9437091274       11.1801379037       10.5586394001  MEMB      91              0.0000000000
     11336        91  OYPE      H7X            41.8711756292       11.3681762592        9.4660724890  MEMB      91              0.0000000000
     11337        91  OYPE      H7Y            41.9783743103       12.1781544295       11.0455504085  MEMB      91              0.0000000000
     11338        91  OYPE      C38            43.2344995076       10.4866454844       10.9443765871  MEMB      91              0.0000000000
     11339        91  OYPE      H8X            43.2833885731       10.6865794999       12.0361442801  MEMB      91              0.0000000000
     11340        91  OYPE      H8Y            43.2021159960        9.3925961575       10.7537769241  MEMB      91              0.0000000000
     11341        91  OYPE      C39            44.4068308007       11.0949730129       10.2809968853  MEMB      91              0.0000000000
     11342        91  OYPE      H9X            44.8349362917       11.9949563582       10.7465677178  MEMB      91              0.0000000000
     11343        91  OYPE      C310           45.0454188081       10.5584002858        9.1720358471  MEMB      91              0.0000000000
     11344        91  OYPE      H10X           45.9109803931       11.1369877884        8.8170142436  MEMB      91              0.0000000000
     11345        91  OYPE      C311           44.5815183171        9.2615599353        8.4302061373  MEMB      91              0.0000000000
     11346        91  OYPE      H11X           45.4867440965        8.6190840750        8.4761657546  MEMB      91              0.0000000000
     11347        91  OYPE      H11Y           43.7070304021        8.6988642956        8.8213134821  MEMB      91              0.0000000000
     11348        91  OYPE      C312           44.2896130173        9.7657532390        7.0057751002  MEMB      91              0.0000000000
     11349        91  OYPE      H12X           44.1469783584        8.8616379328        6.3760517829  MEMB      91              0.0000000000
     11350        91  OYPE      H12Y           45.1902168903       10.2574365622        6.5797687939  MEMB      91              0.0000000000
     11351        91  OYPE      C313           43.1264752940       10.6738897048        6.7924347876  MEMB      91              0.0000000000
     11352        91  OYPE      H13X           42.1771877512       10.3585406834        7.2758895258  MEMB      91              0.0000000000
     11353        91  OYPE      H13Y           43.4875088324       11.6493053600        7.1829977041  MEMB      91              0.0000000000
     11354        91  OYPE      C314           42.8128485189       11.0540244047        5.3244984204  MEMB      91              0.0000000000
     11355        91  OYPE      H14X           41.9205556315       11.7006606237        5.4659067324  MEMB      91              0.0000000000
     11356        91  OYPE      H14Y           42.5509953620       10.1448428957        4.7421383480  MEMB      91              0.0000000000
     11357        91  OYPE      C315           43.7902787628       11.9543669425        4.5358293300  MEMB      91              0.0000000000
     11358        91  OYPE      H15X           44.5787068716       12.1174667003        5.3014014873  MEMB      91              0.0000000000
     11359        91  OYPE      H15Y           43.3452484296       12.9186944635        4.2097289377  MEMB      91              0.0000000000
     11360        91  OYPE      C316           44.3766630107       11.3481015297        3.2894533963  MEMB      91              0.0000000000
     11361        91  OYPE      H16X           44.7910273172       10.3590126645        3.5798435906  MEMB      91              0.0000000000
     11362        91  OYPE      H16Y           45.0623905118       12.0606492149        2.7831193541  MEMB      91              0.0000000000
     11363        91  OYPE      C317           43.2522315055       11.0237889120        2.2499706257  MEMB      91              0.0000000000
     11364        91  OYPE      H17X           42.2682505768       10.7014207632        2.6526881653  MEMB      91              0.0000000000
     11365        91  OYPE      H17Y           43.5359363742       10.1351299150        1.6465504568  MEMB      91              0.0000000000
     11366        91  OYPE      C318           43.1024466724       12.2100442373        1.2741857286  MEMB      91              0.0000000000
     11367        91  OYPE      H18X           44.0799731782       12.3244857945        0.7587581552  MEMB      91              0.0000000000
     11368        91  OYPE      H18Y           42.2981869101       12.1862375017        0.5080785813  MEMB      91              0.0000000000
     11369        91  OYPE      H18Z           42.9038222986       13.1313113007        1.8625196527  MEMB      91              0.0000000000
     11370        92  PYPG      C13            42.6150611032       -4.4109571554       19.1064055889  MEMB      92              0.0000000000
     11371        92  PYPG      H13A           43.0906482472       -4.2825972138       18.1105835155  MEMB      92              0.0000000000
     11372        92  PYPG      H13B           43.4128657457       -4.3552995025       19.8775936570  MEMB      92              0.0000000000
     11373        92  PYPG      OC3            42.1269554822       -5.7645241465       19.3065529657  MEMB      92              0.0000000000
     11374        92  PYPG      HO3            41.7838774872       -5.8266668107       20.2010002962  MEMB      92              0.0000000000
     11375        92  PYPG      C12            41.5027256094       -3.3982771990       19.2646862228  MEMB      92              0.0000000000
     11376        92  PYPG      H12A           41.2741241460       -3.3249247415       20.3533274989  MEMB      92              0.0000000000
     11377        92  PYPG      OC2            40.3248851644       -3.8527256257       18.5966971483  MEMB      92              0.0000000000
     11378        92  PYPG      HO2            39.7281063303       -3.0742337005       18.6469185132  MEMB      92              0.0000000000
     11379        92  PYPG      C11            41.8879472902       -2.0113507982       18.7725696354  MEMB      92              0.0000000000
     11380        92  PYPG      H11A           41.0614855952       -1.2930571950       18.9605493683  MEMB      92              0.0000000000
     11381        92  PYPG      H11B           42.0463996541       -1.9157709756       17.6770888103  MEMB      92              0.0000000000
     11382        92  PYPG      P              43.8288504837       -0.2138283342       19.0638106548  MEMB      92              0.0000000000
     11383        92  PYPG      O13            45.0684459573       -0.0095675061       19.8535823268  MEMB      92              0.0000000000
     11384        92  PYPG      O14            42.9076959415        0.8984583671       18.9708514522  MEMB      92              0.0000000000
     11385        92  PYPG      O11            44.2279781013       -0.6299690340       17.5749916619  MEMB      92              0.0000000000
     11386        92  PYPG      O12            43.0836378649       -1.5771086749       19.4898522977  MEMB      92              0.0000000000
     11387        92  PYPG      C1             45.2786009782       -1.5744875695       17.3460093814  MEMB      92              0.0000000000
     11388        92  PYPG      HA             45.0098672540       -2.2091293165       16.4746120896  MEMB      92              0.0000000000
     11389        92  PYPG      HB             45.3934069726       -2.3191005889       18.1625214602  MEMB      92              0.0000000000
     11390        92  PYPG      C2             46.6674111398       -0.9969395066       17.1474555389  MEMB      92              0.0000000000
     11391        92  PYPG      HS             46.8552132537       -0.2614866303       17.9587266721  MEMB      92              0.0000000000
     11392        92  PYPG      O21            46.6268599676       -0.4884128957       15.7328030837  MEMB      92              0.0000000000
     11393        92  PYPG      C21            47.5590816366        0.4018837368       15.2793527785  MEMB      92              0.0000000000
     11394        92  PYPG      O22            48.1712144813        1.2033624611       15.9641082874  MEMB      92              0.0000000000
     11395        92  PYPG      C22            47.7885601291        0.2111370547       13.7974166445  MEMB      92              0.0000000000
     11396        92  PYPG      H2R            47.1714744338        0.8801779442       13.1603055116  MEMB      92              0.0000000000
     11397        92  PYPG      H2S            47.7409768096       -0.8474998728       13.4637329980  MEMB      92              0.0000000000
     11398        92  PYPG      C3             47.6952306189       -2.1277456227       17.3442065472  MEMB      92              0.0000000000
     11399        92  PYPG      HX             47.5285105111       -2.7200141500       18.2692705010  MEMB      92              0.0000000000
     11400        92  PYPG      HY             48.7181123238       -1.6971821576       17.2927355557  MEMB      92              0.0000000000
     11401        92  PYPG      O31            47.4704008821       -3.1643020715       16.3510679216  MEMB      92              0.0000000000
     11402        92  PYPG      C31            48.3390891987       -3.2496615307       15.3327483143  MEMB      92              0.0000000000
     11403        92  PYPG      O32            49.3595028429       -2.6012952038       15.1107850020  MEMB      92              0.0000000000
     11404        92  PYPG      C32            47.8638311353       -4.2693089241       14.2736438817  MEMB      92              0.0000000000
     11405        92  PYPG      H2X            48.4849604780       -4.0937632280       13.3693746700  MEMB      92              0.0000000000
     11406        92  PYPG      H2Y            48.0514918470       -5.3211566366       14.5781445500  MEMB      92              0.0000000000
     11407        92  PYPG      C23            49.2143244855        0.7166150773       13.4545066837  MEMB      92              0.0000000000
     11408        92  PYPG      H3R            50.0735772469        0.2839427514       14.0102041812  MEMB      92              0.0000000000
     11409        92  PYPG      H3S            49.3363221500        1.7526135882       13.8367947682  MEMB      92              0.0000000000
     11410        92  PYPG      C24            49.5693134079        0.4962843667       12.0033317586  MEMB      92              0.0000000000
     11411        92  PYPG      H4R            50.4201006369        1.1700496185       11.7655879894  MEMB      92              0.0000000000
     11412        92  PYPG      H4S            48.7747595124        0.9732959593       11.3905797272  MEMB      92              0.0000000000
     11413        92  PYPG      C25            49.8663443562       -0.9525530470       11.4970215287  MEMB      92              0.0000000000
     11414        92  PYPG      H5R            49.0166591356       -1.6051958017       11.7909839443  MEMB      92              0.0000000000
     11415        92  PYPG      H5S            50.7555389333       -1.3015429125       12.0643488024  MEMB      92              0.0000000000
     11416        92  PYPG      C26            50.0437089986       -1.1633569491        9.9801923478  MEMB      92              0.0000000000
     11417        92  PYPG      H6R            49.9502255732       -2.2413118842        9.7280117380  MEMB      92              0.0000000000
     11418        92  PYPG      H6S            51.0402952744       -0.7854499314        9.6666286465  MEMB      92              0.0000000000
     11419        92  PYPG      C27            49.0006460734       -0.4748336361        9.1318703401  MEMB      92              0.0000000000
     11420        92  PYPG      H7R            49.0088911794        0.6043073406        9.3958930498  MEMB      92              0.0000000000
     11421        92  PYPG      H7S            47.9729699773       -0.8371047560        9.3485807100  MEMB      92              0.0000000000
     11422        92  PYPG      C28            49.2051647272       -0.7038763964        7.6114486927  MEMB      92              0.0000000000
     11423        92  PYPG      H8R            50.0839796701       -0.0941010090        7.3111495538  MEMB      92              0.0000000000
     11424        92  PYPG      H8S            48.2666477871       -0.2895669599        7.1850043567  MEMB      92              0.0000000000
     11425        92  PYPG      C29            49.3261466631       -2.1656172893        7.2390289616  MEMB      92              0.0000000000
     11426        92  PYPG      H9R            50.3604670974       -2.5186061932        7.1142090088  MEMB      92              0.0000000000
     11427        92  PYPG      C210           48.2851978004       -2.9790259576        6.8746597517  MEMB      92              0.0000000000
     11428        92  PYPG      H10R           48.4401120048       -4.0347793621        6.6074776232  MEMB      92              0.0000000000
     11429        92  PYPG      C211           46.9172725259       -2.5501564601        6.7883706784  MEMB      92              0.0000000000
     11430        92  PYPG      H11R           46.7536362179       -1.5127684145        7.1508212829  MEMB      92              0.0000000000
     11431        92  PYPG      H11S           46.5431557105       -3.2760091637        7.5416936925  MEMB      92              0.0000000000
     11432        92  PYPG      C212           46.2245243600       -2.7408673296        5.4233252786  MEMB      92              0.0000000000
     11433        92  PYPG      H12R           45.1539857555       -2.4956423060        5.5910530861  MEMB      92              0.0000000000
     11434        92  PYPG      H12S           46.4429790936       -3.7520654572        5.0182618490  MEMB      92              0.0000000000
     11435        92  PYPG      C213           46.6055257271       -1.7059850380        4.3585697153  MEMB      92              0.0000000000
     11436        92  PYPG      H13R           47.6885633251       -1.8836092001        4.1859431643  MEMB      92              0.0000000000
     11437        92  PYPG      H13S           46.5717164741       -0.6521717507        4.7087918349  MEMB      92              0.0000000000
     11438        92  PYPG      C214           45.9325149822       -1.8879153484        3.0302825730  MEMB      92              0.0000000000
     11439        92  PYPG      H14R           46.1745214253       -2.8891739094        2.6140662506  MEMB      92              0.0000000000
     11440        92  PYPG      H14S           44.8500764032       -1.9279877267        3.2773490993  MEMB      92              0.0000000000
     11441        92  PYPG      C215           46.2331695716       -0.7718580810        1.9665261102  MEMB      92              0.0000000000
     11442        92  PYPG      H15R           47.2376534107       -1.0608529828        1.5899433748  MEMB      92              0.0000000000
     11443        92  PYPG      H15S           46.4464668901        0.1503816173        2.5481614973  MEMB      92              0.0000000000
     11444        92  PYPG      C216           45.2315038733       -0.5633289249        0.8937323468  MEMB      92              0.0000000000
     11445        92  PYPG      H16R           44.2301842759       -0.2213607396        1.2324620844  MEMB      92              0.0000000000
     11446        92  PYPG      H16S           45.0790704776       -1.5681418050        0.4449164013  MEMB      92              0.0000000000
     11447        92  PYPG      H16T           45.6648703171        0.0150187203        0.0499144829  MEMB      92              0.0000000000
     11448        92  PYPG      C33            46.3818339417       -4.1348133759       13.9021983408  MEMB      92              0.0000000000
     11449        92  PYPG      H3X            45.7086140183       -4.1891102453       14.7843251009  MEMB      92              0.0000000000
     11450        92  PYPG      H3Y            46.0042130100       -5.0014449215       13.3185260073  MEMB      92              0.0000000000
     11451        92  PYPG      C34            46.0377447504       -2.8580507316       13.0228737493  MEMB      92              0.0000000000
     11452        92  PYPG      H4X            46.9115684253       -2.8630736779       12.3367775400  MEMB      92              0.0000000000
     11453        92  PYPG      H4Y            45.9444096985       -2.0355670561       13.7639067701  MEMB      92              0.0000000000
     11454        92  PYPG      C35            44.7746515415       -2.8571303395       12.1276250897  MEMB      92              0.0000000000
     11455        92  PYPG      H5X            43.8357441730       -3.0459814747       12.6907495822  MEMB      92              0.0000000000
     11456        92  PYPG      H5Y            44.7951652473       -3.6973445182       11.4010300005  MEMB      92              0.0000000000
     11457        92  PYPG      C36            44.7908542176       -1.4658365007       11.3519174651  MEMB      92              0.0000000000
     11458        92  PYPG      H6X            45.8232407710       -1.2780418489       10.9869083508  MEMB      92              0.0000000000
     11459        92  PYPG      H6Y            44.4697343846       -0.7304226314       12.1202728594  MEMB      92              0.0000000000
     11460        92  PYPG      C37            43.7934616556       -1.3611556719       10.2474635873  MEMB      92              0.0000000000
     11461        92  PYPG      H7X            44.0781761079       -2.0024317171        9.3860558743  MEMB      92              0.0000000000
     11462        92  PYPG      H7Y            42.7616414357       -1.7116426176       10.4638586575  MEMB      92              0.0000000000
     11463        92  PYPG      C38            43.7202613080        0.0286956959        9.5447394096  MEMB      92              0.0000000000
     11464        92  PYPG      H8X            43.3901137893        0.8368801158       10.2318794917  MEMB      92              0.0000000000
     11465        92  PYPG      H8Y            42.9718991774       -0.1034558983        8.7343008473  MEMB      92              0.0000000000
     11466        92  PYPG      C39            45.0998625451        0.5447233083        9.0327010386  MEMB      92              0.0000000000
     11467        92  PYPG      H9X            45.5432982992       -0.2356977249        8.3780033995  MEMB      92              0.0000000000
     11468        92  PYPG      H9Y            45.6999342425        0.5392076345        9.9676904151  MEMB      92              0.0000000000
     11469        92  PYPG      C310           45.2355613863        1.9154703127        8.3426589072  MEMB      92              0.0000000000
     11470        92  PYPG      H10X           46.3055735202        2.2126603702        8.3754156574  MEMB      92              0.0000000000
     11471        92  PYPG      H10Y           44.6877845706        2.6527532205        8.9676992594  MEMB      92              0.0000000000
     11472        92  PYPG      C311           44.6683360542        2.0001168022        6.8506861818  MEMB      92              0.0000000000
     11473        92  PYPG      H11X           43.5634091390        1.9005203335        6.7912077426  MEMB      92              0.0000000000
     11474        92  PYPG      H11Y           45.2236320423        1.2228562974        6.2833827920  MEMB      92              0.0000000000
     11475        92  PYPG      C312           45.0407718987        3.3352823984        6.2727272482  MEMB      92              0.0000000000
     11476        92  PYPG      H12X           44.6342680012        4.2249372940        6.7995954836  MEMB      92              0.0000000000
     11477        92  PYPG      H12Y           46.1424202409        3.4744046875        6.3092914785  MEMB      92              0.0000000000
     11478        92  PYPG      C313           44.7020015335        3.5234603205        4.7486945422  MEMB      92              0.0000000000
     11479        92  PYPG      H13X           45.2187994924        4.4748772078        4.4996021443  MEMB      92              0.0000000000
     11480        92  PYPG      H13Y           44.9767875128        2.6773127637        4.0832262255  MEMB      92              0.0000000000
     11481        92  PYPG      C314           43.1304768501        3.6380259425        4.6788015689  MEMB      92              0.0000000000
     11482        92  PYPG      H14X           42.6243400611        2.8745321880        5.3074704500  MEMB      92              0.0000000000
     11483        92  PYPG      H14Y           42.8082615451        4.6591408255        4.9751514897  MEMB      92              0.0000000000
     11484        92  PYPG      C315           42.6267910141        3.5199241875        3.2070317521  MEMB      92              0.0000000000
     11485        92  PYPG      H15X           41.5592980404        3.8236853643        3.2571225596  MEMB      92              0.0000000000
     11486        92  PYPG      H15Y           43.2672982086        4.1727799239        2.5762771314  MEMB      92              0.0000000000
     11487        92  PYPG      C316           42.6974491239        2.0350687397        2.6568099475  MEMB      92              0.0000000000
     11488        92  PYPG      H16X           42.1552175394        1.2886624601        3.2758270189  MEMB      92              0.0000000000
     11489        92  PYPG      H16Y           43.7170810688        1.6242543099        2.4958660835  MEMB      92              0.0000000000
     11490        92  PYPG      H16Z           42.0797985151        2.0141878682        1.7335581418  MEMB      92              0.0000000000
     11491        93  PMPE      N             -19.4244402596       38.7169867616       22.0742775877  MEMB      93              0.0000000000
     11492        93  PMPE      HN1           -19.9756406271       39.4740051418       21.6218383701  MEMB      93              0.0000000000
     11493        93  PMPE      HN2           -19.9346885146       37.9146220874       22.4955350157  MEMB      93              0.0000000000
     11494        93  PMPE      HN3           -18.9039528235       39.1840570304       22.8440426339  MEMB      93              0.0000000000
     11495        93  PMPE      C12           -18.4537622168       38.1917050178       21.0449812402  MEMB      93              0.0000000000
     11496        93  PMPE      H12A          -18.3375194484       37.1519975370       21.4189027004  MEMB      93              0.0000000000
     11497        93  PMPE      H12B          -17.4972033207       38.7323765271       21.2092693773  MEMB      93              0.0000000000
     11498        93  PMPE      C11           -18.9516018676       38.5293485771       19.6158417933  MEMB      93              0.0000000000
     11499        93  PMPE      H11A          -18.1195732432       38.2446493150       18.9368751330  MEMB      93              0.0000000000
     11500        93  PMPE      H11B          -19.2751798208       39.5762585768       19.4325445664  MEMB      93              0.0000000000
     11501        93  PMPE      P             -20.7096721720       37.7878147058       17.8104360544  MEMB      93              0.0000000000
     11502        93  PMPE      O13           -21.2283656042       39.1253418288       17.3687334088  MEMB      93              0.0000000000
     11503        93  PMPE      O14           -21.6703931723       36.6880902294       17.6830073373  MEMB      93              0.0000000000
     11504        93  PMPE      O11           -19.4604890722       37.3434089042       17.0265914161  MEMB      93              0.0000000000
     11505        93  PMPE      O12           -20.1884732245       37.8182727774       19.3761311276  MEMB      93              0.0000000000
     11506        93  PMPE      C1            -18.9258666532       36.0136125144       17.2955170084  MEMB      93              0.0000000000
     11507        93  PMPE      HA            -19.7203495053       35.2376546789       17.2637717610  MEMB      93              0.0000000000
     11508        93  PMPE      HB            -18.3882517472       36.0746995383       18.2658569722  MEMB      93              0.0000000000
     11509        93  PMPE      C2            -17.9027105404       35.7185739797       16.2016149168  MEMB      93              0.0000000000
     11510        93  PMPE      HS            -17.1878798029       34.9984150555       16.6540624655  MEMB      93              0.0000000000
     11511        93  PMPE      O21           -17.2175928847       36.8679968270       15.7546987397  MEMB      93              0.0000000000
     11512        93  PMPE      C21           -16.2661958763       37.3158680186       16.5494200622  MEMB      93              0.0000000000
     11513        93  PMPE      O22           -15.7227369566       36.7143207749       17.4590765035  MEMB      93              0.0000000000
     11514        93  PMPE      C22           -15.8910670709       38.7064128463       16.1908812260  MEMB      93              0.0000000000
     11515        93  PMPE      H2R           -14.8387181565       38.7632990437       15.8392471451  MEMB      93              0.0000000000
     11516        93  PMPE      H2S           -16.1574724216       39.3891046021       17.0259148515  MEMB      93              0.0000000000
     11517        93  PMPE      C3            -18.6347629893       35.1740571335       14.9792223759  MEMB      93              0.0000000000
     11518        93  PMPE      HX            -19.2414627559       34.2826472613       15.2468510597  MEMB      93              0.0000000000
     11519        93  PMPE      HY            -17.8487420533       34.7421470991       14.3235198526  MEMB      93              0.0000000000
     11520        93  PMPE      O31           -19.3238809787       36.1435735182       14.2492422917  MEMB      93              0.0000000000
     11521        93  PMPE      C31           -20.5934403711       35.9811533302       14.0727392842  MEMB      93              0.0000000000
     11522        93  PMPE      O32           -21.3101262404       35.1791674326       14.6395807570  MEMB      93              0.0000000000
     11523        93  PMPE      C32           -21.0611284979       37.0587652620       13.0843660710  MEMB      93              0.0000000000
     11524        93  PMPE      H2X           -20.8731847994       36.8019708560       12.0199157410  MEMB      93              0.0000000000
     11525        93  PMPE      H2Y           -20.4173095712       37.9330455120       13.3198486400  MEMB      93              0.0000000000
     11526        93  PMPE      C23           -16.6635639631       39.2871991270       14.9772295141  MEMB      93              0.0000000000
     11527        93  PMPE      H3R           -16.5124059943       40.3864515788       15.0330545216  MEMB      93              0.0000000000
     11528        93  PMPE      H3S           -17.7560438565       39.0911114655       14.9286681835  MEMB      93              0.0000000000
     11529        93  PMPE      C24           -16.0230368780       38.9093013614       13.6019478254  MEMB      93              0.0000000000
     11530        93  PMPE      H4R           -16.1818210090       37.8505786469       13.3049381307  MEMB      93              0.0000000000
     11531        93  PMPE      H4S           -14.9239764592       39.0390453371       13.6996916265  MEMB      93              0.0000000000
     11532        93  PMPE      C25           -16.7132151764       39.7060462201       12.4238471646  MEMB      93              0.0000000000
     11533        93  PMPE      H5R           -16.1517520686       40.6647319349       12.4251977007  MEMB      93              0.0000000000
     11534        93  PMPE      H5S           -17.7793145784       39.9195191295       12.6522818024  MEMB      93              0.0000000000
     11535        93  PMPE      C26           -16.5084708494       39.0814761031       10.9963962484  MEMB      93              0.0000000000
     11536        93  PMPE      H6R           -15.4485358486       39.2691216283       10.7213556462  MEMB      93              0.0000000000
     11537        93  PMPE      H6S           -17.1945084581       39.6708761520       10.3511978565  MEMB      93              0.0000000000
     11538        93  PMPE      C27           -17.1148662040       37.7067956442       10.8583291564  MEMB      93              0.0000000000
     11539        93  PMPE      H7R           -18.2075192571       37.6873839779       11.0584628571  MEMB      93              0.0000000000
     11540        93  PMPE      H7S           -16.6446085499       36.9974268258       11.5724546560  MEMB      93              0.0000000000
     11541        93  PMPE      C28           -16.9043887828       37.1581320322        9.4184956186  MEMB      93              0.0000000000
     11542        93  PMPE      H8R           -17.2837966259       37.9097671813        8.6936401103  MEMB      93              0.0000000000
     11543        93  PMPE      H8S           -17.4431270170       36.1986326297        9.2653848793  MEMB      93              0.0000000000
     11544        93  PMPE      C29           -15.3770746417       36.9171702042        9.2097337422  MEMB      93              0.0000000000
     11545        93  PMPE      H9R           -14.8418682486       36.3757195803       10.0188728872  MEMB      93              0.0000000000
     11546        93  PMPE      C217          -14.5685215699       38.0200347588        8.5065389764  MEMB      93              0.0000000000
     11547        93  PMPE      H17R          -13.5248485219       38.0168977775        8.7957198521  MEMB      93              0.0000000000
     11548        93  PMPE      H17S          -15.1024506202       38.8768659334        8.1145583806  MEMB      93              0.0000000000
     11549        93  PMPE      C210          -14.8762200385       36.7062093641        7.8014337185  MEMB      93              0.0000000000
     11550        93  PMPE      H10R          -14.0177384460       36.0120649910        7.6769571753  MEMB      93              0.0000000000
     11551        93  PMPE      C211          -15.7789546524       36.8039671327        6.5666389121  MEMB      93              0.0000000000
     11552        93  PMPE      H11R          -15.2155599936       37.1788579418        5.6855239516  MEMB      93              0.0000000000
     11553        93  PMPE      H11S          -16.4422825038       37.6824506027        6.7169180344  MEMB      93              0.0000000000
     11554        93  PMPE      C212          -16.5483964165       35.5396135403        6.2453283961  MEMB      93              0.0000000000
     11555        93  PMPE      H12R          -17.1660442375       35.1354949739        7.0757014102  MEMB      93              0.0000000000
     11556        93  PMPE      H12S          -15.8164410446       34.7379547030        6.0088851443  MEMB      93              0.0000000000
     11557        93  PMPE      C213          -17.4539068218       35.6882446899        4.9981417932  MEMB      93              0.0000000000
     11558        93  PMPE      H13R          -18.0773716266       36.6077891625        5.0052558000  MEMB      93              0.0000000000
     11559        93  PMPE      H13S          -18.0945165179       34.7806139598        4.9860301950  MEMB      93              0.0000000000
     11560        93  PMPE      C214          -16.5479365915       35.6264876977        3.7347840845  MEMB      93              0.0000000000
     11561        93  PMPE      H14R          -15.9985170027       34.6608770052        3.7421801913  MEMB      93              0.0000000000
     11562        93  PMPE      H14S          -15.8109428428       36.4578458708        3.7326284959  MEMB      93              0.0000000000
     11563        93  PMPE      C215          -17.3990014859       35.7501668712        2.4560739645  MEMB      93              0.0000000000
     11564        93  PMPE      H15R          -18.3081632141       36.3499540654        2.6751661520  MEMB      93              0.0000000000
     11565        93  PMPE      H15S          -17.6489934483       34.6960404711        2.2098173528  MEMB      93              0.0000000000
     11566        93  PMPE      C216          -16.6992653402       36.2225067989        1.2566457458  MEMB      93              0.0000000000
     11567        93  PMPE      H16R          -16.3853722124       37.2694887591        1.4556951590  MEMB      93              0.0000000000
     11568        93  PMPE      H16S          -15.8460772550       35.5251912890        1.1147192798  MEMB      93              0.0000000000
     11569        93  PMPE      H16T          -17.3051726473       36.2857228784        0.3275597745  MEMB      93              0.0000000000
     11570        93  PMPE      C33           -22.5976626412       37.2239298064       13.2780790146  MEMB      93              0.0000000000
     11571        93  PMPE      H3X           -22.8105602321       37.5405372904       14.3215133365  MEMB      93              0.0000000000
     11572        93  PMPE      H3Y           -23.1213287201       36.2520043737       13.1537585543  MEMB      93              0.0000000000
     11573        93  PMPE      C34           -23.2136789185       38.2390722351       12.2661859359  MEMB      93              0.0000000000
     11574        93  PMPE      H4X           -24.2766728011       38.2631784958       12.5883408125  MEMB      93              0.0000000000
     11575        93  PMPE      H4Y           -23.2789986752       37.8465497074       11.2288909708  MEMB      93              0.0000000000
     11576        93  PMPE      C35           -22.6778851234       39.7480115255       12.2560275469  MEMB      93              0.0000000000
     11577        93  PMPE      H5X           -21.5702450530       39.6650191179       12.2798410612  MEMB      93              0.0000000000
     11578        93  PMPE      H5Y           -23.0674496038       40.1205702153       13.2275008857  MEMB      93              0.0000000000
     11579        93  PMPE      C36           -23.1858070255       40.6551791208       11.0576063937  MEMB      93              0.0000000000
     11580        93  PMPE      H6X           -22.7670766436       41.6842447087       11.0544487653  MEMB      93              0.0000000000
     11581        93  PMPE      H6Y           -24.2887464010       40.7731666971       10.9949573225  MEMB      93              0.0000000000
     11582        93  PMPE      C37           -22.8769584487       40.1110801571        9.6561814965  MEMB      93              0.0000000000
     11583        93  PMPE      H7X           -23.2419924733       40.7879186645        8.8543328887  MEMB      93              0.0000000000
     11584        93  PMPE      H7Y           -23.5004146694       39.2174266086        9.4393709853  MEMB      93              0.0000000000
     11585        93  PMPE      C38           -21.4143390126       39.7405506270        9.3714877364  MEMB      93              0.0000000000
     11586        93  PMPE      H8X           -21.2356071224       38.6852111398        9.6692033330  MEMB      93              0.0000000000
     11587        93  PMPE      H8Y           -20.6595061974       40.1648294396       10.0675732316  MEMB      93              0.0000000000
     11588        93  PMPE      C39           -20.8822599521       39.9480706349        7.9915930392  MEMB      93              0.0000000000
     11589        93  PMPE      H9X           -20.3231871943       40.9073817812        8.0300742726  MEMB      93              0.0000000000
     11590        93  PMPE      H9Y           -21.7600735336       40.1941195942        7.3565933298  MEMB      93              0.0000000000
     11591        93  PMPE      C310          -20.0336924526       38.8279990352        7.3507029146  MEMB      93              0.0000000000
     11592        93  PMPE      H10X          -20.5941220974       37.8716549298        7.4258416968  MEMB      93              0.0000000000
     11593        93  PMPE      H10Y          -19.1345901522       38.7163784366        7.9937248873  MEMB      93              0.0000000000
     11594        93  PMPE      C311          -19.7210400906       39.1816290267        5.8715719463  MEMB      93              0.0000000000
     11595        93  PMPE      H11X          -20.6427862119       39.5983622795        5.4121823310  MEMB      93              0.0000000000
     11596        93  PMPE      H11Y          -19.6508074728       38.1872942810        5.3809731067  MEMB      93              0.0000000000
     11597        93  PMPE      C312          -18.4891061877       39.9714632292        5.5371630434  MEMB      93              0.0000000000
     11598        93  PMPE      H12X          -17.8800102336       39.8314326593        6.4557022595  MEMB      93              0.0000000000
     11599        93  PMPE      H12Y          -18.5939364321       41.0735461643        5.6306767985  MEMB      93              0.0000000000
     11600        93  PMPE      C313          -17.8576847224       39.5918227481        4.1842491645  MEMB      93              0.0000000000
     11601        93  PMPE      H13X          -18.0014454035       38.4948683754        4.0825387219  MEMB      93              0.0000000000
     11602        93  PMPE      H13Y          -16.7957895649       39.8591538804        4.3719559053  MEMB      93              0.0000000000
     11603        93  PMPE      C314          -18.3762089921       40.4975534929        3.0348714336  MEMB      93              0.0000000000
     11604        93  PMPE      H14X          -17.7531528318       41.4151597890        2.9706784130  MEMB      93              0.0000000000
     11605        93  PMPE      H14Y          -19.4192734039       40.8053507295        3.2620245350  MEMB      93              0.0000000000
     11606        93  PMPE      C315          -18.1387355192       39.8427197590        1.6271665855  MEMB      93              0.0000000000
     11607        93  PMPE      H15X          -18.6738765916       38.8813803080        1.4729860865  MEMB      93              0.0000000000
     11608        93  PMPE      H15Y          -17.0785240714       39.5174953879        1.5600711173  MEMB      93              0.0000000000
     11609        93  PMPE      C316          -18.4170260808       40.8376253778        0.4562153795  MEMB      93              0.0000000000
     11610        93  PMPE      H16X          -19.3196623272       41.4315771995        0.7146525631  MEMB      93              0.0000000000
     11611        93  PMPE      H16Y          -18.4711916120       40.3021205583       -0.5157010265  MEMB      93              0.0000000000
     11612        93  PMPE      H16Z          -17.5856217058       41.5640782381        0.3323037444  MEMB      93              0.0000000000
     11613        94  PMPE      N              35.1006417435      -27.6763132942       17.4317111452  MEMB      94              0.0000000000
     11614        94  PMPE      HN1            35.1801360062      -27.9962052061       16.4453289749  MEMB      94              0.0000000000
     11615        94  PMPE      HN2            36.0560335555      -27.7629594580       17.8333564050  MEMB      94              0.0000000000
     11616        94  PMPE      HN3            34.4495956981      -28.3027148008       17.9468423516  MEMB      94              0.0000000000
     11617        94  PMPE      C12            34.6292641716      -26.2245380643       17.5560439896  MEMB      94              0.0000000000
     11618        94  PMPE      H12A           33.7807949151      -26.2744537887       18.2715362779  MEMB      94              0.0000000000
     11619        94  PMPE      H12B           34.2348051050      -25.9993018729       16.5421446347  MEMB      94              0.0000000000
     11620        94  PMPE      C11            35.6851503490      -25.2549911730       18.0318099422  MEMB      94              0.0000000000
     11621        94  PMPE      H11A           35.2607745378      -24.2287516661       17.9992703730  MEMB      94              0.0000000000
     11622        94  PMPE      H11B           36.5592213157      -25.2083595526       17.3475977434  MEMB      94              0.0000000000
     11623        94  PMPE      P              37.4124173590      -26.1662241888       19.8343246861  MEMB      94              0.0000000000
     11624        94  PMPE      O13            37.5272756612      -27.5186861600       19.2226171155  MEMB      94              0.0000000000
     11625        94  PMPE      O14            37.5427396566      -26.0532406107       21.2724845014  MEMB      94              0.0000000000
     11626        94  PMPE      O11            38.6647320108      -25.4147718066       19.2352253096  MEMB      94              0.0000000000
     11627        94  PMPE      O12            36.0398352448      -25.4401981385       19.4157832993  MEMB      94              0.0000000000
     11628        94  PMPE      C1             39.2802646765      -24.3141690202       20.0290886274  MEMB      94              0.0000000000
     11629        94  PMPE      HA             39.9541955471      -24.8022296135       20.7652510445  MEMB      94              0.0000000000
     11630        94  PMPE      HB             38.5442464045      -23.7382509388       20.6298519321  MEMB      94              0.0000000000
     11631        94  PMPE      C2             40.0376376816      -23.2780562324       19.1043851787  MEMB      94              0.0000000000
     11632        94  PMPE      HS             40.3650317970      -22.4997948669       19.8264952014  MEMB      94              0.0000000000
     11633        94  PMPE      O21            39.2647206402      -22.7853756115       17.9862145532  MEMB      94              0.0000000000
     11634        94  PMPE      C21            38.0488848544      -22.1664674179       18.1970739352  MEMB      94              0.0000000000
     11635        94  PMPE      O22            37.7783877087      -21.5875544607       19.2425719897  MEMB      94              0.0000000000
     11636        94  PMPE      C22            37.4315876657      -21.8400315020       16.7831345585  MEMB      94              0.0000000000
     11637        94  PMPE      H2R            37.5974679267      -20.7672906962       16.5464240035  MEMB      94              0.0000000000
     11638        94  PMPE      H2S            36.3276300025      -21.9617205054       16.7550277682  MEMB      94              0.0000000000
     11639        94  PMPE      C3             41.3203308931      -23.9234157483       18.4629033704  MEMB      94              0.0000000000
     11640        94  PMPE      HX             42.0837908688      -24.1232781837       19.2448912854  MEMB      94              0.0000000000
     11641        94  PMPE      HY             41.7819332100      -23.1505460913       17.8118145522  MEMB      94              0.0000000000
     11642        94  PMPE      O31            41.0265320971      -25.0988509716       17.7142075122  MEMB      94              0.0000000000
     11643        94  PMPE      C31            40.8152907418      -25.0102205632       16.4476829295  MEMB      94              0.0000000000
     11644        94  PMPE      O32            40.9370509410      -24.0223301374       15.7465814193  MEMB      94              0.0000000000
     11645        94  PMPE      C32            40.4026464485      -26.4046403959       15.8734238658  MEMB      94              0.0000000000
     11646        94  PMPE      H2X            39.8019136380      -26.8865187207       16.6741948255  MEMB      94              0.0000000000
     11647        94  PMPE      H2Y            41.3800836659      -26.9137842291       15.7330294690  MEMB      94              0.0000000000
     11648        94  PMPE      C23            37.9867648272      -22.6575133541       15.6124086528  MEMB      94              0.0000000000
     11649        94  PMPE      H3R            38.4292900460      -23.5539585259       16.0970514705  MEMB      94              0.0000000000
     11650        94  PMPE      H3S            38.8121750262      -22.1569449094       15.0624534812  MEMB      94              0.0000000000
     11651        94  PMPE      C24            36.9013671575      -23.0846596464       14.5362846555  MEMB      94              0.0000000000
     11652        94  PMPE      H4R            36.2073497497      -22.2175155246       14.5094137084  MEMB      94              0.0000000000
     11653        94  PMPE      H4S            36.2382949374      -23.9386692141       14.7918696475  MEMB      94              0.0000000000
     11654        94  PMPE      C25            37.5658947148      -23.4645251731       13.1889263798  MEMB      94              0.0000000000
     11655        94  PMPE      H5R            37.5238606549      -24.5691957145       13.0782153638  MEMB      94              0.0000000000
     11656        94  PMPE      H5S            38.5925379023      -23.0399258103       13.1952682146  MEMB      94              0.0000000000
     11657        94  PMPE      C26            36.8763598007      -22.8758465194       11.9288076913  MEMB      94              0.0000000000
     11658        94  PMPE      H6R            36.5393388231      -21.8574202556       12.2178508147  MEMB      94              0.0000000000
     11659        94  PMPE      H6S            35.9098778412      -23.3832689628       11.7220322509  MEMB      94              0.0000000000
     11660        94  PMPE      C27            37.6617401756      -23.0836129008       10.6784518398  MEMB      94              0.0000000000
     11661        94  PMPE      H7R            38.1048738697      -24.0991323702       10.7601432766  MEMB      94              0.0000000000
     11662        94  PMPE      H7S            38.4950281106      -22.3665682252       10.5178300449  MEMB      94              0.0000000000
     11663        94  PMPE      C28            36.7847499483      -23.1480258796        9.3939132352  MEMB      94              0.0000000000
     11664        94  PMPE      H8R            36.1891227541      -24.0858687245        9.3944579595  MEMB      94              0.0000000000
     11665        94  PMPE      H8S            37.4311860254      -23.3688179564        8.5177333971  MEMB      94              0.0000000000
     11666        94  PMPE      C29            35.8947070493      -21.9003008132        9.0377825894  MEMB      94              0.0000000000
     11667        94  PMPE      H9R            36.2441573860      -20.8625786622        9.2257675458  MEMB      94              0.0000000000
     11668        94  PMPE      C217           34.4069469121      -22.2882459292        9.4294904228  MEMB      94              0.0000000000
     11669        94  PMPE      H17R           33.8959261589      -21.4412657032        9.8703656447  MEMB      94              0.0000000000
     11670        94  PMPE      H17S           34.0429000882      -23.3079694447        9.4066219819  MEMB      94              0.0000000000
     11671        94  PMPE      C210           34.8183183210      -21.9916592852        7.9471216291  MEMB      94              0.0000000000
     11672        94  PMPE      H10R           34.4489892968      -21.0069853178        7.5888844218  MEMB      94              0.0000000000
     11673        94  PMPE      C211           34.7285183174      -23.2266643934        7.0097627673  MEMB      94              0.0000000000
     11674        94  PMPE      H11R           33.6574797418      -23.4355095674        6.8010021756  MEMB      94              0.0000000000
     11675        94  PMPE      H11S           35.2049024353      -24.1723924198        7.3458832920  MEMB      94              0.0000000000
     11676        94  PMPE      C212           35.4012002307      -22.9656624938        5.6677913467  MEMB      94              0.0000000000
     11677        94  PMPE      H12R           35.5075493931      -23.9707294053        5.2064331367  MEMB      94              0.0000000000
     11678        94  PMPE      H12S           36.3589248629      -22.4436569016        5.8789649404  MEMB      94              0.0000000000
     11679        94  PMPE      C213           34.7645052487      -21.9097345986        4.7052428035  MEMB      94              0.0000000000
     11680        94  PMPE      H13R           34.5190527545      -20.9738500759        5.2513143351  MEMB      94              0.0000000000
     11681        94  PMPE      H13S           33.7654552907      -22.3101910829        4.4298259111  MEMB      94              0.0000000000
     11682        94  PMPE      C214           35.5741596555      -21.6718911885        3.4426305709  MEMB      94              0.0000000000
     11683        94  PMPE      H14R           35.4236098688      -22.5020681675        2.7198158618  MEMB      94              0.0000000000
     11684        94  PMPE      H14S           36.6707327764      -21.7571703817        3.5993967445  MEMB      94              0.0000000000
     11685        94  PMPE      C215           35.3678811614      -20.3617799684        2.7321165922  MEMB      94              0.0000000000
     11686        94  PMPE      H15R           34.3169903283      -20.0488055814        2.5532402075  MEMB      94              0.0000000000
     11687        94  PMPE      H15S           35.8000067836      -20.5621127625        1.7283957142  MEMB      94              0.0000000000
     11688        94  PMPE      C216           36.2175683556      -19.3476819264        3.4192694569  MEMB      94              0.0000000000
     11689        94  PMPE      H16R           36.0577926234      -19.2724445676        4.5161433572  MEMB      94              0.0000000000
     11690        94  PMPE      H16S           37.2937937787      -19.5866217028        3.2815465338  MEMB      94              0.0000000000
     11691        94  PMPE      H16T           36.1674102123      -18.3398054921        2.9545224743  MEMB      94              0.0000000000
     11692        94  PMPE      C33            39.6806094629      -26.2492736990       14.5822944490  MEMB      94              0.0000000000
     11693        94  PMPE      H3X            40.3374399338      -25.8997520136       13.7572310977  MEMB      94              0.0000000000
     11694        94  PMPE      H3Y            38.8200481735      -25.5481480252       14.6289655457  MEMB      94              0.0000000000
     11695        94  PMPE      C34            38.9002646804      -27.5485082660       14.2343910270  MEMB      94              0.0000000000
     11696        94  PMPE      H4X            38.2679648512      -27.6350029158       15.1438067403  MEMB      94              0.0000000000
     11697        94  PMPE      H4Y            39.5640110096      -28.4394389619       14.2323722635  MEMB      94              0.0000000000
     11698        94  PMPE      C35            38.0694856781      -27.5325150049       12.9680970082  MEMB      94              0.0000000000
     11699        94  PMPE      H5X            38.7636623712      -27.3080528965       12.1302087178  MEMB      94              0.0000000000
     11700        94  PMPE      H5Y            37.3836582747      -26.6591124339       13.0017102689  MEMB      94              0.0000000000
     11701        94  PMPE      C36            37.2471936811      -28.8216895514       12.8480876471  MEMB      94              0.0000000000
     11702        94  PMPE      H6X            36.4492805740      -28.7472181325       13.6175745349  MEMB      94              0.0000000000
     11703        94  PMPE      H6Y            37.8642586558      -29.7371345424       12.9726368256  MEMB      94              0.0000000000
     11704        94  PMPE      C37            36.4862456380      -28.9804186193       11.5007088504  MEMB      94              0.0000000000
     11705        94  PMPE      H7X            35.9895167743      -29.9724345599       11.5597448755  MEMB      94              0.0000000000
     11706        94  PMPE      H7Y            37.3020055633      -28.9698267693       10.7465573484  MEMB      94              0.0000000000
     11707        94  PMPE      C38            35.4155560021      -27.9048849018       11.3200466333  MEMB      94              0.0000000000
     11708        94  PMPE      H8X            35.8750956180      -26.9132428877       11.5195220986  MEMB      94              0.0000000000
     11709        94  PMPE      H8Y            34.5660313865      -27.9044421380       12.0360275901  MEMB      94              0.0000000000
     11710        94  PMPE      C39            34.7520269978      -27.9656994378        9.9370437941  MEMB      94              0.0000000000
     11711        94  PMPE      H9X            33.7334159542      -27.5283398650        9.8630902612  MEMB      94              0.0000000000
     11712        94  PMPE      H9Y            34.5134727487      -29.0435558772        9.8119897661  MEMB      94              0.0000000000
     11713        94  PMPE      C310           35.3912586356      -27.2288058582        8.7058453543  MEMB      94              0.0000000000
     11714        94  PMPE      H10X           35.2820259786      -26.1243909066        8.7573879201  MEMB      94              0.0000000000
     11715        94  PMPE      H10Y           34.6060538283      -27.6157741908        8.0217180297  MEMB      94              0.0000000000
     11716        94  PMPE      C311           36.8432595339      -27.5665684790        8.3977799471  MEMB      94              0.0000000000
     11717        94  PMPE      H11X           36.9424022001      -28.6716370345        8.4553601863  MEMB      94              0.0000000000
     11718        94  PMPE      H11Y           37.4499124033      -27.1366657151        9.2232965230  MEMB      94              0.0000000000
     11719        94  PMPE      C312           37.2908970012      -27.1019840957        6.9746171064  MEMB      94              0.0000000000
     11720        94  PMPE      H12X           38.0929922930      -27.7751143527        6.6033221878  MEMB      94              0.0000000000
     11721        94  PMPE      H12Y           37.6271492369      -26.0442003655        6.9261500006  MEMB      94              0.0000000000
     11722        94  PMPE      C313           36.2750537487      -27.2119042296        5.7750027857  MEMB      94              0.0000000000
     11723        94  PMPE      H13X           35.5210263321      -26.3989112990        5.8443309562  MEMB      94              0.0000000000
     11724        94  PMPE      H13Y           35.6475508323      -28.1256758992        5.7002889391  MEMB      94              0.0000000000
     11725        94  PMPE      C314           36.9373646612      -27.0431904769        4.3873550042  MEMB      94              0.0000000000
     11726        94  PMPE      H14X           37.8620144960      -27.6530475108        4.3012267654  MEMB      94              0.0000000000
     11727        94  PMPE      H14Y           37.2821957479      -26.0078740834        4.1787105473  MEMB      94              0.0000000000
     11728        94  PMPE      C315           35.9875194877      -27.2942370550        3.2273350214  MEMB      94              0.0000000000
     11729        94  PMPE      H15X           35.4146839129      -28.2219268914        3.4408119525  MEMB      94              0.0000000000
     11730        94  PMPE      H15Y           36.7488104520      -27.5088028544        2.4471305599  MEMB      94              0.0000000000
     11731        94  PMPE      C316           35.1010814195      -26.0360824210        2.8347616231  MEMB      94              0.0000000000
     11732        94  PMPE      H16X           35.6996204434      -25.1811479614        2.4537650235  MEMB      94              0.0000000000
     11733        94  PMPE      H16Y           34.4893179666      -25.8087553278        3.7338667324  MEMB      94              0.0000000000
     11734        94  PMPE      H16Z           34.5197790519      -26.3152423322        1.9300635748  MEMB      94              0.0000000000
     11735        95  PMPE      N             -42.8203751575        7.5391772700       21.6587665677  MEMB      95              0.0000000000
     11736        95  PMPE      HN1           -41.9069047903        7.6631826708       21.1773159953  MEMB      95              0.0000000000
     11737        95  PMPE      HN2           -42.5527657959        7.6087474507       22.6613356881  MEMB      95              0.0000000000
     11738        95  PMPE      HN3           -43.1950336675        6.5709559357       21.5972973813  MEMB      95              0.0000000000
     11739        95  PMPE      C12           -43.7189053433        8.8018559796       21.3707188371  MEMB      95              0.0000000000
     11740        95  PMPE      H12A          -43.1966918244        9.6652250038       21.8357005164  MEMB      95              0.0000000000
     11741        95  PMPE      H12B          -44.7485694795        8.6485483369       21.7588035745  MEMB      95              0.0000000000
     11742        95  PMPE      C11           -43.8901905283        8.9844922486       19.8590169346  MEMB      95              0.0000000000
     11743        95  PMPE      H11A          -44.5836398664        9.8468636154       19.7602006400  MEMB      95              0.0000000000
     11744        95  PMPE      H11B          -44.4470706012        8.1021594241       19.4773176222  MEMB      95              0.0000000000
     11745        95  PMPE      P             -42.4013337677        9.6014506478       17.7822002689  MEMB      95              0.0000000000
     11746        95  PMPE      O13           -41.5729165490        8.5449104283       17.1573380978  MEMB      95              0.0000000000
     11747        95  PMPE      O14           -41.8518228049       10.9811991002       17.5362931474  MEMB      95              0.0000000000
     11748        95  PMPE      O11           -43.8447075387        9.4434018330       17.2966485479  MEMB      95              0.0000000000
     11749        95  PMPE      O12           -42.5093851269        9.2405868646       19.3390175994  MEMB      95              0.0000000000
     11750        95  PMPE      C1            -44.6148777494       10.5264438212       16.8884622636  MEMB      95              0.0000000000
     11751        95  PMPE      HA            -44.0783445977       11.4950620756       16.7977319221  MEMB      95              0.0000000000
     11752        95  PMPE      HB            -45.5101843651       10.5449515060       17.5460369401  MEMB      95              0.0000000000
     11753        95  PMPE      C2            -45.1893842530       10.1959307397       15.4505582766  MEMB      95              0.0000000000
     11754        95  PMPE      HS            -46.1378249034       10.7375961729       15.2471381930  MEMB      95              0.0000000000
     11755        95  PMPE      O21           -45.4271817217        8.8176972892       15.0952353728  MEMB      95              0.0000000000
     11756        95  PMPE      C21           -46.2185841023        8.1601920101       15.9454099564  MEMB      95              0.0000000000
     11757        95  PMPE      O22           -46.8906015216        8.6522734678       16.7995945804  MEMB      95              0.0000000000
     11758        95  PMPE      C22           -46.0813403737        6.6460468764       15.5778226206  MEMB      95              0.0000000000
     11759        95  PMPE      H2R           -46.7148611988        6.0155918352       16.2377460422  MEMB      95              0.0000000000
     11760        95  PMPE      H2S           -45.0265849109        6.3957190322       15.8210258549  MEMB      95              0.0000000000
     11761        95  PMPE      C3            -44.2017650092       10.6550462867       14.3083268560  MEMB      95              0.0000000000
     11762        95  PMPE      HX            -43.9951206148       11.7388243678       14.4388801686  MEMB      95              0.0000000000
     11763        95  PMPE      HY            -44.7117896214       10.5749728688       13.3245665997  MEMB      95              0.0000000000
     11764        95  PMPE      O31           -43.0530253996        9.8179708536       14.2415000366  MEMB      95              0.0000000000
     11765        95  PMPE      C31           -42.2752722544       10.0495238000       13.1888793637  MEMB      95              0.0000000000
     11766        95  PMPE      O32           -42.5244864117       10.8240138667       12.2756889269  MEMB      95              0.0000000000
     11767        95  PMPE      C32           -40.8847918993        9.3677213358       13.2584212485  MEMB      95              0.0000000000
     11768        95  PMPE      H2X           -40.6210232316        9.0557988242       14.2915964859  MEMB      95              0.0000000000
     11769        95  PMPE      H2Y           -40.0746862348       10.0874177247       13.0132944182  MEMB      95              0.0000000000
     11770        95  PMPE      C23           -46.2794767036        6.4911993571       14.0297650832  MEMB      95              0.0000000000
     11771        95  PMPE      H3R           -47.0332499322        7.2471512740       13.7220581210  MEMB      95              0.0000000000
     11772        95  PMPE      H3S           -46.8714878239        5.5621925220       13.8855753631  MEMB      95              0.0000000000
     11773        95  PMPE      C24           -44.9219869404        6.5257609536       13.2288070752  MEMB      95              0.0000000000
     11774        95  PMPE      H4R           -44.2240166704        5.8415016932       13.7569624054  MEMB      95              0.0000000000
     11775        95  PMPE      H4S           -44.5522163723        7.5709792701       13.3002878974  MEMB      95              0.0000000000
     11776        95  PMPE      C25           -45.0022184105        6.1370246450       11.7808663198  MEMB      95              0.0000000000
     11777        95  PMPE      H5R           -45.4369922647        5.1163909335       11.7208709538  MEMB      95              0.0000000000
     11778        95  PMPE      H5S           -44.0026791889        6.0346403265       11.3067782323  MEMB      95              0.0000000000
     11779        95  PMPE      C26           -45.8767869079        6.9138752390       10.8057358269  MEMB      95              0.0000000000
     11780        95  PMPE      H6R           -45.3009065606        7.8453542953       10.6185737417  MEMB      95              0.0000000000
     11781        95  PMPE      H6S           -46.8063329901        7.1753468603       11.3551878244  MEMB      95              0.0000000000
     11782        95  PMPE      C27           -46.1321945920        6.0870242522        9.5053535933  MEMB      95              0.0000000000
     11783        95  PMPE      H7R           -47.0129260812        6.5581888668        9.0188996817  MEMB      95              0.0000000000
     11784        95  PMPE      H7S           -46.2028801669        4.9997125903        9.7223275625  MEMB      95              0.0000000000
     11785        95  PMPE      C28           -45.0022171886        6.2848372677        8.4685633730  MEMB      95              0.0000000000
     11786        95  PMPE      H8R           -44.0350097309        5.9645354552        8.9115503148  MEMB      95              0.0000000000
     11787        95  PMPE      H8S           -44.9157955987        7.3564879341        8.1885321655  MEMB      95              0.0000000000
     11788        95  PMPE      C29           -45.2929829895        5.5053921311        7.1853405264  MEMB      95              0.0000000000
     11789        95  PMPE      H9R           -46.3286105663        5.3209183763        6.8278972161  MEMB      95              0.0000000000
     11790        95  PMPE      C217          -44.6275218883        4.1274470782        7.2806240550  MEMB      95              0.0000000000
     11791        95  PMPE      H17R          -45.0352195738        3.2926254050        6.7240773080  MEMB      95              0.0000000000
     11792        95  PMPE      H17S          -43.9285776473        3.9979575416        8.0976911719  MEMB      95              0.0000000000
     11793        95  PMPE      C210          -44.1974261304        5.2444602310        6.2783539828  MEMB      95              0.0000000000
     11794        95  PMPE      H10R          -44.4676252328        4.9730248479        5.2354557355  MEMB      95              0.0000000000
     11795        95  PMPE      C211          -42.8305073377        5.8963815864        6.4588836472  MEMB      95              0.0000000000
     11796        95  PMPE      H11R          -42.2030384490        5.3192372296        7.1712798651  MEMB      95              0.0000000000
     11797        95  PMPE      H11S          -42.9808061770        6.9163844342        6.8727988512  MEMB      95              0.0000000000
     11798        95  PMPE      C212          -42.0980654027        6.0069782395        5.1285545875  MEMB      95              0.0000000000
     11799        95  PMPE      H12R          -41.3528775135        6.8283587326        5.0625965409  MEMB      95              0.0000000000
     11800        95  PMPE      H12S          -42.8713315931        6.4138893207        4.4424028776  MEMB      95              0.0000000000
     11801        95  PMPE      C213          -41.3906245083        4.7762874138        4.5656270270  MEMB      95              0.0000000000
     11802        95  PMPE      H13R          -42.0539905577        4.0326348237        4.0744580929  MEMB      95              0.0000000000
     11803        95  PMPE      H13S          -40.9051486312        4.1703156463        5.3602541999  MEMB      95              0.0000000000
     11804        95  PMPE      C214          -40.2901500910        5.0782701277        3.5298054229  MEMB      95              0.0000000000
     11805        95  PMPE      H14R          -40.0546180320        4.0541359822        3.1692571818  MEMB      95              0.0000000000
     11806        95  PMPE      H14S          -39.4899512531        5.6386438864        4.0589398599  MEMB      95              0.0000000000
     11807        95  PMPE      C215          -40.7161848191        5.8634337822        2.2255788976  MEMB      95              0.0000000000
     11808        95  PMPE      H15R          -39.7628428304        5.9915758525        1.6696646325  MEMB      95              0.0000000000
     11809        95  PMPE      H15S          -41.0751371938        6.8791810870        2.4971131230  MEMB      95              0.0000000000
     11810        95  PMPE      C216          -41.7342974850        5.0136359374        1.4159782213  MEMB      95              0.0000000000
     11811        95  PMPE      H16R          -42.2687469141        5.7156565474        0.7408103502  MEMB      95              0.0000000000
     11812        95  PMPE      H16S          -41.1792150801        4.1655042243        0.9611409642  MEMB      95              0.0000000000
     11813        95  PMPE      H16T          -42.4442038091        4.6584226916        2.1932668439  MEMB      95              0.0000000000
     11814        95  PMPE      C33           -40.7205078046        8.1607388961       12.2850388695  MEMB      95              0.0000000000
     11815        95  PMPE      H3X           -41.3556946114        7.3425559108       12.6868290881  MEMB      95              0.0000000000
     11816        95  PMPE      H3Y           -39.6576085455        7.8373905117       12.2815877058  MEMB      95              0.0000000000
     11817        95  PMPE      C34           -41.1479854622        8.3710440115       10.8572689344  MEMB      95              0.0000000000
     11818        95  PMPE      H4X           -42.2300772066        8.4571456098       10.6206564692  MEMB      95              0.0000000000
     11819        95  PMPE      H4Y           -40.8355995803        7.3959420989       10.4260937200  MEMB      95              0.0000000000
     11820        95  PMPE      C35           -40.3195744577        9.5693534474       10.1974932150  MEMB      95              0.0000000000
     11821        95  PMPE      H5X           -39.2875414687        9.1881905353       10.0427543227  MEMB      95              0.0000000000
     11822        95  PMPE      H5Y           -40.2843378673       10.4176785092       10.9140296232  MEMB      95              0.0000000000
     11823        95  PMPE      C36           -40.8687542203        9.8881485815        8.7473773414  MEMB      95              0.0000000000
     11824        95  PMPE      H6X           -41.8062408536       10.4841620106        8.7618043233  MEMB      95              0.0000000000
     11825        95  PMPE      H6Y           -41.0258131957        8.8750576137        8.3192416550  MEMB      95              0.0000000000
     11826        95  PMPE      C37           -39.8711030703       10.5126354512        7.7185740049  MEMB      95              0.0000000000
     11827        95  PMPE      H7X           -39.0783719471        9.7372586910        7.7870531443  MEMB      95              0.0000000000
     11828        95  PMPE      H7Y           -39.5625554234       11.5674000606        7.8816414206  MEMB      95              0.0000000000
     11829        95  PMPE      C38           -40.4156457391       10.5613925899        6.2503043454  MEMB      95              0.0000000000
     11830        95  PMPE      H8X           -40.9042417815        9.5683436697        6.1530966793  MEMB      95              0.0000000000
     11831        95  PMPE      H8Y           -39.5534821143       10.4906798207        5.5531708226  MEMB      95              0.0000000000
     11832        95  PMPE      C39           -41.3441636122       11.7082008812        5.7542535789  MEMB      95              0.0000000000
     11833        95  PMPE      H9X           -40.6427922113       12.4272099506        5.2794639544  MEMB      95              0.0000000000
     11834        95  PMPE      H9Y           -41.8959984100       12.0630257327        6.6508581234  MEMB      95              0.0000000000
     11835        95  PMPE      C310          -42.2381363046       11.2265437480        4.5536643957  MEMB      95              0.0000000000
     11836        95  PMPE      H10X          -41.5621657996       10.5298273333        4.0133214401  MEMB      95              0.0000000000
     11837        95  PMPE      H10Y          -42.5874082806       12.0400113159        3.8823965494  MEMB      95              0.0000000000
     11838        95  PMPE      C311          -43.5579674324       10.5050618268        4.9295772922  MEMB      95              0.0000000000
     11839        95  PMPE      H11X          -44.1593653584       11.2247602049        5.5251243384  MEMB      95              0.0000000000
     11840        95  PMPE      H11Y          -43.2617792489        9.6394813228        5.5599452556  MEMB      95              0.0000000000
     11841        95  PMPE      C312          -44.3876410808        9.9355105533        3.7654359941  MEMB      95              0.0000000000
     11842        95  PMPE      H12X          -43.7656255618        9.3817141819        3.0300947565  MEMB      95              0.0000000000
     11843        95  PMPE      H12Y          -44.7302337223       10.8216365331        3.1894742400  MEMB      95              0.0000000000
     11844        95  PMPE      C313          -45.5304851342        9.0264305979        4.1541807406  MEMB      95              0.0000000000
     11845        95  PMPE      H13X          -46.1898462574        9.5372063698        4.8881237350  MEMB      95              0.0000000000
     11846        95  PMPE      H13Y          -45.0918974198        8.1038702467        4.5910379066  MEMB      95              0.0000000000
     11847        95  PMPE      C314          -46.3061323030        8.7156503797        2.8545380976  MEMB      95              0.0000000000
     11848        95  PMPE      H14X          -47.1194582536        7.9981374415        3.0953637581  MEMB      95              0.0000000000
     11849        95  PMPE      H14Y          -45.5925917309        8.1788496865        2.1934602244  MEMB      95              0.0000000000
     11850        95  PMPE      C315          -46.9544657980        9.8483897813        2.0731991931  MEMB      95              0.0000000000
     11851        95  PMPE      H15X          -47.5975816860        9.3590680186        1.3107778629  MEMB      95              0.0000000000
     11852        95  PMPE      H15Y          -46.1141544466       10.3698741297        1.5669857519  MEMB      95              0.0000000000
     11853        95  PMPE      C316          -47.6957823117       10.9051553227        2.8307824044  MEMB      95              0.0000000000
     11854        95  PMPE      H16X          -48.5520374136       10.3351304070        3.2505684954  MEMB      95              0.0000000000
     11855        95  PMPE      H16Y          -47.9905590496       11.6159081545        2.0293725713  MEMB      95              0.0000000000
     11856        95  PMPE      H16Z          -47.1897095046       11.3453661264        3.7164610723  MEMB      95              0.0000000000
     11857        96  PMPE      N              19.2798454131      -38.9002706527       21.3598084088  MEMB      96              0.0000000000
     11858        96  PMPE      HN1            18.4541977019      -39.1046549993       21.9582504484  MEMB      96              0.0000000000
     11859        96  PMPE      HN2            19.7622072613      -39.7750462523       21.0705079707  MEMB      96              0.0000000000
     11860        96  PMPE      HN3            19.9867150178      -38.4379818559       21.9666232341  MEMB      96              0.0000000000
     11861        96  PMPE      C12            19.0226789298      -38.0272505130       20.1576662015  MEMB      96              0.0000000000
     11862        96  PMPE      H12A           19.9764902018      -37.9803411185       19.5898946273  MEMB      96              0.0000000000
     11863        96  PMPE      H12B           18.7983902106      -37.0019751875       20.5221190290  MEMB      96              0.0000000000
     11864        96  PMPE      C11            17.9861518470      -38.6229432523       19.3046433313  MEMB      96              0.0000000000
     11865        96  PMPE      H11A           17.6954425028      -37.9637191134       18.4589292084  MEMB      96              0.0000000000
     11866        96  PMPE      H11B           17.0504585712      -38.6163191673       19.9036050984  MEMB      96              0.0000000000
     11867        96  PMPE      P              17.3155548812      -40.9405978476       18.2714493297  MEMB      96              0.0000000000
     11868        96  PMPE      O13            15.9306458887      -40.6961374130       18.7905614008  MEMB      96              0.0000000000
     11869        96  PMPE      O14            17.8907615910      -42.2991184668       18.4440707525  MEMB      96              0.0000000000
     11870        96  PMPE      O11            17.3856947535      -40.4725142626       16.7292382096  MEMB      96              0.0000000000
     11871        96  PMPE      O12            18.3384315044      -39.9689931750       18.9425623625  MEMB      96              0.0000000000
     11872        96  PMPE      C1             18.6226473238      -40.2049723189       16.1697168533  MEMB      96              0.0000000000
     11873        96  PMPE      HA             19.5059941003      -40.4308433268       16.8045410726  MEMB      96              0.0000000000
     11874        96  PMPE      HB             18.6267985950      -39.1227745798       15.9184164065  MEMB      96              0.0000000000
     11875        96  PMPE      C2             18.8119110682      -41.0143912810       14.8667496522  MEMB      96              0.0000000000
     11876        96  PMPE      HS             19.6002834648      -40.5606813706       14.2288333450  MEMB      96              0.0000000000
     11877        96  PMPE      O21            17.6012304204      -41.0209956589       14.1189557389  MEMB      96              0.0000000000
     11878        96  PMPE      C21            17.4626365360      -40.9931050903       12.7908582678  MEMB      96              0.0000000000
     11879        96  PMPE      O22            18.3908172694      -41.0744205448       11.9822893096  MEMB      96              0.0000000000
     11880        96  PMPE      C22            15.9474959260      -40.8400215222       12.4077636241  MEMB      96              0.0000000000
     11881        96  PMPE      H2R            15.6298482476      -39.9157412482       12.9360883313  MEMB      96              0.0000000000
     11882        96  PMPE      H2S            15.5024254797      -41.8363009440       12.6167151178  MEMB      96              0.0000000000
     11883        96  PMPE      C3             19.2983642215      -42.4677344068       15.2642329723  MEMB      96              0.0000000000
     11884        96  PMPE      HX             18.4503885170      -42.9610545100       15.7856669314  MEMB      96              0.0000000000
     11885        96  PMPE      HY             20.2292996584      -42.3174929160       15.8516915768  MEMB      96              0.0000000000
     11886        96  PMPE      O31            19.4274692768      -43.2678517327       14.0615033003  MEMB      96              0.0000000000
     11887        96  PMPE      C31            20.6379941989      -43.7290922046       13.7333409919  MEMB      96              0.0000000000
     11888        96  PMPE      O32            21.6734101823      -43.5807332710       14.3398657243  MEMB      96              0.0000000000
     11889        96  PMPE      C32            20.4401000057      -44.4845330674       12.3980507930  MEMB      96              0.0000000000
     11890        96  PMPE      H2X            19.4525857373      -44.4082015653       11.8947518113  MEMB      96              0.0000000000
     11891        96  PMPE      H2Y            20.6002020052      -45.5595631055       12.6282650393  MEMB      96              0.0000000000
     11892        96  PMPE      C23            15.8583701883      -40.4620932993       10.8983262431  MEMB      96              0.0000000000
     11893        96  PMPE      H3R            16.4495084755      -39.5530945139       10.6562570342  MEMB      96              0.0000000000
     11894        96  PMPE      H3S            14.7803316342      -40.2519273463       10.7310418360  MEMB      96              0.0000000000
     11895        96  PMPE      C24            16.2138280204      -41.5213694656        9.8877590352  MEMB      96              0.0000000000
     11896        96  PMPE      H4R            17.3079084137      -41.3854624572        9.7505057862  MEMB      96              0.0000000000
     11897        96  PMPE      H4S            15.7802754280      -41.2234824182        8.9091795959  MEMB      96              0.0000000000
     11898        96  PMPE      C25            15.6659849103      -42.9227311441       10.2286831030  MEMB      96              0.0000000000
     11899        96  PMPE      H5R            14.6370866264      -42.6971383105       10.5819495641  MEMB      96              0.0000000000
     11900        96  PMPE      H5S            16.1589158233      -43.3422352000       11.1316537986  MEMB      96              0.0000000000
     11901        96  PMPE      C26            15.5762348037      -43.9073435811        9.0603342636  MEMB      96              0.0000000000
     11902        96  PMPE      H6R            15.1455301771      -43.3474181282        8.2028387459  MEMB      96              0.0000000000
     11903        96  PMPE      H6S            14.9065022252      -44.7179913498        9.4189840556  MEMB      96              0.0000000000
     11904        96  PMPE      C27            16.7973265393      -44.6678948662        8.6020620864  MEMB      96              0.0000000000
     11905        96  PMPE      H7R            16.8699716128      -45.6148373500        9.1785542335  MEMB      96              0.0000000000
     11906        96  PMPE      H7S            17.6926316631      -44.1503757167        9.0081699832  MEMB      96              0.0000000000
     11907        96  PMPE      C28            16.8756619866      -45.0199960392        7.1160799966  MEMB      96              0.0000000000
     11908        96  PMPE      H8R            16.4210480147      -44.1441189824        6.6057010205  MEMB      96              0.0000000000
     11909        96  PMPE      H8S            16.2370803207      -45.9200357435        6.9877713152  MEMB      96              0.0000000000
     11910        96  PMPE      C29            18.3438625043      -45.2873994584        6.7435383051  MEMB      96              0.0000000000
     11911        96  PMPE      H9R            18.9153373581      -46.0288149831        7.3419034406  MEMB      96              0.0000000000
     11912        96  PMPE      C217           19.2386164493      -44.2301047615        6.0248896610  MEMB      96              0.0000000000
     11913        96  PMPE      H17R           20.3018641629      -44.3983210834        6.1436186006  MEMB      96              0.0000000000
     11914        96  PMPE      H17S           18.7460341914      -43.2728155560        5.9072073428  MEMB      96              0.0000000000
     11915        96  PMPE      C210           18.6475520407      -45.3839252939        5.2361949082  MEMB      96              0.0000000000
     11916        96  PMPE      H10R           19.2751370553      -46.2179571141        4.8556038746  MEMB      96              0.0000000000
     11917        96  PMPE      C211           17.6631740847      -44.9166030997        4.2796349658  MEMB      96              0.0000000000
     11918        96  PMPE      H11R           18.1752973565      -45.0405050951        3.3015246661  MEMB      96              0.0000000000
     11919        96  PMPE      H11S           17.3781243927      -43.8475179963        4.3802550977  MEMB      96              0.0000000000
     11920        96  PMPE      C212           16.3226641652      -45.6871607186        4.0815137229  MEMB      96              0.0000000000
     11921        96  PMPE      H12R           15.6372373831      -45.5046013425        4.9366057555  MEMB      96              0.0000000000
     11922        96  PMPE      H12S           16.5531487568      -46.7739385494        4.0709243828  MEMB      96              0.0000000000
     11923        96  PMPE      C213           15.5028062888      -45.4115683176        2.7754322088  MEMB      96              0.0000000000
     11924        96  PMPE      H13R           14.8857989653      -44.4922252688        2.8672534729  MEMB      96              0.0000000000
     11925        96  PMPE      H13S           14.7510047365      -46.2229078354        2.6712991158  MEMB      96              0.0000000000
     11926        96  PMPE      C214           16.3707668882      -45.4513474300        1.4951949935  MEMB      96              0.0000000000
     11927        96  PMPE      H14R           16.8473972264      -46.4546523886        1.4723121975  MEMB      96              0.0000000000
     11928        96  PMPE      H14S           17.1483113082      -44.6585059000        1.4613189830  MEMB      96              0.0000000000
     11929        96  PMPE      C215           15.6000973173      -44.9372250483        0.2348022023  MEMB      96              0.0000000000
     11930        96  PMPE      H15R           16.3141602485      -45.0897570791       -0.6025577868  MEMB      96              0.0000000000
     11931        96  PMPE      H15S           15.4828383007      -43.8395361336        0.3599008066  MEMB      96              0.0000000000
     11932        96  PMPE      C216           14.2741055450      -45.5869671780        0.0265951827  MEMB      96              0.0000000000
     11933        96  PMPE      H16R           14.3724326133      -46.6721935858       -0.1900499130  MEMB      96              0.0000000000
     11934        96  PMPE      H16S           13.5783493459      -45.4724077260        0.8851538014  MEMB      96              0.0000000000
     11935        96  PMPE      H16T           13.8308424542      -45.0364467426       -0.8305884025  MEMB      96              0.0000000000
     11936        96  PMPE      C33            21.5455622928      -44.1077880623       11.3602221080  MEMB      96              0.0000000000
     11937        96  PMPE      H3X            21.5523877280      -44.8902389769       10.5715234879  MEMB      96              0.0000000000
     11938        96  PMPE      H3Y            22.5061903955      -44.0000676357       11.9078636665  MEMB      96              0.0000000000
     11939        96  PMPE      C34            21.2198826585      -42.7814748962       10.6804069063  MEMB      96              0.0000000000
     11940        96  PMPE      H4X            21.5182958637      -41.9099019867       11.3013985942  MEMB      96              0.0000000000
     11941        96  PMPE      H4Y            20.1228156279      -42.6574406896       10.5563890480  MEMB      96              0.0000000000
     11942        96  PMPE      C35            21.9715569770      -42.6955882984        9.3530982432  MEMB      96              0.0000000000
     11943        96  PMPE      H5X            21.6748383401      -43.6356865157        8.8407559180  MEMB      96              0.0000000000
     11944        96  PMPE      H5Y            23.0815376561      -42.6815005315        9.3985489934  MEMB      96              0.0000000000
     11945        96  PMPE      C36            21.5021877481      -41.4646665482        8.5315526992  MEMB      96              0.0000000000
     11946        96  PMPE      H6X            20.4137412695      -41.3542681831        8.7249886354  MEMB      96              0.0000000000
     11947        96  PMPE      H6Y            21.4212965229      -41.7494518412        7.4607231978  MEMB      96              0.0000000000
     11948        96  PMPE      C37            22.3422197462      -40.1579892571        8.5907362740  MEMB      96              0.0000000000
     11949        96  PMPE      H7X            23.3954862074      -40.2271313378        8.2440811867  MEMB      96              0.0000000000
     11950        96  PMPE      H7Y            22.4221583152      -39.8318703908        9.6497811060  MEMB      96              0.0000000000
     11951        96  PMPE      C38            21.7486369009      -39.0760727866        7.7118389478  MEMB      96              0.0000000000
     11952        96  PMPE      H8X            22.1568841538      -38.1136669637        8.0879116058  MEMB      96              0.0000000000
     11953        96  PMPE      H8Y            20.6380076183      -39.0495893296        7.7229013551  MEMB      96              0.0000000000
     11954        96  PMPE      C39            22.3744028085      -39.1019710068        6.3015294359  MEMB      96              0.0000000000
     11955        96  PMPE      H9X            23.4815128174      -39.0231774747        6.3507249959  MEMB      96              0.0000000000
     11956        96  PMPE      H9Y            22.0202797412      -38.3154580183        5.6013043051  MEMB      96              0.0000000000
     11957        96  PMPE      C310           22.1849281470      -40.3369329137        5.3887303337  MEMB      96              0.0000000000
     11958        96  PMPE      H10X           22.5890746412      -41.2313416227        5.9093258016  MEMB      96              0.0000000000
     11959        96  PMPE      H10Y           22.8918895799      -40.2972078307        4.5326057442  MEMB      96              0.0000000000
     11960        96  PMPE      C311           20.7373321502      -40.4762447862        4.8455452381  MEMB      96              0.0000000000
     11961        96  PMPE      H11X           20.1172702197      -40.8701543867        5.6790192420  MEMB      96              0.0000000000
     11962        96  PMPE      H11Y           20.7873662306      -41.4274110520        4.2736187070  MEMB      96              0.0000000000
     11963        96  PMPE      C312           20.3015160830      -39.3692365430        3.9779231852  MEMB      96              0.0000000000
     11964        96  PMPE      H12X           21.0753411558      -39.1864476105        3.2019690829  MEMB      96              0.0000000000
     11965        96  PMPE      H12Y           20.2342939240      -38.4237695044        4.5574867220  MEMB      96              0.0000000000
     11966        96  PMPE      C313           18.9835984301      -39.4958200901        3.2560839335  MEMB      96              0.0000000000
     11967        96  PMPE      H13X           18.7435699941      -38.5257761511        2.7705718531  MEMB      96              0.0000000000
     11968        96  PMPE      H13Y           18.1308341583      -39.7420443614        3.9242804481  MEMB      96              0.0000000000
     11969        96  PMPE      C314           19.1065990081      -40.5476758880        2.1720925502  MEMB      96              0.0000000000
     11970        96  PMPE      H14X           19.4659586197      -41.5027017913        2.6115316770  MEMB      96              0.0000000000
     11971        96  PMPE      H14Y           19.8258350376      -40.2228398316        1.3901068777  MEMB      96              0.0000000000
     11972        96  PMPE      C315           17.7238504719      -40.6124618999        1.3880766530  MEMB      96              0.0000000000
     11973        96  PMPE      H15X           17.8179062263      -41.0415618271        0.3676114081  MEMB      96              0.0000000000
     11974        96  PMPE      H15Y           17.3577597398      -39.5880939286        1.1623142292  MEMB      96              0.0000000000
     11975        96  PMPE      C316           16.5114761681      -41.1617535639        2.1836926505  MEMB      96              0.0000000000
     11976        96  PMPE      H16X           16.8864988216      -41.9941698492        2.8167506227  MEMB      96              0.0000000000
     11977        96  PMPE      H16Y           15.7932702898      -41.6661902648        1.5024855065  MEMB      96              0.0000000000
     11978        96  PMPE      H16Z           16.0398691649      -40.4095506219        2.8515994968  MEMB      96              0.0000000000
     11979        97  QMPE      N              20.2002969395       35.6660696551       18.1674834394  MEMB      97              0.0000000000
     11980        97  QMPE      HN1            19.8204885734       36.2689038187       18.9250694426  MEMB      97              0.0000000000
     11981        97  QMPE      HN2            19.5548760519       35.0167358357       17.6741300460  MEMB      97              0.0000000000
     11982        97  QMPE      HN3            21.0112696195       35.1795816647       18.6002105818  MEMB      97              0.0000000000
     11983        97  QMPE      C12            20.8123907234       36.6960955673       17.2628665679  MEMB      97              0.0000000000
     11984        97  QMPE      H12A           20.0438510374       37.0724387895       16.5543234576  MEMB      97              0.0000000000
     11985        97  QMPE      H12B           21.5806144582       36.1291301526       16.6947964586  MEMB      97              0.0000000000
     11986        97  QMPE      C11            21.2993335122       37.8921453518       18.0812234356  MEMB      97              0.0000000000
     11987        97  QMPE      H11A           20.4156344252       38.2393922348       18.6581258179  MEMB      97              0.0000000000
     11988        97  QMPE      H11B           21.5850238782       38.6004175151       17.2743452357  MEMB      97              0.0000000000
     11989        97  QMPE      P              23.0208798431       38.6499153964       19.7915769566  MEMB      97              0.0000000000
     11990        97  QMPE      O13            24.0405408178       38.0146921820       20.6806989052  MEMB      97              0.0000000000
     11991        97  QMPE      O14            22.0197104646       39.5517849345       20.4153478665  MEMB      97              0.0000000000
     11992        97  QMPE      O11            23.6552929770       39.3944693118       18.5810819093  MEMB      97              0.0000000000
     11993        97  QMPE      O12            22.2480731234       37.4358420089       19.0197209518  MEMB      97              0.0000000000
     11994        97  QMPE      C1             24.7918679158       39.1264962288       17.7351781166  MEMB      97              0.0000000000
     11995        97  QMPE      HA             24.4466284925       38.4269861528       16.9440925234  MEMB      97              0.0000000000
     11996        97  QMPE      HB             25.6157532879       38.5760804116       18.2377476014  MEMB      97              0.0000000000
     11997        97  QMPE      C2             25.2825352548       40.4977902344       17.1917493304  MEMB      97              0.0000000000
     11998        97  QMPE      HS             25.8803381607       40.9416970196       18.0163093986  MEMB      97              0.0000000000
     11999        97  QMPE      O21            24.1310638631       41.3405872539       17.0023783387  MEMB      97              0.0000000000
     12000        97  QMPE      C21            24.3333890921       42.6312620445       16.9181742047  MEMB      97              0.0000000000
     12001        97  QMPE      O22            25.3983225475       43.2081354180       16.9770217008  MEMB      97              0.0000000000
     12002        97  QMPE      C22            22.9594099251       43.2614595605       16.6404352201  MEMB      97              0.0000000000
     12003        97  QMPE      H2R            22.6631074946       43.9564489055       17.4549998390  MEMB      97              0.0000000000
     12004        97  QMPE      H2S            22.2877083594       42.4108192405       16.3964085372  MEMB      97              0.0000000000
     12005        97  QMPE      C3             26.1341943455       40.4278941448       15.8741229733  MEMB      97              0.0000000000
     12006        97  QMPE      HX             26.8655688314       39.6506886487       16.1829334724  MEMB      97              0.0000000000
     12007        97  QMPE      HY             26.6685123640       41.3737258803       15.6412545702  MEMB      97              0.0000000000
     12008        97  QMPE      O31            25.2763997755       39.9055465250       14.8570812942  MEMB      97              0.0000000000
     12009        97  QMPE      C31            24.6690400319       40.7477659307       14.0260665843  MEMB      97              0.0000000000
     12010        97  QMPE      O32            24.8977970456       41.8991361788       13.8968244791  MEMB      97              0.0000000000
     12011        97  QMPE      C32            23.6167350606       40.0496694941       13.1419125868  MEMB      97              0.0000000000
     12012        97  QMPE      H2X            22.7199491013       40.7054781965       13.1451966996  MEMB      97              0.0000000000
     12013        97  QMPE      H2Y            24.0690187482       40.1552750361       12.1326514336  MEMB      97              0.0000000000
     12014        97  QMPE      C23            22.9890372140       44.1574278368       15.3182235220  MEMB      97              0.0000000000
     12015        97  QMPE      H3R            23.6019467991       43.5183596298       14.6472129531  MEMB      97              0.0000000000
     12016        97  QMPE      H3S            23.4746098698       45.1051590378       15.6349969893  MEMB      97              0.0000000000
     12017        97  QMPE      C24            21.6762846442       44.4325197549       14.6879609662  MEMB      97              0.0000000000
     12018        97  QMPE      H4R            20.9293281625       44.8325620952       15.4065308738  MEMB      97              0.0000000000
     12019        97  QMPE      H4S            21.2235547746       43.5662271642       14.1598567049  MEMB      97              0.0000000000
     12020        97  QMPE      C25            21.7772660867       45.5449701247       13.6385994346  MEMB      97              0.0000000000
     12021        97  QMPE      H5R            22.1275508095       46.4265922169       14.2168415862  MEMB      97              0.0000000000
     12022        97  QMPE      H5S            20.7066779296       45.7469981422       13.4210075824  MEMB      97              0.0000000000
     12023        97  QMPE      C26            22.5780386641       45.2447654997       12.3294084292  MEMB      97              0.0000000000
     12024        97  QMPE      H6R            23.6582359178       45.2965516148       12.5839925929  MEMB      97              0.0000000000
     12025        97  QMPE      H6S            22.3311645211       46.0142266164       11.5669747622  MEMB      97              0.0000000000
     12026        97  QMPE      C27            22.2267926016       44.0337357971       11.5527818646  MEMB      97              0.0000000000
     12027        97  QMPE      H7R            21.2399478735       44.1350500686       11.0525876159  MEMB      97              0.0000000000
     12028        97  QMPE      H7S            22.1441253758       43.2096424296       12.2932931687  MEMB      97              0.0000000000
     12029        97  QMPE      C28            23.3177478433       43.6151775520       10.6090761400  MEMB      97              0.0000000000
     12030        97  QMPE      H8R            22.9688308631       42.6637219010       10.1537631670  MEMB      97              0.0000000000
     12031        97  QMPE      H8S            24.2240226050       43.5010098234       11.2414943403  MEMB      97              0.0000000000
     12032        97  QMPE      C29            23.6686700655       44.6451052398        9.5293725676  MEMB      97              0.0000000000
     12033        97  QMPE      H9R            23.8859943882       45.7072620168        9.7720946447  MEMB      97              0.0000000000
     12034        97  QMPE      C217           22.8015022538       44.4981749118        8.2498335409  MEMB      97              0.0000000000
     12035        97  QMPE      H17R           22.2889206758       43.5471909160        8.1738151420  MEMB      97              0.0000000000
     12036        97  QMPE      H17S           22.4610109886       45.4553046589        7.8745229044  MEMB      97              0.0000000000
     12037        97  QMPE      C210           24.3524239244       44.2548676597        8.2411602617  MEMB      97              0.0000000000
     12038        97  QMPE      H10R           24.8081051416       45.1220730029        7.7171088692  MEMB      97              0.0000000000
     12039        97  QMPE      C211           24.7736304310       42.8316181281        8.0146266832  MEMB      97              0.0000000000
     12040        97  QMPE      H11R           25.6766491897       42.6083248269        8.6220956026  MEMB      97              0.0000000000
     12041        97  QMPE      H11S           23.9090412002       42.1524843242        8.1745757734  MEMB      97              0.0000000000
     12042        97  QMPE      C212           25.1107445448       42.5681687172        6.4728758333  MEMB      97              0.0000000000
     12043        97  QMPE      H12R           24.4246798755       43.2381336273        5.9118198629  MEMB      97              0.0000000000
     12044        97  QMPE      H12S           25.0397713144       41.4837203583        6.2421041637  MEMB      97              0.0000000000
     12045        97  QMPE      C213           26.5336438485       43.1772532298        6.1118259314  MEMB      97              0.0000000000
     12046        97  QMPE      H13R           27.2908757816       42.4067389332        6.3711096407  MEMB      97              0.0000000000
     12047        97  QMPE      H13S           26.7142501736       44.1261342850        6.6607587934  MEMB      97              0.0000000000
     12048        97  QMPE      C214           26.6194824606       43.5196888492        4.6250617607  MEMB      97              0.0000000000
     12049        97  QMPE      H14R           26.0864474063       42.7767810425        3.9939657165  MEMB      97              0.0000000000
     12050        97  QMPE      H14S           27.6937807479       43.4642343643        4.3473406215  MEMB      97              0.0000000000
     12051        97  QMPE      C215           26.1820412418       45.0557323962        4.5230792600  MEMB      97              0.0000000000
     12052        97  QMPE      H15R           26.8446527166       45.6673609860        5.1720610179  MEMB      97              0.0000000000
     12053        97  QMPE      H15S           25.1246116933       44.9702763601        4.8530210305  MEMB      97              0.0000000000
     12054        97  QMPE      C216           26.2343749150       45.6638008095        3.0778669938  MEMB      97              0.0000000000
     12055        97  QMPE      H16R           25.7363269833       46.6569006838        3.0825477674  MEMB      97              0.0000000000
     12056        97  QMPE      H16S           25.6665523007       44.9278874596        2.4693191905  MEMB      97              0.0000000000
     12057        97  QMPE      H16T           27.2595545543       45.7106150564        2.6522656538  MEMB      97              0.0000000000
     12058        97  QMPE      C33            23.2674208169       38.5494854860       13.4353730361  MEMB      97              0.0000000000
     12059        97  QMPE      H3X            23.1176076974       38.4449926446       14.5312552774  MEMB      97              0.0000000000
     12060        97  QMPE      H3Y            24.1560980647       37.9448622400       13.1542959734  MEMB      97              0.0000000000
     12061        97  QMPE      C34            22.0215477518       38.1127622619       12.5980289353  MEMB      97              0.0000000000
     12062        97  QMPE      H4X            21.7882190998       37.0496410762       12.8208555326  MEMB      97              0.0000000000
     12063        97  QMPE      H4Y            22.3989015246       38.0666791318       11.5540933133  MEMB      97              0.0000000000
     12064        97  QMPE      C35            20.6789303485       38.8214923681       12.8068400203  MEMB      97              0.0000000000
     12065        97  QMPE      H5X            20.8150602088       39.2122778713       13.8378960824  MEMB      97              0.0000000000
     12066        97  QMPE      H5Y            19.9321615239       38.0268111117       13.0192993046  MEMB      97              0.0000000000
     12067        97  QMPE      C36            20.2393948985       40.0053870624       11.9183151279  MEMB      97              0.0000000000
     12068        97  QMPE      H6X            21.1258487470       40.5659074086       11.5517944872  MEMB      97              0.0000000000
     12069        97  QMPE      H6Y            19.5653999190       40.7044010102       12.4581587327  MEMB      97              0.0000000000
     12070        97  QMPE      C37            19.5287640747       39.5632028432       10.6161619383  MEMB      97              0.0000000000
     12071        97  QMPE      H7X            18.8815950421       38.7807475828       11.0670029930  MEMB      97              0.0000000000
     12072        97  QMPE      H7Y            18.9203195837       40.3629331199       10.1422979849  MEMB      97              0.0000000000
     12073        97  QMPE      C38            20.2773701369       38.8476415646        9.5627844053  MEMB      97              0.0000000000
     12074        97  QMPE      H8X            20.7479116208       38.0368163911       10.1590016100  MEMB      97              0.0000000000
     12075        97  QMPE      H8Y            19.5544900944       38.3900375650        8.8540080568  MEMB      97              0.0000000000
     12076        97  QMPE      C39            21.3963770340       39.6292240327        8.9023593784  MEMB      97              0.0000000000
     12077        97  QMPE      H9X            22.1386699688       39.9430759858        9.6670939668  MEMB      97              0.0000000000
     12078        97  QMPE      H9Y            21.1059213368       40.6001183638        8.4470346205  MEMB      97              0.0000000000
     12079        97  QMPE      C310           22.2543230165       38.7747300338        7.8528318200  MEMB      97              0.0000000000
     12080        97  QMPE      H10X           22.6220832653       37.8537299352        8.3536642845  MEMB      97              0.0000000000
     12081        97  QMPE      H10Y           23.0921009574       39.3867580380        7.4555018703  MEMB      97              0.0000000000
     12082        97  QMPE      C311           21.4411146770       38.4303644084        6.5472532511  MEMB      97              0.0000000000
     12083        97  QMPE      H11X           20.7362759598       37.6010094905        6.7701745820  MEMB      97              0.0000000000
     12084        97  QMPE      H11Y           22.0676808233       38.0949462841        5.6933036878  MEMB      97              0.0000000000
     12085        97  QMPE      C312           20.5283854498       39.5425502467        6.0005505711  MEMB      97              0.0000000000
     12086        97  QMPE      H12X           19.8373739710       39.8854854807        6.8000628174  MEMB      97              0.0000000000
     12087        97  QMPE      H12Y           19.9614180904       39.1424621961        5.1329102192  MEMB      97              0.0000000000
     12088        97  QMPE      C313           21.3677746541       40.7681646111        5.5569591731  MEMB      97              0.0000000000
     12089        97  QMPE      H13X           22.0454843957       41.1717180998        6.3393754693  MEMB      97              0.0000000000
     12090        97  QMPE      H13Y           22.0601841825       40.3307147820        4.8062745429  MEMB      97              0.0000000000
     12091        97  QMPE      C314           20.5903475239       41.9034594041        4.9048938766  MEMB      97              0.0000000000
     12092        97  QMPE      H14X           20.9892436003       42.8984947809        5.1966260200  MEMB      97              0.0000000000
     12093        97  QMPE      H14Y           19.5380167221       41.7824286312        5.2399646637  MEMB      97              0.0000000000
     12094        97  QMPE      C315           20.5328253476       41.8095872652        3.3955692339  MEMB      97              0.0000000000
     12095        97  QMPE      H15X           19.8663498564       40.9565302402        3.1457188839  MEMB      97              0.0000000000
     12096        97  QMPE      H15Y           20.2000227928       42.7473658821        2.9014702191  MEMB      97              0.0000000000
     12097        97  QMPE      H15Z           21.4945076442       41.3892655279        3.0311275611  MEMB      97              0.0000000000
     12098        98  PMPG      C13           -32.0990838514       31.2017794775       21.5466191624  MEMB      98              0.0000000000
     12099        98  PMPG      H13A          -32.2065014058       32.3012685071       21.4286940029  MEMB      98              0.0000000000
     12100        98  PMPG      H13B          -32.7454989616       30.8667190503       22.3857872757  MEMB      98              0.0000000000
     12101        98  PMPG      OC3           -30.6892231730       30.7918983866       21.7994787393  MEMB      98              0.0000000000
     12102        98  PMPG      HO3           -30.7210468965       29.9606206043       22.2786077939  MEMB      98              0.0000000000
     12103        98  PMPG      C12           -32.6779206543       30.4008115628       20.3413478948  MEMB      98              0.0000000000
     12104        98  PMPG      H12A          -33.7639882692       30.6430242068       20.2737519560  MEMB      98              0.0000000000
     12105        98  PMPG      OC2           -32.5531931409       28.9977212785       20.5776138283  MEMB      98              0.0000000000
     12106        98  PMPG      HO2           -32.8158424153       28.6044940176       19.7167395518  MEMB      98              0.0000000000
     12107        98  PMPG      C11           -32.0594595676       30.7507388571       19.0391510405  MEMB      98              0.0000000000
     12108        98  PMPG      H11A          -32.4231378168       29.9936217215       18.3119421998  MEMB      98              0.0000000000
     12109        98  PMPG      H11B          -30.9610251464       30.5853127916       19.0590763929  MEMB      98              0.0000000000
     12110        98  PMPG      P             -32.2599521507       32.6784496080       17.2909763233  MEMB      98              0.0000000000
     12111        98  PMPG      O13           -31.7032402579       31.6688281102       16.3961454437  MEMB      98              0.0000000000
     12112        98  PMPG      O14           -31.6267738027       34.0133096503       17.3277364641  MEMB      98              0.0000000000
     12113        98  PMPG      O11           -33.7895232008       32.9071358894       16.9382843470  MEMB      98              0.0000000000
     12114        98  PMPG      O12           -32.3121954571       32.1440615410       18.7426467640  MEMB      98              0.0000000000
     12115        98  PMPG      C1            -34.6726666712       33.1837196180       18.0751317700  MEMB      98              0.0000000000
     12116        98  PMPG      HA            -34.2844554366       33.9930840149       18.7297633490  MEMB      98              0.0000000000
     12117        98  PMPG      HB            -34.9062477725       32.2316745575       18.5979806812  MEMB      98              0.0000000000
     12118        98  PMPG      C2            -35.9610342701       33.5998034516       17.4440576575  MEMB      98              0.0000000000
     12119        98  PMPG      HS            -36.6930054883       33.4466424125       18.2656905833  MEMB      98              0.0000000000
     12120        98  PMPG      O21           -36.1533382569       32.8677536485       16.2356402904  MEMB      98              0.0000000000
     12121        98  PMPG      C21           -36.2936169739       31.5391337370       16.3569710439  MEMB      98              0.0000000000
     12122        98  PMPG      O22           -36.1825394362       30.9300969453       17.4049662756  MEMB      98              0.0000000000
     12123        98  PMPG      C22           -36.6273696550       30.9293856265       14.9154720293  MEMB      98              0.0000000000
     12124        98  PMPG      H2R           -36.4892672686       31.7253457873       14.1527821876  MEMB      98              0.0000000000
     12125        98  PMPG      H2S           -37.6722682545       30.5592742713       14.9898063381  MEMB      98              0.0000000000
     12126        98  PMPG      C3            -36.0247369870       35.1285748754       17.0936804287  MEMB      98              0.0000000000
     12127        98  PMPG      HX            -35.9161903664       35.7885049415       17.9808282038  MEMB      98              0.0000000000
     12128        98  PMPG      HY            -37.0243334844       35.4047376544       16.6951062183  MEMB      98              0.0000000000
     12129        98  PMPG      O31           -34.9878817391       35.5471623050       16.1845785560  MEMB      98              0.0000000000
     12130        98  PMPG      C31           -35.1260553851       35.2857941788       14.8878095326  MEMB      98              0.0000000000
     12131        98  PMPG      O32           -36.0700171398       34.7750661944       14.3300725351  MEMB      98              0.0000000000
     12132        98  PMPG      C32           -33.8341242900       35.6264502487       14.2525321802  MEMB      98              0.0000000000
     12133        98  PMPG      H2X           -33.0376395146       35.8359885543       14.9982038882  MEMB      98              0.0000000000
     12134        98  PMPG      H2Y           -33.9284332307       36.6230795929       13.7707055760  MEMB      98              0.0000000000
     12135        98  PMPG      C23           -35.6416980518       29.8507794235       14.6256016824  MEMB      98              0.0000000000
     12136        98  PMPG      H3R           -35.6569649553       29.1527897711       15.4898343998  MEMB      98              0.0000000000
     12137        98  PMPG      H3S           -34.5512920672       30.0603036164       14.5877160600  MEMB      98              0.0000000000
     12138        98  PMPG      C24           -35.8284932491       29.1221453778       13.2560187685  MEMB      98              0.0000000000
     12139        98  PMPG      H4R           -36.8896648327       29.2579450056       12.9563610330  MEMB      98              0.0000000000
     12140        98  PMPG      H4S           -35.7496430474       28.0474089548       13.5262872101  MEMB      98              0.0000000000
     12141        98  PMPG      C25           -34.8184235399       29.5195374089       12.1750130025  MEMB      98              0.0000000000
     12142        98  PMPG      H5R           -35.0356851808       28.8780083762       11.2943550117  MEMB      98              0.0000000000
     12143        98  PMPG      H5S           -33.7718868693       29.2651721233       12.4477411280  MEMB      98              0.0000000000
     12144        98  PMPG      C26           -34.8325781524       31.0293461016       11.7709375581  MEMB      98              0.0000000000
     12145        98  PMPG      H6R           -34.0044164827       31.2215645166       11.0557307515  MEMB      98              0.0000000000
     12146        98  PMPG      H6S           -34.7023380376       31.5982943216       12.7162719582  MEMB      98              0.0000000000
     12147        98  PMPG      C27           -36.0828600669       31.4678072967       11.1552175328  MEMB      98              0.0000000000
     12148        98  PMPG      H7R           -36.9469270912       31.2515945303       11.8192669692  MEMB      98              0.0000000000
     12149        98  PMPG      H7S           -36.2453415553       30.9455948303       10.1881524307  MEMB      98              0.0000000000
     12150        98  PMPG      C28           -35.9625935390       32.9510267346       10.8489192716  MEMB      98              0.0000000000
     12151        98  PMPG      H8R           -34.9918848694       33.2244565840       10.3827847249  MEMB      98              0.0000000000
     12152        98  PMPG      H8S           -36.0715607770       33.3772179415       11.8691194462  MEMB      98              0.0000000000
     12153        98  PMPG      C29           -37.2546951018       33.3525177187       10.1443521884  MEMB      98              0.0000000000
     12154        98  PMPG      H9R           -38.2273002778       33.3695051446       10.6810753627  MEMB      98              0.0000000000
     12155        98  PMPG      C217          -37.0864179881       34.5601893966        9.1506876659  MEMB      98              0.0000000000
     12156        98  PMPG      H17R          -37.9417005702       35.2076652283        9.0018399826  MEMB      98              0.0000000000
     12157        98  PMPG      H17S          -36.0375498339       34.7582847975        8.9675951996  MEMB      98              0.0000000000
     12158        98  PMPG      C210          -37.4354069598       33.0992165311        8.6756532214  MEMB      98              0.0000000000
     12159        98  PMPG      H10R          -38.4728114624       32.9920168007        8.2927410516  MEMB      98              0.0000000000
     12160        98  PMPG      C211          -36.2494704172       32.5942929061        7.7979018361  MEMB      98              0.0000000000
     12161        98  PMPG      H11R          -35.2500593424       32.9920679235        8.0758833888  MEMB      98              0.0000000000
     12162        98  PMPG      H11S          -36.2211826990       31.4857836656        7.8666631306  MEMB      98              0.0000000000
     12163        98  PMPG      C212          -36.3517798218       32.9448933367        6.2956522167  MEMB      98              0.0000000000
     12164        98  PMPG      H12R          -36.5950157315       34.0208443860        6.1634149638  MEMB      98              0.0000000000
     12165        98  PMPG      H12S          -37.1547905596       32.3697718509        5.7869973196  MEMB      98              0.0000000000
     12166        98  PMPG      C213          -35.0707692973       32.7045410971        5.4524575227  MEMB      98              0.0000000000
     12167        98  PMPG      H13R          -34.8815102955       31.6099589368        5.4722462579  MEMB      98              0.0000000000
     12168        98  PMPG      H13S          -34.2106608342       33.2882482844        5.8446568355  MEMB      98              0.0000000000
     12169        98  PMPG      C214          -35.2906173800       33.0004694851        3.9807669163  MEMB      98              0.0000000000
     12170        98  PMPG      H14R          -36.3303405200       32.7438515864        3.6850571517  MEMB      98              0.0000000000
     12171        98  PMPG      H14S          -34.6181853223       32.4132914523        3.3194211572  MEMB      98              0.0000000000
     12172        98  PMPG      C215          -35.0508561389       34.4919721190        3.5998436917  MEMB      98              0.0000000000
     12173        98  PMPG      H15R          -34.2289814947       35.0288808619        4.1200095464  MEMB      98              0.0000000000
     12174        98  PMPG      H15S          -35.9814158340       35.0410510057        3.8584783648  MEMB      98              0.0000000000
     12175        98  PMPG      C216          -34.7244342349       34.6680940444        2.1068679310  MEMB      98              0.0000000000
     12176        98  PMPG      H16R          -33.7692578080       34.1638014612        1.8467753093  MEMB      98              0.0000000000
     12177        98  PMPG      H16S          -34.4782454622       35.7366234238        1.9281005531  MEMB      98              0.0000000000
     12178        98  PMPG      H16T          -35.5493834285       34.2216406308        1.5115030603  MEMB      98              0.0000000000
     12179        98  PMPG      C33           -33.3811191552       34.5003535295       13.3059260360  MEMB      98              0.0000000000
     12180        98  PMPG      H3X           -34.3029708994       34.2850115477       12.7244293323  MEMB      98              0.0000000000
     12181        98  PMPG      H3Y           -33.0912248510       33.6047653583       13.8960138924  MEMB      98              0.0000000000
     12182        98  PMPG      C34           -32.2530449619       34.8690966440       12.3391467161  MEMB      98              0.0000000000
     12183        98  PMPG      H4X           -31.3041904769       34.9671736362       12.9086878293  MEMB      98              0.0000000000
     12184        98  PMPG      H4Y           -32.4995871354       35.8949101270       11.9909439630  MEMB      98              0.0000000000
     12185        98  PMPG      C35           -32.0565863207       33.7640728768       11.2294832684  MEMB      98              0.0000000000
     12186        98  PMPG      H5X           -32.8305946663       32.9742884455       11.3365940268  MEMB      98              0.0000000000
     12187        98  PMPG      H5Y           -31.0645451874       33.2753103621       11.3357213533  MEMB      98              0.0000000000
     12188        98  PMPG      C36           -32.2443490256       34.2713958204        9.8194749001  MEMB      98              0.0000000000
     12189        98  PMPG      H6X           -31.3204606291       34.7335309485        9.4105958695  MEMB      98              0.0000000000
     12190        98  PMPG      H6Y           -33.0018587864       35.0821331983        9.8760872164  MEMB      98              0.0000000000
     12191        98  PMPG      C37           -32.4821810525       33.2092431626        8.8010948744  MEMB      98              0.0000000000
     12192        98  PMPG      H7X           -32.6355753563       33.8116287153        7.8802671941  MEMB      98              0.0000000000
     12193        98  PMPG      H7Y           -33.3613382494       32.5687904787        9.0274216315  MEMB      98              0.0000000000
     12194        98  PMPG      C38           -31.3578593504       32.2009806346        8.6460450382  MEMB      98              0.0000000000
     12195        98  PMPG      H8X           -30.9982232647       31.7601457870        9.6003229527  MEMB      98              0.0000000000
     12196        98  PMPG      H8Y           -30.4195636957       32.6855001304        8.3008445199  MEMB      98              0.0000000000
     12197        98  PMPG      C39           -31.7074418854       30.9803219017        7.6886546284  MEMB      98              0.0000000000
     12198        98  PMPG      H9X           -32.5931027757       30.4180422985        8.0543975395  MEMB      98              0.0000000000
     12199        98  PMPG      H9Y           -30.8099175459       30.3370194972        7.8108562808  MEMB      98              0.0000000000
     12200        98  PMPG      C310          -31.8313256104       31.3689574658        6.1996343637  MEMB      98              0.0000000000
     12201        98  PMPG      H10X          -32.6600901346       32.0831297351        6.0061695079  MEMB      98              0.0000000000
     12202        98  PMPG      H10Y          -32.0624964116       30.4980257319        5.5497428490  MEMB      98              0.0000000000
     12203        98  PMPG      C311          -30.4874478485       32.0259205614        5.7043412074  MEMB      98              0.0000000000
     12204        98  PMPG      H11X          -29.6495998658       31.4451873011        6.1460195958  MEMB      98              0.0000000000
     12205        98  PMPG      H11Y          -30.4373736146       33.0518002935        6.1278792438  MEMB      98              0.0000000000
     12206        98  PMPG      C312          -30.3070938250       32.1595494555        4.1626066394  MEMB      98              0.0000000000
     12207        98  PMPG      H12X          -30.3857179388       31.1256246764        3.7636851486  MEMB      98              0.0000000000
     12208        98  PMPG      H12Y          -29.3018610578       32.5322334350        3.8711703557  MEMB      98              0.0000000000
     12209        98  PMPG      C313          -31.3614313035       32.9608447661        3.4128619856  MEMB      98              0.0000000000
     12210        98  PMPG      H13X          -31.3462510227       33.9930390515        3.8235512967  MEMB      98              0.0000000000
     12211        98  PMPG      H13Y          -32.3764891257       32.5986976611        3.6827286406  MEMB      98              0.0000000000
     12212        98  PMPG      C314          -31.1398708731       32.9660568405        1.8752109184  MEMB      98              0.0000000000
     12213        98  PMPG      H14X          -32.0791930939       33.2047423859        1.3320515050  MEMB      98              0.0000000000
     12214        98  PMPG      H14Y          -31.0238920773       31.9254308948        1.5037715213  MEMB      98              0.0000000000
     12215        98  PMPG      C315          -29.8915613466       33.6711126682        1.3336752576  MEMB      98              0.0000000000
     12216        98  PMPG      H15X          -29.8817545745       33.5968655743        0.2252017212  MEMB      98              0.0000000000
     12217        98  PMPG      H15Y          -29.0282057455       33.0799379618        1.7071041021  MEMB      98              0.0000000000
     12218        98  PMPG      C316          -29.5367459878       35.1840552499        1.6739045161  MEMB      98              0.0000000000
     12219        98  PMPG      H16X          -30.4471549242       35.8140506299        1.5812602379  MEMB      98              0.0000000000
     12220        98  PMPG      H16Y          -28.7174388881       35.6524383608        1.0876680253  MEMB      98              0.0000000000
     12221        98  PMPG      H16Z          -29.2312638838       35.1734486324        2.7420283495  MEMB      98              0.0000000000
     12222        99  PMPE      N             -41.8138411711      -10.8061897261       20.3754408600  MEMB      99              0.0000000000
     12223        99  PMPE      HN1           -40.9168265061      -11.1284998878       19.9594110954  MEMB      99              0.0000000000
     12224        99  PMPE      HN2           -42.4094458472      -10.2043917043       19.7715416968  MEMB      99              0.0000000000
     12225        99  PMPE      HN3           -41.6498483336      -10.2787714207       21.2566540307  MEMB      99              0.0000000000
     12226        99  PMPE      C12           -42.6241058045      -12.0052040720       20.7663395719  MEMB      99              0.0000000000
     12227        99  PMPE      H12A          -43.2916229171      -11.8478734405       21.6404042423  MEMB      99              0.0000000000
     12228        99  PMPE      H12B          -41.8482961131      -12.7750156990       20.9659153349  MEMB      99              0.0000000000
     12229        99  PMPE      C11           -43.5355441989      -12.4939912547       19.6673395179  MEMB      99              0.0000000000
     12230        99  PMPE      H11A          -44.3000031331      -11.7848904277       19.2838036854  MEMB      99              0.0000000000
     12231        99  PMPE      H11B          -44.1256628479      -13.3252209541       20.1090840642  MEMB      99              0.0000000000
     12232        99  PMPE      P             -42.3985348107      -14.3856483600       18.2614979489  MEMB      99              0.0000000000
     12233        99  PMPE      O13           -43.6073026254      -15.0538358103       17.6922410913  MEMB      99              0.0000000000
     12234        99  PMPE      O14           -41.7855463056      -15.0042423121       19.4478851026  MEMB      99              0.0000000000
     12235        99  PMPE      O11           -41.2086978768      -14.2899342528       17.2030448862  MEMB      99              0.0000000000
     12236        99  PMPE      O12           -42.7419960080      -12.9248614097       18.5862110211  MEMB      99              0.0000000000
     12237        99  PMPE      C1            -41.1210660075      -13.0913465478       16.3287899337  MEMB      99              0.0000000000
     12238        99  PMPE      HA            -40.3309783744      -12.4030234169       16.6979701212  MEMB      99              0.0000000000
     12239        99  PMPE      HB            -42.0618112690      -12.5047118333       16.4007551765  MEMB      99              0.0000000000
     12240        99  PMPE      C2            -40.8740662326      -13.5229503536       14.8549044288  MEMB      99              0.0000000000
     12241        99  PMPE      HS            -40.9228706957      -12.6106746047       14.2226924358  MEMB      99              0.0000000000
     12242        99  PMPE      O21           -41.9248603472      -14.4284821924       14.4728077291  MEMB      99              0.0000000000
     12243        99  PMPE      C21           -43.1830471039      -14.0056011720       14.4119634149  MEMB      99              0.0000000000
     12244        99  PMPE      O22           -43.4781023930      -12.8117695866       14.3382182501  MEMB      99              0.0000000000
     12245        99  PMPE      C22           -44.1286279120      -15.1596668833       14.3415293328  MEMB      99              0.0000000000
     12246        99  PMPE      H2R           -44.8943894764      -15.0262116646       15.1353302533  MEMB      99              0.0000000000
     12247        99  PMPE      H2S           -43.6422247745      -16.1577237595       14.3013357402  MEMB      99              0.0000000000
     12248        99  PMPE      C3            -39.5276591257      -14.1949023704       14.5065788552  MEMB      99              0.0000000000
     12249        99  PMPE      HX            -39.5321097049      -15.2222262139       14.9295529464  MEMB      99              0.0000000000
     12250        99  PMPE      HY            -38.7015829497      -13.6098228283       14.9644011989  MEMB      99              0.0000000000
     12251        99  PMPE      O31           -39.1898028144      -14.2670352698       13.1056380131  MEMB      99              0.0000000000
     12252        99  PMPE      C31           -39.6441854472      -15.3259558680       12.4068740130  MEMB      99              0.0000000000
     12253        99  PMPE      O32           -40.2911074767      -16.2440854006       12.8545829506  MEMB      99              0.0000000000
     12254        99  PMPE      C32           -39.4720402218      -15.0719128008       10.9483740071  MEMB      99              0.0000000000
     12255        99  PMPE      H2X           -38.5511728870      -14.5565767664       10.6008782303  MEMB      99              0.0000000000
     12256        99  PMPE      H2Y           -40.3029686003      -14.3914661891       10.6639944656  MEMB      99              0.0000000000
     12257        99  PMPE      C23           -44.9762581439      -14.9570027505       13.1132965765  MEMB      99              0.0000000000
     12258        99  PMPE      H3R           -45.1407015262      -13.8590340631       13.0715353006  MEMB      99              0.0000000000
     12259        99  PMPE      H3S           -45.9485373256      -15.4865300354       13.2060067151  MEMB      99              0.0000000000
     12260        99  PMPE      C24           -44.2287148828      -15.3517362651       11.8099806985  MEMB      99              0.0000000000
     12261        99  PMPE      H4R           -44.1170444846      -16.4515881666       11.9203273382  MEMB      99              0.0000000000
     12262        99  PMPE      H4S           -43.2073068730      -14.9167612124       11.8529145721  MEMB      99              0.0000000000
     12263        99  PMPE      C25           -44.8994323176      -15.0889713152       10.4716363452  MEMB      99              0.0000000000
     12264        99  PMPE      H5R           -45.7895532367      -15.7377465036       10.3263896870  MEMB      99              0.0000000000
     12265        99  PMPE      H5S           -44.2501545921      -15.2981141819        9.5946993284  MEMB      99              0.0000000000
     12266        99  PMPE      C26           -45.2247054893      -13.6243017877       10.2451944568  MEMB      99              0.0000000000
     12267        99  PMPE      H6R           -45.8892135413      -13.1452910738       10.9957266098  MEMB      99              0.0000000000
     12268        99  PMPE      H6S           -45.8230748500      -13.6864596925        9.3111643316  MEMB      99              0.0000000000
     12269        99  PMPE      C27           -44.1147481286      -12.6046984519       10.0090447478  MEMB      99              0.0000000000
     12270        99  PMPE      H7R           -43.4967604417      -12.5029479756       10.9266827255  MEMB      99              0.0000000000
     12271        99  PMPE      H7S           -44.6786814315      -11.6686537710        9.8087435976  MEMB      99              0.0000000000
     12272        99  PMPE      C28           -43.3458740529      -12.8875430505        8.7161156800  MEMB      99              0.0000000000
     12273        99  PMPE      H8R           -44.0031568726      -12.9852960558        7.8257533926  MEMB      99              0.0000000000
     12274        99  PMPE      H8S           -42.7481082784      -13.7907446269        8.9635504407  MEMB      99              0.0000000000
     12275        99  PMPE      C29           -42.3152083566      -11.7847106105        8.5590924091  MEMB      99              0.0000000000
     12276        99  PMPE      H9R           -41.6084477786      -11.6348647944        9.4031046826  MEMB      99              0.0000000000
     12277        99  PMPE      C217          -42.8466499960      -10.5509288213        7.7862471296  MEMB      99              0.0000000000
     12278        99  PMPE      H17R          -42.4094206592       -9.5835675124        8.0005643320  MEMB      99              0.0000000000
     12279        99  PMPE      H17S          -43.7395381991      -10.8737541381        7.2652630234  MEMB      99              0.0000000000
     12280        99  PMPE      C210          -41.6823563989      -11.4249501190        7.2482442759  MEMB      99              0.0000000000
     12281        99  PMPE      H10R          -40.7285359120      -10.8553220919        7.2397757927  MEMB      99              0.0000000000
     12282        99  PMPE      C211          -41.9740731633      -12.3814049860        6.0515243080  MEMB      99              0.0000000000
     12283        99  PMPE      H11R          -41.8064709215      -11.8865225615        5.0710543541  MEMB      99              0.0000000000
     12284        99  PMPE      H11S          -43.0212358862      -12.7389598081        6.1511518699  MEMB      99              0.0000000000
     12285        99  PMPE      C212          -41.0033322263      -13.6101326229        6.0110216772  MEMB      99              0.0000000000
     12286        99  PMPE      H12R          -41.3023750390      -14.3783084037        5.2661720719  MEMB      99              0.0000000000
     12287        99  PMPE      H12S          -41.0944361816      -14.0793641367        7.0139393151  MEMB      99              0.0000000000
     12288        99  PMPE      C213          -39.4345548344      -13.3870863352        5.7777737385  MEMB      99              0.0000000000
     12289        99  PMPE      H13R          -38.9625950076      -14.0847738309        6.5022095429  MEMB      99              0.0000000000
     12290        99  PMPE      H13S          -39.1532933302      -12.3858152671        6.1685029943  MEMB      99              0.0000000000
     12291        99  PMPE      C214          -38.8689674871      -13.6602003719        4.4110293417  MEMB      99              0.0000000000
     12292        99  PMPE      H14R          -39.3875140820      -14.4507095311        3.8274835487  MEMB      99              0.0000000000
     12293        99  PMPE      H14S          -37.7791900055      -13.8418341851        4.5281405700  MEMB      99              0.0000000000
     12294        99  PMPE      C215          -38.9181480613      -12.3365841504        3.5344346803  MEMB      99              0.0000000000
     12295        99  PMPE      H15R          -38.4989846773      -11.4108382660        3.9834538737  MEMB      99              0.0000000000
     12296        99  PMPE      H15S          -39.9820483087      -12.1079077492        3.3105047637  MEMB      99              0.0000000000
     12297        99  PMPE      C216          -38.1694721645      -12.3066502938        2.1715251475  MEMB      99              0.0000000000
     12298        99  PMPE      H16R          -38.2669787917      -11.2614790412        1.8076149096  MEMB      99              0.0000000000
     12299        99  PMPE      H16S          -37.1000110895      -12.5761158172        2.3055466192  MEMB      99              0.0000000000
     12300        99  PMPE      H16T          -38.7709563121      -12.9564635017        1.5004940797  MEMB      99              0.0000000000
     12301        99  PMPE      C33           -39.5944684981      -16.3605047754       10.0669708046  MEMB      99              0.0000000000
     12302        99  PMPE      H3X           -39.0579149772      -17.2166482601       10.5289765441  MEMB      99              0.0000000000
     12303        99  PMPE      H3Y           -39.2407268652      -15.9935384491        9.0797912830  MEMB      99              0.0000000000
     12304        99  PMPE      C34           -41.0215679262      -16.8617463700        9.7393282986  MEMB      99              0.0000000000
     12305        99  PMPE      H4X           -41.6380284682      -16.0038536141        9.3953563394  MEMB      99              0.0000000000
     12306        99  PMPE      H4Y           -41.4788752721      -17.1919666974       10.6964838508  MEMB      99              0.0000000000
     12307        99  PMPE      C35           -41.0444242244      -17.9674957910        8.6310316391  MEMB      99              0.0000000000
     12308        99  PMPE      H5X           -40.5940899056      -18.8211955999        9.1812285360  MEMB      99              0.0000000000
     12309        99  PMPE      H5Y           -40.4115759258      -17.5310143328        7.8289666385  MEMB      99              0.0000000000
     12310        99  PMPE      C36           -42.4341439540      -18.3121286589        8.0657856834  MEMB      99              0.0000000000
     12311        99  PMPE      H6X           -42.9883768730      -18.5551018219        8.9975111706  MEMB      99              0.0000000000
     12312        99  PMPE      H6Y           -42.5555197160      -19.1096297088        7.3018614330  MEMB      99              0.0000000000
     12313        99  PMPE      C37           -43.1855961523      -17.0612691421        7.5225333892  MEMB      99              0.0000000000
     12314        99  PMPE      H7X           -42.5544452406      -16.1513896348        7.4325952860  MEMB      99              0.0000000000
     12315        99  PMPE      H7Y           -44.0182439499      -16.8439918914        8.2252488653  MEMB      99              0.0000000000
     12316        99  PMPE      C38           -43.9218721184      -17.3310996705        6.1313583039  MEMB      99              0.0000000000
     12317        99  PMPE      H8X           -44.7739772194      -17.9937411719        6.3943114359  MEMB      99              0.0000000000
     12318        99  PMPE      H8Y           -43.2164994882      -17.8806504117        5.4719919433  MEMB      99              0.0000000000
     12319        99  PMPE      C39           -44.3658817638      -16.0789158105        5.3873683414  MEMB      99              0.0000000000
     12320        99  PMPE      H9X           -44.5479852703      -16.3240663250        4.3191640698  MEMB      99              0.0000000000
     12321        99  PMPE      H9Y           -43.4862310493      -15.4008582588        5.4151862271  MEMB      99              0.0000000000
     12322        99  PMPE      C310          -45.6085702514      -15.4466434253        5.9236679607  MEMB      99              0.0000000000
     12323        99  PMPE      H10X          -45.5127733343      -15.0215670958        6.9456530696  MEMB      99              0.0000000000
     12324        99  PMPE      H10Y          -46.2864379196      -16.3268045035        5.9121119295  MEMB      99              0.0000000000
     12325        99  PMPE      C311          -46.1485488861      -14.2483794115        5.1609690474  MEMB      99              0.0000000000
     12326        99  PMPE      H11X          -45.4390591280      -13.3942632955        5.1987992887  MEMB      99              0.0000000000
     12327        99  PMPE      H11Y          -47.1102492796      -13.9694030498        5.6422435414  MEMB      99              0.0000000000
     12328        99  PMPE      C312          -46.4824420006      -14.5120526818        3.6448069788  MEMB      99              0.0000000000
     12329        99  PMPE      H12X          -47.1170641253      -15.4193067517        3.7368166750  MEMB      99              0.0000000000
     12330        99  PMPE      H12Y          -45.5983246006      -14.6120099633        2.9794755229  MEMB      99              0.0000000000
     12331        99  PMPE      C313          -47.4416243105      -13.4437687081        3.0917386674  MEMB      99              0.0000000000
     12332        99  PMPE      H13X          -48.2871008412      -13.3516176002        3.8065805256  MEMB      99              0.0000000000
     12333        99  PMPE      H13Y          -47.9195035344      -13.8050552302        2.1560982545  MEMB      99              0.0000000000
     12334        99  PMPE      C314          -46.7582234534      -12.1441943370        2.7563767124  MEMB      99              0.0000000000
     12335        99  PMPE      H14X          -45.7482017556      -11.9874046645        3.1918018003  MEMB      99              0.0000000000
     12336        99  PMPE      H14Y          -47.3528352087      -11.2676794012        3.0917560971  MEMB      99              0.0000000000
     12337        99  PMPE      C315          -46.4310562862      -11.8212399501        1.2886774628  MEMB      99              0.0000000000
     12338        99  PMPE      H15X          -46.2013268843      -10.7352387902        1.2423436816  MEMB      99              0.0000000000
     12339        99  PMPE      H15Y          -47.4383826400      -12.0089343609        0.8592766976  MEMB      99              0.0000000000
     12340        99  PMPE      C316          -45.2955275233      -12.6426755013        0.7174573024  MEMB      99              0.0000000000
     12341        99  PMPE      H16X          -45.1675731313      -12.4937942432       -0.3760621311  MEMB      99              0.0000000000
     12342        99  PMPE      H16Y          -45.5047696463      -13.7288009616        0.8217169320  MEMB      99              0.0000000000
     12343        99  PMPE      H16Z          -44.3634633834      -12.4579746419        1.2931856729  MEMB      99              0.0000000000
     12344       100  OYPE      N               1.6677880570       45.8210394098       17.4993270844  MEMB      100             0.0000000000
     12345       100  OYPE      HN1             2.0258901136       46.6088159577       18.0761903316  MEMB      100             0.0000000000
     12346       100  OYPE      HN2             2.0599613190       45.9660380948       16.5470796273  MEMB      100             0.0000000000
     12347       100  OYPE      HN3             0.6332120913       45.9262905671       17.4861100721  MEMB      100             0.0000000000
     12348       100  OYPE      C12             1.8883801818       44.4567765560       18.1446189707  MEMB      100             0.0000000000
     12349       100  OYPE      H12A            2.9952543388       44.4877999243       18.2351079951  MEMB      100             0.0000000000
     12350       100  OYPE      H12B            1.5321637921       43.5740977876       17.5716364300  MEMB      100             0.0000000000
     12351       100  OYPE      C11             1.2894564311       44.4915630943       19.5484574432  MEMB      100             0.0000000000
     12352       100  OYPE      H11A            1.7775642238       45.1632408371       20.2866449819  MEMB      100             0.0000000000
     12353       100  OYPE      H11B            1.2701675093       43.4805278350       20.0086275819  MEMB      100             0.0000000000
     12354       100  OYPE      P              -1.2430765641       44.0022143409       19.3671124920  MEMB      100             0.0000000000
     12355       100  OYPE      O13            -1.6999304418       43.5261839822       20.6988609857  MEMB      100             0.0000000000
     12356       100  OYPE      O14            -0.8553459899       43.0024434984       18.4157418742  MEMB      100             0.0000000000
     12357       100  OYPE      O11            -2.3934502488       44.8988529981       18.8040503159  MEMB      100             0.0000000000
     12358       100  OYPE      O12            -0.0743240292       44.9523860871       19.5218308329  MEMB      100             0.0000000000
     12359       100  OYPE      C1             -2.3890509237       45.7240891013       17.6200612250  MEMB      100             0.0000000000
     12360       100  OYPE      HA             -1.4865067560       45.5196163550       17.0053043487  MEMB      100             0.0000000000
     12361       100  OYPE      HB             -2.4956719381       46.7742572374       17.9666151427  MEMB      100             0.0000000000
     12362       100  OYPE      C2             -3.6460102226       45.5096313501       16.7087903487  MEMB      100             0.0000000000
     12363       100  OYPE      HS             -4.5313409911       45.8689442223       17.2757163166  MEMB      100             0.0000000000
     12364       100  OYPE      O21            -3.8732576309       44.1333276010       16.2944349454  MEMB      100             0.0000000000
     12365       100  OYPE      C21            -5.0535867121       43.8621747189       15.7935328743  MEMB      100             0.0000000000
     12366       100  OYPE      O22            -6.0006777468       44.6452940476       15.7526771710  MEMB      100             0.0000000000
     12367       100  OYPE      C22            -5.1062436235       42.4873538739       15.1884781452  MEMB      100             0.0000000000
     12368       100  OYPE      H2R            -5.6715325454       41.8152895954       15.8689914716  MEMB      100             0.0000000000
     12369       100  OYPE      H2S            -4.0909219618       42.0601431974       15.3331660389  MEMB      100             0.0000000000
     12370       100  OYPE      C3             -3.5867821582       46.3594422173       15.3723070751  MEMB      100             0.0000000000
     12371       100  OYPE      HX             -3.3572118814       47.3955266846       15.7011651765  MEMB      100             0.0000000000
     12372       100  OYPE      HY             -4.5823761378       46.3440351316       14.8794822432  MEMB      100             0.0000000000
     12373       100  OYPE      O31            -2.5215795161       45.7367277349       14.5916978731  MEMB      100             0.0000000000
     12374       100  OYPE      C31            -2.5505533531       46.0577595425       13.2892510494  MEMB      100             0.0000000000
     12375       100  OYPE      O32            -3.3740690181       46.7812712470       12.8009106661  MEMB      100             0.0000000000
     12376       100  OYPE      C32            -1.4533904449       45.2888998123       12.5116576275  MEMB      100             0.0000000000
     12377       100  OYPE      H2X            -0.4660779381       45.7915491052       12.5945954799  MEMB      100             0.0000000000
     12378       100  OYPE      H2Y            -1.3004952684       44.3500085324       13.0856147751  MEMB      100             0.0000000000
     12379       100  OYPE      C23            -5.6053095933       42.4418682423       13.6781035077  MEMB      100             0.0000000000
     12380       100  OYPE      H3R            -6.3857381752       43.2250283253       13.5689614026  MEMB      100             0.0000000000
     12381       100  OYPE      H3S            -5.9717479580       41.4041939495       13.5255404654  MEMB      100             0.0000000000
     12382       100  OYPE      C24            -4.5233615278       42.8091491273       12.7287076330  MEMB      100             0.0000000000
     12383       100  OYPE      H4R            -3.6083162093       42.2536321633       13.0260528652  MEMB      100             0.0000000000
     12384       100  OYPE      H4S            -4.5907938453       43.9136833873       12.8275911194  MEMB      100             0.0000000000
     12385       100  OYPE      C25            -4.7541506154       42.5993690622       11.1979017429  MEMB      100             0.0000000000
     12386       100  OYPE      H5R            -4.6208201355       41.5535010541       10.8476099729  MEMB      100             0.0000000000
     12387       100  OYPE      H5S            -3.9075807989       43.0599014465       10.6451355354  MEMB      100             0.0000000000
     12388       100  OYPE      C26            -6.1030855644       43.1107466185       10.6162345879  MEMB      100             0.0000000000
     12389       100  OYPE      H6R            -6.2067871948       44.0848259477       11.1403875528  MEMB      100             0.0000000000
     12390       100  OYPE      H6S            -6.8647781047       42.3638958009       10.9266534135  MEMB      100             0.0000000000
     12391       100  OYPE      C27            -6.1093125684       43.2404812204        9.0925903367  MEMB      100             0.0000000000
     12392       100  OYPE      H7R            -7.1430399615       43.4502460536        8.7436951328  MEMB      100             0.0000000000
     12393       100  OYPE      H7S            -5.5651092141       42.3237013595        8.7800548008  MEMB      100             0.0000000000
     12394       100  OYPE      C28            -5.3092535271       44.4378340584        8.6564293429  MEMB      100             0.0000000000
     12395       100  OYPE      H8R            -4.2765866652       44.4791734007        9.0641200356  MEMB      100             0.0000000000
     12396       100  OYPE      H8S            -5.7314977974       45.3802764434        9.0661035513  MEMB      100             0.0000000000
     12397       100  OYPE      C29            -5.0843476184       44.5247229161        7.1950496418  MEMB      100             0.0000000000
     12398       100  OYPE      H9R            -5.4914082659       43.7742030323        6.5014920245  MEMB      100             0.0000000000
     12399       100  OYPE      C210           -4.3686044943       45.5230661439        6.5897085824  MEMB      100             0.0000000000
     12400       100  OYPE      H10R           -4.1892268906       45.4168665900        5.5096411238  MEMB      100             0.0000000000
     12401       100  OYPE      C211           -3.6621659869       46.7166035000        7.2181176577  MEMB      100             0.0000000000
     12402       100  OYPE      H11R           -3.5662471320       46.7125070690        8.3249609266  MEMB      100             0.0000000000
     12403       100  OYPE      H11S           -4.2387471977       47.6007216299        6.8714033755  MEMB      100             0.0000000000
     12404       100  OYPE      C212           -2.1768400538       47.0161203096        6.7050455407  MEMB      100             0.0000000000
     12405       100  OYPE      H12R           -1.6098635186       46.0691127809        6.8316757504  MEMB      100             0.0000000000
     12406       100  OYPE      H12S           -1.6535350508       47.7545712766        7.3493764621  MEMB      100             0.0000000000
     12407       100  OYPE      C213           -2.1651024555       47.6350612776        5.2688206860  MEMB      100             0.0000000000
     12408       100  OYPE      H13R           -2.4282464956       48.7143690089        5.2818829931  MEMB      100             0.0000000000
     12409       100  OYPE      H13S           -2.9499167077       47.1367151233        4.6605126030  MEMB      100             0.0000000000
     12410       100  OYPE      C214           -0.8466470260       47.4272959697        4.5761765965  MEMB      100             0.0000000000
     12411       100  OYPE      H14R           -0.0733082926       47.5002627623        5.3704963337  MEMB      100             0.0000000000
     12412       100  OYPE      H14S           -0.5658211558       48.2568109306        3.8925367735  MEMB      100             0.0000000000
     12413       100  OYPE      C215           -0.8936559400       46.2499409206        3.7214861242  MEMB      100             0.0000000000
     12414       100  OYPE      H15R           -1.6147369082       46.3842762736        2.8870290484  MEMB      100             0.0000000000
     12415       100  OYPE      H15S           -1.1685972520       45.3432020220        4.3016177382  MEMB      100             0.0000000000
     12416       100  OYPE      C216            0.4145599661       45.9054439336        2.9487228393  MEMB      100             0.0000000000
     12417       100  OYPE      H16R            0.7242756477       46.7664799800        2.3186310476  MEMB      100             0.0000000000
     12418       100  OYPE      H16S            0.2183720909       44.9830613096        2.3613197328  MEMB      100             0.0000000000
     12419       100  OYPE      H16T            1.1047250897       45.5747890232        3.7541160451  MEMB      100             0.0000000000
     12420       100  OYPE      C33            -1.7161669117       45.2511861299       10.9842235951  MEMB      100             0.0000000000
     12421       100  OYPE      H3X            -1.8823860094       46.2159167425       10.4588792592  MEMB      100             0.0000000000
     12422       100  OYPE      H3Y            -2.6797742608       44.7336617856       10.7894143641  MEMB      100             0.0000000000
     12423       100  OYPE      C34            -0.6916645578       44.4069787431       10.2443542414  MEMB      100             0.0000000000
     12424       100  OYPE      H4X             0.1755900193       45.0817231248       10.0803097901  MEMB      100             0.0000000000
     12425       100  OYPE      H4Y            -0.3598958025       43.6533590589       10.9902147680  MEMB      100             0.0000000000
     12426       100  OYPE      C35            -1.1174814796       43.5617786182        8.9332062276  MEMB      100             0.0000000000
     12427       100  OYPE      H5X            -1.2933920233       44.3295679257        8.1497044649  MEMB      100             0.0000000000
     12428       100  OYPE      H5Y            -1.9286834375       42.8111331997        9.0463605563  MEMB      100             0.0000000000
     12429       100  OYPE      C36             0.1063435803       42.6284425317        8.4722499542  MEMB      100             0.0000000000
     12430       100  OYPE      H6X             0.9296927813       43.3399195617        8.2481574415  MEMB      100             0.0000000000
     12431       100  OYPE      H6Y             0.3684645049       42.1103996842        9.4194799334  MEMB      100             0.0000000000
     12432       100  OYPE      C37            -0.2139182287       41.6099609851        7.3368213372  MEMB      100             0.0000000000
     12433       100  OYPE      H7X             0.6140789947       40.9136525796        7.0840444062  MEMB      100             0.0000000000
     12434       100  OYPE      H7Y            -1.0619081204       40.9511521302        7.6217864094  MEMB      100             0.0000000000
     12435       100  OYPE      C38            -0.6969544955       42.1849051701        5.9561142000  MEMB      100             0.0000000000
     12436       100  OYPE      H8X            -1.0958867923       41.3186166587        5.3862734609  MEMB      100             0.0000000000
     12437       100  OYPE      H8Y            -1.5796850654       42.8445294363        6.0975477964  MEMB      100             0.0000000000
     12438       100  OYPE      C39             0.4084097400       42.8562480002        5.2193311085  MEMB      100             0.0000000000
     12439       100  OYPE      H9X             0.9139874822       43.6811649576        5.7426879656  MEMB      100             0.0000000000
     12440       100  OYPE      C310            0.8853752249       42.5076661655        4.0131924090  MEMB      100             0.0000000000
     12441       100  OYPE      H10X            1.6552886605       43.1094504062        3.5081295880  MEMB      100             0.0000000000
     12442       100  OYPE      C311            0.4008724329       41.3896870813        3.1877639886  MEMB      100             0.0000000000
     12443       100  OYPE      H11X            1.2679412238       40.9686565722        2.6352731910  MEMB      100             0.0000000000
     12444       100  OYPE      H11Y           -0.0829926658       40.6315221171        3.8399764808  MEMB      100             0.0000000000
     12445       100  OYPE      C312           -0.5128774280       41.8890170257        2.1254313031  MEMB      100             0.0000000000
     12446       100  OYPE      H12X           -0.5410737035       40.9628726800        1.5124213281  MEMB      100             0.0000000000
     12447       100  OYPE      H12Y           -0.1022598356       42.7966468974        1.6335755338  MEMB      100             0.0000000000
     12448       100  OYPE      C313           -1.8921350031       42.1981536328        2.7008225669  MEMB      100             0.0000000000
     12449       100  OYPE      H13X           -2.1384905686       41.3396790777        3.3616183514  MEMB      100             0.0000000000
     12450       100  OYPE      H13Y           -1.8665991561       43.1739711711        3.2313405055  MEMB      100             0.0000000000
     12451       100  OYPE      C314           -3.0231939510       42.1598859845        1.7021363709  MEMB      100             0.0000000000
     12452       100  OYPE      H14X           -3.0888923718       43.1661864957        1.2359126931  MEMB      100             0.0000000000
     12453       100  OYPE      H14Y           -4.0305988786       41.9735186684        2.1319307857  MEMB      100             0.0000000000
     12454       100  OYPE      C315           -2.8474295123       41.2231137791        0.5015584124  MEMB      100             0.0000000000
     12455       100  OYPE      H15X           -2.5448066313       40.2453456658        0.9336588070  MEMB      100             0.0000000000
     12456       100  OYPE      H15Y           -2.0750491596       41.6983220294       -0.1402557353  MEMB      100             0.0000000000
     12457       100  OYPE      C316           -4.1549586958       40.9871046825       -0.2846451960  MEMB      100             0.0000000000
     12458       100  OYPE      H16X           -4.9429581347       40.5653732549        0.3752948090  MEMB      100             0.0000000000
     12459       100  OYPE      H16Y           -4.0281226381       40.1890644765       -1.0471178926  MEMB      100             0.0000000000
     12460       100  OYPE      C317           -4.6434196247       42.2229034812       -1.0748969124  MEMB      100             0.0000000000
     12461       100  OYPE      H17X           -4.7434689239       43.0006692099       -0.2878838139  MEMB      100             0.0000000000
     12462       100  OYPE      H17Y           -5.6080631885       42.0731830144       -1.6053386276  MEMB      100             0.0000000000
     12463       100  OYPE      C318           -3.5299109213       42.7114490867       -2.1033452723  MEMB      100             0.0000000000
     12464       100  OYPE      H18X           -3.0230079615       41.8973311338       -2.6642222552  MEMB      100             0.0000000000
     12465       100  OYPE      H18Y           -4.0140131137       43.2046507975       -2.9732404601  MEMB      100             0.0000000000
     12466       100  OYPE      H18Z           -2.7001038096       43.1674357389       -1.5221255738  MEMB      100             0.0000000000
     12467       101  PMPE      N              33.2907578587      -34.4864396534       18.0806349731  MEMB      101             0.0000000000
     12468       101  PMPE      HN1            33.1735508219      -33.5422329099       17.6607107839  MEMB      101             0.0000000000
     12469       101  PMPE      HN2            33.4688920100      -34.3460361419       19.0956005152  MEMB      101             0.0000000000
     12470       101  PMPE      HN3            34.0481446102      -35.0780842683       17.6832412332  MEMB      101             0.0000000000
     12471       101  PMPE      C12            31.9732447560      -35.1710249284       18.1007865508  MEMB      101             0.0000000000
     12472       101  PMPE      H12A           32.1507675933      -36.2491024940       18.3021704656  MEMB      101             0.0000000000
     12473       101  PMPE      H12B           31.5520995978      -35.1749294783       17.0727095285  MEMB      101             0.0000000000
     12474       101  PMPE      C11            31.0766471351      -34.5533710491       19.1098086291  MEMB      101             0.0000000000
     12475       101  PMPE      H11A           31.5351813331      -34.4124778696       20.1119146927  MEMB      101             0.0000000000
     12476       101  PMPE      H11B           30.1108283028      -35.1012242513       19.1468437023  MEMB      101             0.0000000000
     12477       101  PMPE      P              29.9610223769      -32.1275920906       19.4292557446  MEMB      101             0.0000000000
     12478       101  PMPE      O13            30.8162940753      -30.9071131826       19.5877760851  MEMB      101             0.0000000000
     12479       101  PMPE      O14            29.4496541796      -32.7458961162       20.6829184810  MEMB      101             0.0000000000
     12480       101  PMPE      O11            28.7489747751      -31.8870491027       18.3883761999  MEMB      101             0.0000000000
     12481       101  PMPE      O12            30.7109080544      -33.2478314828       18.6204433364  MEMB      101             0.0000000000
     12482       101  PMPE      C1             29.1056028115      -31.0493666377       17.2861628066  MEMB      101             0.0000000000
     12483       101  PMPE      HA             30.1088050854      -31.3254821242       16.8967191407  MEMB      101             0.0000000000
     12484       101  PMPE      HB             29.1081434353      -29.9764446513       17.5745253016  MEMB      101             0.0000000000
     12485       101  PMPE      C2             28.0699267488      -31.0851726523       16.1463718118  MEMB      101             0.0000000000
     12486       101  PMPE      HS             27.1415541598      -30.6642329479       16.5882483904  MEMB      101             0.0000000000
     12487       101  PMPE      O21            27.9416915391      -32.5013162119       15.8098051280  MEMB      101             0.0000000000
     12488       101  PMPE      C21            26.7528985830      -32.8860295644       15.2542257131  MEMB      101             0.0000000000
     12489       101  PMPE      O22            25.7289563503      -32.2404300781       15.2421480956  MEMB      101             0.0000000000
     12490       101  PMPE      C22            26.9475852811      -34.3440692368       14.7275677544  MEMB      101             0.0000000000
     12491       101  PMPE      H2R            27.2411208225      -35.0496502750       15.5339877923  MEMB      101             0.0000000000
     12492       101  PMPE      H2S            27.7460818079      -34.2460790378       13.9613287343  MEMB      101             0.0000000000
     12493       101  PMPE      C3             28.5739881326      -30.2519614557       14.9183573864  MEMB      101             0.0000000000
     12494       101  PMPE      HX             28.7233692376      -29.1723526907       15.1338824863  MEMB      101             0.0000000000
     12495       101  PMPE      HY             27.7682032364      -30.2973639898       14.1548325931  MEMB      101             0.0000000000
     12496       101  PMPE      O31            29.8653241754      -30.7539899260       14.4692825008  MEMB      101             0.0000000000
     12497       101  PMPE      C31            29.9647020260      -31.4427444681       13.3701482079  MEMB      101             0.0000000000
     12498       101  PMPE      O32            28.9899860155      -31.9776175043       12.7981608149  MEMB      101             0.0000000000
     12499       101  PMPE      C32            31.3856760147      -31.4524856852       12.7709244057  MEMB      101             0.0000000000
     12500       101  PMPE      H2X            32.0328852398      -32.1220810414       13.3767986214  MEMB      101             0.0000000000
     12501       101  PMPE      H2Y            31.8331722267      -30.4372164515       12.8283368560  MEMB      101             0.0000000000
     12502       101  PMPE      C23            25.6425891530      -34.7604491755       13.9181102797  MEMB      101             0.0000000000
     12503       101  PMPE      H3R            24.7527070727      -34.2582669645       14.3542796497  MEMB      101             0.0000000000
     12504       101  PMPE      H3S            25.6151238276      -35.8528414944       14.1187243726  MEMB      101             0.0000000000
     12505       101  PMPE      C24            25.6854991599      -34.4614213486       12.3691042870  MEMB      101             0.0000000000
     12506       101  PMPE      H4R            24.9327284189      -35.1521799371       11.9326306008  MEMB      101             0.0000000000
     12507       101  PMPE      H4S            26.6286844759      -34.8164204229       11.9014526244  MEMB      101             0.0000000000
     12508       101  PMPE      C25            25.5120586973      -33.0217119679       11.9628672377  MEMB      101             0.0000000000
     12509       101  PMPE      H5R            26.4130565760      -32.4834486424       12.3272791805  MEMB      101             0.0000000000
     12510       101  PMPE      H5S            24.6433649164      -32.5612754185       12.4802552790  MEMB      101             0.0000000000
     12511       101  PMPE      C26            25.4093226425      -32.7862060201       10.4708576124  MEMB      101             0.0000000000
     12512       101  PMPE      H6R            24.9149962996      -31.8084347183       10.2866686677  MEMB      101             0.0000000000
     12513       101  PMPE      H6S            24.7887381030      -33.6103178641       10.0585038210  MEMB      101             0.0000000000
     12514       101  PMPE      C27            26.7791882057      -32.8184119229        9.8028974142  MEMB      101             0.0000000000
     12515       101  PMPE      H7R            27.1675211756      -33.8447122606        9.9767530847  MEMB      101             0.0000000000
     12516       101  PMPE      H7S            27.4284781723      -32.0778761366       10.3170474395  MEMB      101             0.0000000000
     12517       101  PMPE      C28            26.7133235497      -32.5390697411        8.3093047883  MEMB      101             0.0000000000
     12518       101  PMPE      H8R            26.1922491318      -31.5708810380        8.1498903966  MEMB      101             0.0000000000
     12519       101  PMPE      H8S            26.0792390539      -33.3266194822        7.8488446061  MEMB      101             0.0000000000
     12520       101  PMPE      C29            28.0173529258      -32.5941697929        7.5506567110  MEMB      101             0.0000000000
     12521       101  PMPE      H9R            28.7744202206      -31.9364559956        8.0287604200  MEMB      101             0.0000000000
     12522       101  PMPE      C217           27.8702491994      -32.6193648712        6.0272279819  MEMB      101             0.0000000000
     12523       101  PMPE      H17R           28.6283459436      -32.1486804569        5.4135224510  MEMB      101             0.0000000000
     12524       101  PMPE      H17S           26.8870317894      -32.8018023642        5.6114284691  MEMB      101             0.0000000000
     12525       101  PMPE      C210           28.4530267705      -33.8126792247        6.7766192840  MEMB      101             0.0000000000
     12526       101  PMPE      H10R           29.5467215550      -34.0080056440        6.7760966443  MEMB      101             0.0000000000
     12527       101  PMPE      C211           27.6223859063      -35.1216488802        6.9696394600  MEMB      101             0.0000000000
     12528       101  PMPE      H11R           26.6933525778      -35.1750236948        6.3627053790  MEMB      101             0.0000000000
     12529       101  PMPE      H11S           27.4885739954      -35.1996624566        8.0697889644  MEMB      101             0.0000000000
     12530       101  PMPE      C212           28.5809187755      -36.2008953844        6.6216258419  MEMB      101             0.0000000000
     12531       101  PMPE      H12R           28.1409586253      -37.1897689298        6.8723940353  MEMB      101             0.0000000000
     12532       101  PMPE      H12S           29.4421622018      -36.0008337194        7.2943496120  MEMB      101             0.0000000000
     12533       101  PMPE      C213           29.1130432700      -36.1397309643        5.1605827209  MEMB      101             0.0000000000
     12534       101  PMPE      H13R           30.0316290965      -36.7645501333        5.1716335035  MEMB      101             0.0000000000
     12535       101  PMPE      H13S           29.3648886803      -35.1198675020        4.7989564160  MEMB      101             0.0000000000
     12536       101  PMPE      C214           28.0909780963      -36.8209330246        4.2722198235  MEMB      101             0.0000000000
     12537       101  PMPE      H14R           27.1543268848      -36.2352388293        4.1540350764  MEMB      101             0.0000000000
     12538       101  PMPE      H14S           27.8690594918      -37.8031494487        4.7416073109  MEMB      101             0.0000000000
     12539       101  PMPE      C215           28.6209794353      -37.2470741460        2.8898388211  MEMB      101             0.0000000000
     12540       101  PMPE      H15R           28.8762901861      -36.2446803200        2.4844460824  MEMB      101             0.0000000000
     12541       101  PMPE      H15S           27.9147299072      -37.8102140455        2.2429957695  MEMB      101             0.0000000000
     12542       101  PMPE      C216           29.9580468660      -38.0674758127        2.8337068525  MEMB      101             0.0000000000
     12543       101  PMPE      H16R           30.0991693716      -38.5224376884        1.8300063535  MEMB      101             0.0000000000
     12544       101  PMPE      H16S           30.8893274675      -37.4623985794        2.8640241985  MEMB      101             0.0000000000
     12545       101  PMPE      H16T           29.9922831603      -38.8578553570        3.6137387425  MEMB      101             0.0000000000
     12546       101  PMPE      C33            31.4391578234      -32.0073134615       11.2816184868  MEMB      101             0.0000000000
     12547       101  PMPE      H3X            30.8381370256      -31.2782512890       10.6971843857  MEMB      101             0.0000000000
     12548       101  PMPE      H3Y            30.8501892150      -32.9310265556       11.0967105660  MEMB      101             0.0000000000
     12549       101  PMPE      C34            32.8581077006      -32.1217937679       10.6358121232  MEMB      101             0.0000000000
     12550       101  PMPE      H4X            33.5059837708      -32.8563410985       11.1602336951  MEMB      101             0.0000000000
     12551       101  PMPE      H4Y            33.3618642438      -31.1645418472       10.8892269483  MEMB      101             0.0000000000
     12552       101  PMPE      C35            32.9178743164      -32.1808869934        9.0893080313  MEMB      101             0.0000000000
     12553       101  PMPE      H5X            33.3505263486      -31.2611319604        8.6407738372  MEMB      101             0.0000000000
     12554       101  PMPE      H5Y            31.8571407253      -32.2204848090        8.7612884056  MEMB      101             0.0000000000
     12555       101  PMPE      C36            33.6645623294      -33.3515111288        8.3938699504  MEMB      101             0.0000000000
     12556       101  PMPE      H6X            33.0933907124      -34.3008033698        8.4771050477  MEMB      101             0.0000000000
     12557       101  PMPE      H6Y            34.5754202352      -33.5143427617        9.0088033478  MEMB      101             0.0000000000
     12558       101  PMPE      C37            34.2845857166      -33.1645247341        6.9904703754  MEMB      101             0.0000000000
     12559       101  PMPE      H7X            34.6001728651      -34.1686167370        6.6347657126  MEMB      101             0.0000000000
     12560       101  PMPE      H7Y            35.1607399182      -32.4824834446        7.0291296272  MEMB      101             0.0000000000
     12561       101  PMPE      C38            33.2281385046      -32.5835531825        5.9523249509  MEMB      101             0.0000000000
     12562       101  PMPE      H8X            32.8520152806      -31.6351669037        6.3921156764  MEMB      101             0.0000000000
     12563       101  PMPE      H8Y            32.3532514658      -33.2658861470        5.8947450108  MEMB      101             0.0000000000
     12564       101  PMPE      C39            33.7013324634      -32.3054631802        4.5020708764  MEMB      101             0.0000000000
     12565       101  PMPE      H9X            34.4965742153      -33.0721567135        4.3833576869  MEMB      101             0.0000000000
     12566       101  PMPE      H9Y            34.1912324799      -31.3097393688        4.4486568288  MEMB      101             0.0000000000
     12567       101  PMPE      C310           32.5533705942      -32.2933991423        3.4748010259  MEMB      101             0.0000000000
     12568       101  PMPE      H10X           31.7575738043      -31.5555933939        3.7128574893  MEMB      101             0.0000000000
     12569       101  PMPE      H10Y           32.0288833764      -33.2389549457        3.7300624952  MEMB      101             0.0000000000
     12570       101  PMPE      C311           33.0498137145      -32.2853012769        2.0437557089  MEMB      101             0.0000000000
     12571       101  PMPE      H11X           34.1221525082      -32.4985285057        1.8464118423  MEMB      101             0.0000000000
     12572       101  PMPE      H11Y           33.0264164477      -31.2188991844        1.7330153511  MEMB      101             0.0000000000
     12573       101  PMPE      C312           32.1606259724      -33.2243502297        1.1388168580  MEMB      101             0.0000000000
     12574       101  PMPE      H12X           31.1148763147      -32.9839566884        1.4268099013  MEMB      101             0.0000000000
     12575       101  PMPE      H12Y           32.3234840926      -34.3171557790        1.2553268584  MEMB      101             0.0000000000
     12576       101  PMPE      C313           32.3717532412      -33.1157877231       -0.3458441784  MEMB      101             0.0000000000
     12577       101  PMPE      H13X           33.4473057255      -33.3028395194       -0.5520459770  MEMB      101             0.0000000000
     12578       101  PMPE      H13Y           32.1956158509      -32.0637166642       -0.6563968366  MEMB      101             0.0000000000
     12579       101  PMPE      C314           31.5806199177      -34.1350694647       -1.2091172959  MEMB      101             0.0000000000
     12580       101  PMPE      H14X           32.1445763614      -35.0844061980       -1.0865067222  MEMB      101             0.0000000000
     12581       101  PMPE      H14Y           31.5651601903      -33.8835889742       -2.2911715998  MEMB      101             0.0000000000
     12582       101  PMPE      C315           30.0879676678      -34.2961852577       -0.6280910770  MEMB      101             0.0000000000
     12583       101  PMPE      H15X           30.1220125752      -34.5490069083        0.4532258629  MEMB      101             0.0000000000
     12584       101  PMPE      H15Y           29.6512107664      -35.1446697310       -1.1969821934  MEMB      101             0.0000000000
     12585       101  PMPE      C316           29.2690088625      -33.0378180779       -0.8305996104  MEMB      101             0.0000000000
     12586       101  PMPE      H16X           29.8579787572      -32.1476865432       -0.5222142700  MEMB      101             0.0000000000
     12587       101  PMPE      H16Y           28.3055922436      -33.0825197461       -0.2791000953  MEMB      101             0.0000000000
     12588       101  PMPE      H16Z           29.0395122664      -32.9992138960       -1.9169514752  MEMB      101             0.0000000000
     12589       102  PMPE      N              -8.9686499917       43.3550276844       21.1739326639  MEMB      102             0.0000000000
     12590       102  PMPE      HN1            -9.5711272950       43.4591580221       20.3326373307  MEMB      102             0.0000000000
     12591       102  PMPE      HN2            -9.4961102595       42.7296656203       21.8160447947  MEMB      102             0.0000000000
     12592       102  PMPE      HN3            -8.8191461236       44.1900497693       21.7755860101  MEMB      102             0.0000000000
     12593       102  PMPE      C12            -7.5850953387       42.8910558605       20.7147447029  MEMB      102             0.0000000000
     12594       102  PMPE      H12A           -7.6572737226       41.8060294457       20.4870853451  MEMB      102             0.0000000000
     12595       102  PMPE      H12B           -6.8419681949       42.9758991234       21.5362583859  MEMB      102             0.0000000000
     12596       102  PMPE      C11            -7.1126731610       43.3678982678       19.3388463218  MEMB      102             0.0000000000
     12597       102  PMPE      H11A           -7.7378455347       42.8705357773       18.5667640562  MEMB      102             0.0000000000
     12598       102  PMPE      H11B           -6.1601002274       42.9602141362       18.9379479358  MEMB      102             0.0000000000
     12599       102  PMPE      P              -8.0669578008       45.4818221208       18.1083712569  MEMB      102             0.0000000000
     12600       102  PMPE      O13            -7.2489209116       46.3089765487       17.2460523982  MEMB      102             0.0000000000
     12601       102  PMPE      O14            -9.1256017607       46.1786308983       18.9235101921  MEMB      102             0.0000000000
     12602       102  PMPE      O11            -8.6728325086       44.2219791351       17.3450881492  MEMB      102             0.0000000000
     12603       102  PMPE      O12            -7.0475754885       44.7700926837       19.1494543180  MEMB      102             0.0000000000
     12604       102  PMPE      C1             -9.3814299869       44.4074244049       16.1602481396  MEMB      102             0.0000000000
     12605       102  PMPE      HA             -9.5040285828       45.4476856102       15.7899141325  MEMB      102             0.0000000000
     12606       102  PMPE      HB            -10.4002875027       44.0166734868       16.3689682687  MEMB      102             0.0000000000
     12607       102  PMPE      C2             -8.8141165631       43.6678004943       14.9825177051  MEMB      102             0.0000000000
     12608       102  PMPE      HS             -8.5602195203       42.6832589137       15.4303290331  MEMB      102             0.0000000000
     12609       102  PMPE      O21            -7.5846584330       44.2753585583       14.4896360015  MEMB      102             0.0000000000
     12610       102  PMPE      C21            -6.8913662193       43.5269886789       13.5653291948  MEMB      102             0.0000000000
     12611       102  PMPE      O22            -6.9880078383       42.3136170886       13.4058094028  MEMB      102             0.0000000000
     12612       102  PMPE      C22            -6.0407246148       44.4741411180       12.7103688283  MEMB      102             0.0000000000
     12613       102  PMPE      H2R            -4.9848220472       44.3405580203       13.0290320389  MEMB      102             0.0000000000
     12614       102  PMPE      H2S            -6.3666800819       45.5239503481       12.8715348642  MEMB      102             0.0000000000
     12615       102  PMPE      C3             -9.8075244722       43.6025443314       13.7866649526  MEMB      102             0.0000000000
     12616       102  PMPE      HX            -10.7029407199       43.1167939621       14.2300579040  MEMB      102             0.0000000000
     12617       102  PMPE      HY             -9.2896950359       42.9027324041       13.0964204516  MEMB      102             0.0000000000
     12618       102  PMPE      O31           -10.1517624033       44.8529197309       13.2564598485  MEMB      102             0.0000000000
     12619       102  PMPE      C31           -11.0623328098       44.7319604751       12.2227417210  MEMB      102             0.0000000000
     12620       102  PMPE      O32           -11.4519692847       43.7556287637       11.6127648554  MEMB      102             0.0000000000
     12621       102  PMPE      C32           -11.4691870260       46.1892090995       11.8335013952  MEMB      102             0.0000000000
     12622       102  PMPE      H2X           -11.2210164238       46.9057284166       12.6454942754  MEMB      102             0.0000000000
     12623       102  PMPE      H2Y           -12.5792043237       46.2213746681       11.7996123973  MEMB      102             0.0000000000
     12624       102  PMPE      C23            -6.2745610336       44.0821225707       11.1883281714  MEMB      102             0.0000000000
     12625       102  PMPE      H3R            -7.2039013580       44.5121593579       10.7573803654  MEMB      102             0.0000000000
     12626       102  PMPE      H3S            -6.4894854524       42.9927885217       11.1498583196  MEMB      102             0.0000000000
     12627       102  PMPE      C24            -5.1252714776       44.5625183104       10.1902823460  MEMB      102             0.0000000000
     12628       102  PMPE      H4R            -5.3239616554       44.1871947529        9.1636497359  MEMB      102             0.0000000000
     12629       102  PMPE      H4S            -4.1635213474       44.1531405930       10.5668034141  MEMB      102             0.0000000000
     12630       102  PMPE      C25            -4.8240051500       46.0870185560       10.1375344125  MEMB      102             0.0000000000
     12631       102  PMPE      H5R            -3.9122978750       46.1010153739        9.5027794198  MEMB      102             0.0000000000
     12632       102  PMPE      H5S            -4.4434944646       46.4972238989       11.0973594904  MEMB      102             0.0000000000
     12633       102  PMPE      C26            -5.8812669322       46.8015078452        9.3695391197  MEMB      102             0.0000000000
     12634       102  PMPE      H6R            -5.7820018722       47.9069238686        9.4197708004  MEMB      102             0.0000000000
     12635       102  PMPE      H6S            -6.8096815427       46.4750544056        9.8850926766  MEMB      102             0.0000000000
     12636       102  PMPE      C27            -6.0680701659       46.5416262670        7.8202987697  MEMB      102             0.0000000000
     12637       102  PMPE      H7R            -6.3426639572       45.4728487269        7.6913255811  MEMB      102             0.0000000000
     12638       102  PMPE      H7S            -5.1488418670       46.8059549191        7.2550811993  MEMB      102             0.0000000000
     12639       102  PMPE      C28            -7.1563895941       47.3772111235        7.1233550055  MEMB      102             0.0000000000
     12640       102  PMPE      H8R            -8.1984294358       47.0542689984        7.3335518024  MEMB      102             0.0000000000
     12641       102  PMPE      H8S            -7.1201115433       47.0376302818        6.0661466223  MEMB      102             0.0000000000
     12642       102  PMPE      C29            -6.9061941030       48.8656071220        7.2324172339  MEMB      102             0.0000000000
     12643       102  PMPE      H9R            -5.8193642608       49.0709652439        7.1277738388  MEMB      102             0.0000000000
     12644       102  PMPE      C217           -7.6169101149       49.4876898204        8.4166189418  MEMB      102             0.0000000000
     12645       102  PMPE      H17R           -6.9645450534       50.1956204924        8.9127467689  MEMB      102             0.0000000000
     12646       102  PMPE      H17S           -8.3464365562       48.7861111583        8.8019341435  MEMB      102             0.0000000000
     12647       102  PMPE      C210           -7.9022724379       49.8776449406        6.9790191693  MEMB      102             0.0000000000
     12648       102  PMPE      H10R           -7.4777608724       50.8805168726        6.7591125615  MEMB      102             0.0000000000
     12649       102  PMPE      C211           -9.3042676692       49.3843022095        6.4138944812  MEMB      102             0.0000000000
     12650       102  PMPE      H11R          -10.0214300078       50.2157201645        6.5834355443  MEMB      102             0.0000000000
     12651       102  PMPE      H11S           -9.6507824898       48.5311324104        7.0354648770  MEMB      102             0.0000000000
     12652       102  PMPE      C212           -9.2906749408       48.8916980053        4.9032202369  MEMB      102             0.0000000000
     12653       102  PMPE      H12R          -10.3686914554       48.6569340153        4.7725018280  MEMB      102             0.0000000000
     12654       102  PMPE      H12S           -8.8501488607       47.8735765791        4.8425069295  MEMB      102             0.0000000000
     12655       102  PMPE      C213           -8.6933708481       49.8024371678        3.8603482153  MEMB      102             0.0000000000
     12656       102  PMPE      H13R           -7.6457072519       49.9348913238        4.2055694098  MEMB      102             0.0000000000
     12657       102  PMPE      H13S           -9.1676257628       50.8062938385        3.9012748893  MEMB      102             0.0000000000
     12658       102  PMPE      C214           -8.6784948549       49.1288665089        2.4672396428  MEMB      102             0.0000000000
     12659       102  PMPE      H14R           -8.1655102653       49.7307320453        1.6869024296  MEMB      102             0.0000000000
     12660       102  PMPE      H14S           -9.7020963899       48.8347694733        2.1509049706  MEMB      102             0.0000000000
     12661       102  PMPE      C215           -7.9300474075       47.7822988184        2.4644408510  MEMB      102             0.0000000000
     12662       102  PMPE      H15R           -8.5193723363       47.1055956258        3.1194895649  MEMB      102             0.0000000000
     12663       102  PMPE      H15S           -6.8808987102       47.8530953158        2.8230431994  MEMB      102             0.0000000000
     12664       102  PMPE      C216           -7.9263414463       47.1191296196        1.0325922233  MEMB      102             0.0000000000
     12665       102  PMPE      H16R           -8.9931511613       47.2379041105        0.7460077375  MEMB      102             0.0000000000
     12666       102  PMPE      H16S           -7.2030342292       47.7208813645        0.4417950018  MEMB      102             0.0000000000
     12667       102  PMPE      H16T           -7.5631898266       46.0725288255        1.1166665519  MEMB      102             0.0000000000
     12668       102  PMPE      C33           -10.8413931481       46.5642660643       10.4828886594  MEMB      102             0.0000000000
     12669       102  PMPE      H3X            -9.7673299800       46.2842308891       10.4350378737  MEMB      102             0.0000000000
     12670       102  PMPE      H3Y           -10.8180949503       47.6749506586       10.4703207428  MEMB      102             0.0000000000
     12671       102  PMPE      C34           -11.7648316474       46.1219282532        9.2652858710  MEMB      102             0.0000000000
     12672       102  PMPE      H4X           -12.4897738667       46.9281100938        9.0226937488  MEMB      102             0.0000000000
     12673       102  PMPE      H4Y           -12.3658922446       45.2358546044        9.5617995912  MEMB      102             0.0000000000
     12674       102  PMPE      C35           -11.0900718830       45.7892124386        7.8727961018  MEMB      102             0.0000000000
     12675       102  PMPE      H5X           -10.5061161616       46.6531109095        7.4893945606  MEMB      102             0.0000000000
     12676       102  PMPE      H5Y           -11.9293736392       45.6084868839        7.1676485685  MEMB      102             0.0000000000
     12677       102  PMPE      C36           -10.2456251730       44.5367344174        7.9178474811  MEMB      102             0.0000000000
     12678       102  PMPE      H6X           -10.6809790555       43.5983149849        8.3230100374  MEMB      102             0.0000000000
     12679       102  PMPE      H6Y            -9.3312355972       44.7369513370        8.5162832048  MEMB      102             0.0000000000
     12680       102  PMPE      C37            -9.5824689707       44.2575013208        6.5159726815  MEMB      102             0.0000000000
     12681       102  PMPE      H7X            -8.6795984433       43.6104600734        6.5379618411  MEMB      102             0.0000000000
     12682       102  PMPE      H7Y            -9.1133822512       45.1431039716        6.0364029970  MEMB      102             0.0000000000
     12683       102  PMPE      C38           -10.7436136567       43.7534254746        5.5357010462  MEMB      102             0.0000000000
     12684       102  PMPE      H8X           -11.3378100068       44.6485320464        5.2527951337  MEMB      102             0.0000000000
     12685       102  PMPE      H8Y           -11.3375510901       43.0984065859        6.2083893101  MEMB      102             0.0000000000
     12686       102  PMPE      C39           -10.0467064206       43.0428983769        4.3595897487  MEMB      102             0.0000000000
     12687       102  PMPE      H9X            -9.3384864491       42.2365040997        4.6467716795  MEMB      102             0.0000000000
     12688       102  PMPE      H9Y            -9.5004753305       43.8126295544        3.7735294214  MEMB      102             0.0000000000
     12689       102  PMPE      C310          -11.0898935708       42.2241583527        3.4965029977  MEMB      102             0.0000000000
     12690       102  PMPE      H10X          -11.8948753229       42.8730330387        3.0899477673  MEMB      102             0.0000000000
     12691       102  PMPE      H10Y          -11.6596792681       41.5299810944        4.1505547439  MEMB      102             0.0000000000
     12692       102  PMPE      C311          -10.5197088652       41.4179674540        2.3306206557  MEMB      102             0.0000000000
     12693       102  PMPE      H11X          -11.3300084246       40.9298103377        1.7480081734  MEMB      102             0.0000000000
     12694       102  PMPE      H11Y          -10.0027898683       40.4962592537        2.6735065831  MEMB      102             0.0000000000
     12695       102  PMPE      C312           -9.6228489177       42.1692263147        1.3231673819  MEMB      102             0.0000000000
     12696       102  PMPE      H12X           -9.0892060206       41.6050400465        0.5286606391  MEMB      102             0.0000000000
     12697       102  PMPE      H12Y           -8.8465857112       42.7289079478        1.8875197553  MEMB      102             0.0000000000
     12698       102  PMPE      C313          -10.3689612175       43.2429986570        0.5705317698  MEMB      102             0.0000000000
     12699       102  PMPE      H13X          -10.8621694291       43.9062654318        1.3129224132  MEMB      102             0.0000000000
     12700       102  PMPE      H13Y          -11.1994889909       42.8564089466       -0.0580311655  MEMB      102             0.0000000000
     12701       102  PMPE      C314           -9.4605144241       44.1913186806       -0.2630548497  MEMB      102             0.0000000000
     12702       102  PMPE      H14X           -8.4991563229       44.2531660920        0.2903759656  MEMB      102             0.0000000000
     12703       102  PMPE      H14Y           -9.8908818773       45.2152851929       -0.2875010349  MEMB      102             0.0000000000
     12704       102  PMPE      C315           -9.0214165529       43.6813304443       -1.6767888536  MEMB      102             0.0000000000
     12705       102  PMPE      H15X           -9.8907655354       43.4477364286       -2.3279317942  MEMB      102             0.0000000000
     12706       102  PMPE      H15Y           -8.5153084889       42.7106219685       -1.4873139229  MEMB      102             0.0000000000
     12707       102  PMPE      C316           -8.0471169085       44.6205524701       -2.2891988264  MEMB      102             0.0000000000
     12708       102  PMPE      H16X           -7.0972254640       44.7004091788       -1.7185412643  MEMB      102             0.0000000000
     12709       102  PMPE      H16Y           -8.4600062018       45.6424699609       -2.4289416290  MEMB      102             0.0000000000
     12710       102  PMPE      H16Z           -7.6356636801       44.3274235917       -3.2786945675  MEMB      102             0.0000000000
     12711       103  PMPG      C13           -23.7808149385      -38.7423902137       21.0351509166  MEMB      103             0.0000000000
     12712       103  PMPG      H13A          -23.9748059934      -38.9433672501       22.1104632407  MEMB      103             0.0000000000
     12713       103  PMPG      H13B          -24.4716802311      -39.4760306090       20.5673926319  MEMB      103             0.0000000000
     12714       103  PMPG      OC3           -22.4002136420      -39.1099236331       20.9047810907  MEMB      103             0.0000000000
     12715       103  PMPG      HO3           -22.3228098126      -39.4937856538       20.0282774602  MEMB      103             0.0000000000
     12716       103  PMPG      C12           -24.1603453211      -37.3103081535       20.5582904601  MEMB      103             0.0000000000
     12717       103  PMPG      H12A          -23.3847337260      -36.6134981754       20.9528301260  MEMB      103             0.0000000000
     12718       103  PMPG      OC2           -25.4202003474      -36.9256282972       21.1104024151  MEMB      103             0.0000000000
     12719       103  PMPG      HO2           -25.6184239556      -36.0844846841       20.6436030329  MEMB      103             0.0000000000
     12720       103  PMPG      C11           -24.2115737852      -37.0710307530       19.0250983847  MEMB      103             0.0000000000
     12721       103  PMPG      H11A          -23.2779381788      -37.4052897159       18.5241826795  MEMB      103             0.0000000000
     12722       103  PMPG      H11B          -24.3288688743      -35.9929673374       18.7835570615  MEMB      103             0.0000000000
     12723       103  PMPG      P             -25.2920544726      -39.0159275642       17.4961519076  MEMB      103             0.0000000000
     12724       103  PMPG      O13           -25.1565441678      -40.3055238556       18.2246690402  MEMB      103             0.0000000000
     12725       103  PMPG      O14           -24.2818494297      -38.7272331569       16.4245200562  MEMB      103             0.0000000000
     12726       103  PMPG      O11           -26.7579439295      -39.0788533846       16.8149236518  MEMB      103             0.0000000000
     12727       103  PMPG      O12           -25.3523109208      -37.7432280044       18.4060121270  MEMB      103             0.0000000000
     12728       103  PMPG      C1            -27.8692651190      -39.2143189731       17.7453161153  MEMB      103             0.0000000000
     12729       103  PMPG      HA            -28.3291443579      -38.3348772816       18.2447299933  MEMB      103             0.0000000000
     12730       103  PMPG      HB            -27.6646436220      -39.9720794755       18.5316049314  MEMB      103             0.0000000000
     12731       103  PMPG      C2            -29.1762696227      -39.8191090823       17.0144533790  MEMB      103             0.0000000000
     12732       103  PMPG      HS            -29.8304806429      -40.3324501529       17.7512096866  MEMB      103             0.0000000000
     12733       103  PMPG      O21           -28.9078295536      -40.7850009528       15.9750861625  MEMB      103             0.0000000000
     12734       103  PMPG      C21           -28.0848934440      -41.6958905502       16.3495210304  MEMB      103             0.0000000000
     12735       103  PMPG      O22           -27.8600902655      -42.0416085957       17.4860075355  MEMB      103             0.0000000000
     12736       103  PMPG      C22           -27.2210927246      -42.2157966531       15.1671291602  MEMB      103             0.0000000000
     12737       103  PMPG      H2R           -27.4961273176      -41.6986549281       14.2230735010  MEMB      103             0.0000000000
     12738       103  PMPG      H2S           -27.3733525442      -43.3077682053       15.0302480071  MEMB      103             0.0000000000
     12739       103  PMPG      C3            -29.9805935641      -38.6616660944       16.3670305129  MEMB      103             0.0000000000
     12740       103  PMPG      HX            -30.5954851090      -38.1410525636       17.1320083099  MEMB      103             0.0000000000
     12741       103  PMPG      HY            -30.7470642900      -39.1777354253       15.7501711386  MEMB      103             0.0000000000
     12742       103  PMPG      O31           -29.2185233300      -37.7914860235       15.6534817349  MEMB      103             0.0000000000
     12743       103  PMPG      C31           -28.8091321392      -38.0793578334       14.4848173322  MEMB      103             0.0000000000
     12744       103  PMPG      O32           -29.1032776875      -39.0807625090       13.8363379549  MEMB      103             0.0000000000
     12745       103  PMPG      C32           -27.8723558134      -37.0151223784       13.8758044862  MEMB      103             0.0000000000
     12746       103  PMPG      H2X           -27.5371420207      -36.2988723700       14.6561495662  MEMB      103             0.0000000000
     12747       103  PMPG      H2Y           -28.3496459157      -36.7308910410       12.9136569679  MEMB      103             0.0000000000
     12748       103  PMPG      C23           -25.7239299210      -42.2459812952       15.3750763373  MEMB      103             0.0000000000
     12749       103  PMPG      H3R           -25.5001373330      -42.7691225819       16.3293096850  MEMB      103             0.0000000000
     12750       103  PMPG      H3S           -25.3507810848      -41.2217246519       15.5895036685  MEMB      103             0.0000000000
     12751       103  PMPG      C24           -24.8092608508      -43.0575865928       14.3492986952  MEMB      103             0.0000000000
     12752       103  PMPG      H4R           -24.9415338392      -44.1563446629       14.4470521524  MEMB      103             0.0000000000
     12753       103  PMPG      H4S           -23.7679698386      -42.7308590977       14.5573453481  MEMB      103             0.0000000000
     12754       103  PMPG      C25           -25.1380413476      -42.7274379248       12.8589649261  MEMB      103             0.0000000000
     12755       103  PMPG      H5R           -26.2143236840      -42.9426090525       12.6868064610  MEMB      103             0.0000000000
     12756       103  PMPG      H5S           -24.5418288804      -43.4434464009       12.2538339299  MEMB      103             0.0000000000
     12757       103  PMPG      C26           -24.8484350791      -41.3322974415       12.4353566287  MEMB      103             0.0000000000
     12758       103  PMPG      H6R           -23.7919209940      -41.0624167809       12.6481089929  MEMB      103             0.0000000000
     12759       103  PMPG      H6S           -25.4749209502      -40.7062786337       13.1061298082  MEMB      103             0.0000000000
     12760       103  PMPG      C27           -25.1141718582      -40.9723357350       10.8864041538  MEMB      103             0.0000000000
     12761       103  PMPG      H7R           -25.0141891215      -39.8660617294       10.8644417809  MEMB      103             0.0000000000
     12762       103  PMPG      H7S           -26.1554370881      -41.2326469077       10.5994789033  MEMB      103             0.0000000000
     12763       103  PMPG      C28           -24.0963377108      -41.5025801467        9.8332272854  MEMB      103             0.0000000000
     12764       103  PMPG      H8R           -24.3220163010      -42.5348779914        9.4900784010  MEMB      103             0.0000000000
     12765       103  PMPG      H8S           -23.0347562225      -41.3863585653       10.1395911374  MEMB      103             0.0000000000
     12766       103  PMPG      C29           -24.1552492743      -40.6143960175        8.5177430846  MEMB      103             0.0000000000
     12767       103  PMPG      H9R           -23.5387310591      -39.6984173592        8.3944165321  MEMB      103             0.0000000000
     12768       103  PMPG      C217          -23.9742652772      -41.4341133414        7.2727474542  MEMB      103             0.0000000000
     12769       103  PMPG      H17R          -23.6804519881      -40.9354897655        6.3573584135  MEMB      103             0.0000000000
     12770       103  PMPG      H17S          -23.8123475923      -42.4885640642        7.4593096844  MEMB      103             0.0000000000
     12771       103  PMPG      C210          -25.3394075764      -40.7349872496        7.5723892413  MEMB      103             0.0000000000
     12772       103  PMPG      H10R          -25.6042805037      -39.8448685782        6.9625920697  MEMB      103             0.0000000000
     12773       103  PMPG      C211          -26.4825060541      -41.7655820807        7.9038295141  MEMB      103             0.0000000000
     12774       103  PMPG      H11R          -25.9583510019      -42.5428425576        8.5000248042  MEMB      103             0.0000000000
     12775       103  PMPG      H11S          -27.2704268621      -41.2997946089        8.5335467475  MEMB      103             0.0000000000
     12776       103  PMPG      C212          -27.0711859489      -42.4883921119        6.7074318644  MEMB      103             0.0000000000
     12777       103  PMPG      H12R          -27.5096752682      -41.7450664166        6.0077785733  MEMB      103             0.0000000000
     12778       103  PMPG      H12S          -27.9083142840      -43.1318872574        7.0530492802  MEMB      103             0.0000000000
     12779       103  PMPG      C213          -26.0954100822      -43.3594401807        5.9371851834  MEMB      103             0.0000000000
     12780       103  PMPG      H13R          -25.4640035354      -43.9080734957        6.6683812451  MEMB      103             0.0000000000
     12781       103  PMPG      H13S          -25.4045756699      -42.6383274200        5.4502918631  MEMB      103             0.0000000000
     12782       103  PMPG      C214          -26.6965068868      -44.3867795037        4.9470758466  MEMB      103             0.0000000000
     12783       103  PMPG      H14R          -27.5154845004      -43.9428415010        4.3416700111  MEMB      103             0.0000000000
     12784       103  PMPG      H14S          -27.2023080730      -45.0831957060        5.6495645754  MEMB      103             0.0000000000
     12785       103  PMPG      C215          -25.7506833309      -45.2173865456        4.0239658119  MEMB      103             0.0000000000
     12786       103  PMPG      H15R          -26.3876833030      -46.0730919103        3.7136107309  MEMB      103             0.0000000000
     12787       103  PMPG      H15S          -25.0123637951      -45.5665185586        4.7771668052  MEMB      103             0.0000000000
     12788       103  PMPG      C216          -25.0881292044      -44.5032798420        2.9323733680  MEMB      103             0.0000000000
     12789       103  PMPG      H16R          -24.3544908768      -45.1514974876        2.4071022622  MEMB      103             0.0000000000
     12790       103  PMPG      H16S          -24.5089706692      -43.6909128411        3.4212037315  MEMB      103             0.0000000000
     12791       103  PMPG      H16T          -25.7181002144      -43.9920735038        2.1733442665  MEMB      103             0.0000000000
     12792       103  PMPG      C33           -26.5092845529      -37.6965951149       13.4341454490  MEMB      103             0.0000000000
     12793       103  PMPG      H3X           -26.8029198665      -38.3791745130       12.6082004664  MEMB      103             0.0000000000
     12794       103  PMPG      H3Y           -25.9867805194      -38.2638645355       14.2338428502  MEMB      103             0.0000000000
     12795       103  PMPG      C34           -25.5230335351      -36.7450106695       12.7253113768  MEMB      103             0.0000000000
     12796       103  PMPG      H4X           -24.6380752728      -37.4016699729       12.5840016038  MEMB      103             0.0000000000
     12797       103  PMPG      H4Y           -25.1767789145      -35.8865345475       13.3396787977  MEMB      103             0.0000000000
     12798       103  PMPG      C35           -26.0057192709      -36.3160905284       11.3087959708  MEMB      103             0.0000000000
     12799       103  PMPG      H5X           -26.9275184442      -35.6960055475       11.2986867739  MEMB      103             0.0000000000
     12800       103  PMPG      H5Y           -26.2687096061      -37.2537823594       10.7741086881  MEMB      103             0.0000000000
     12801       103  PMPG      C36           -24.9146735056      -35.5378427748       10.4880155895  MEMB      103             0.0000000000
     12802       103  PMPG      H6X           -24.1412218318      -36.3235446725       10.3510266179  MEMB      103             0.0000000000
     12803       103  PMPG      H6Y           -24.4778068644      -34.6927985369       11.0619218029  MEMB      103             0.0000000000
     12804       103  PMPG      C37           -25.3998379201      -35.0983050684        9.0652776361  MEMB      103             0.0000000000
     12805       103  PMPG      H7X           -26.2956282245      -34.4733690313        9.2685889522  MEMB      103             0.0000000000
     12806       103  PMPG      H7Y           -25.7986721761      -36.0121830842        8.5752989040  MEMB      103             0.0000000000
     12807       103  PMPG      C38           -24.3150606069      -34.4215922701        8.1374272241  MEMB      103             0.0000000000
     12808       103  PMPG      H8X           -24.1212650200      -33.5259602551        8.7656043949  MEMB      103             0.0000000000
     12809       103  PMPG      H8Y           -24.6837157806      -34.0933426923        7.1421051911  MEMB      103             0.0000000000
     12810       103  PMPG      C39           -23.1728627999      -35.3989142511        7.9793238312  MEMB      103             0.0000000000
     12811       103  PMPG      H9X           -22.8060007855      -35.6410187107        8.9996764921  MEMB      103             0.0000000000
     12812       103  PMPG      H9Y           -22.4098789304      -34.8897261580        7.3525028096  MEMB      103             0.0000000000
     12813       103  PMPG      C310          -23.3450409395      -36.7591995523        7.2191205800  MEMB      103             0.0000000000
     12814       103  PMPG      H10X          -24.2800774635      -37.1656840432        7.6604798019  MEMB      103             0.0000000000
     12815       103  PMPG      H10Y          -22.4857956367      -37.4634053108        7.2085061655  MEMB      103             0.0000000000
     12816       103  PMPG      C311          -23.5480461293      -36.4766382101        5.8068781044  MEMB      103             0.0000000000
     12817       103  PMPG      H11X          -22.7493862979      -35.8645496346        5.3359107141  MEMB      103             0.0000000000
     12818       103  PMPG      H11Y          -24.5004571055      -35.9429001840        5.6010676561  MEMB      103             0.0000000000
     12819       103  PMPG      C312          -23.8134760033      -37.7373718720        5.0184191880  MEMB      103             0.0000000000
     12820       103  PMPG      H12X          -24.5552391120      -38.3906085529        5.5257555538  MEMB      103             0.0000000000
     12821       103  PMPG      H12Y          -22.8753023767      -38.3129293343        5.1696968886  MEMB      103             0.0000000000
     12822       103  PMPG      C313          -23.9567290492      -37.5415851183        3.5238656417  MEMB      103             0.0000000000
     12823       103  PMPG      H13X          -22.9590250108      -37.4398293955        3.0457927799  MEMB      103             0.0000000000
     12824       103  PMPG      H13Y          -24.4676981373      -36.5629037375        3.3997102028  MEMB      103             0.0000000000
     12825       103  PMPG      C314          -24.8586985706      -38.5183726479        2.8075468996  MEMB      103             0.0000000000
     12826       103  PMPG      H14X          -24.8603173252      -38.2158983939        1.7385163539  MEMB      103             0.0000000000
     12827       103  PMPG      H14Y          -25.8809145578      -38.3817056267        3.2207262959  MEMB      103             0.0000000000
     12828       103  PMPG      C315          -24.4897950268      -40.0031102948        2.9747058404  MEMB      103             0.0000000000
     12829       103  PMPG      H15X          -25.2697364193      -40.5710765822        2.4238640199  MEMB      103             0.0000000000
     12830       103  PMPG      H15Y          -24.4610444607      -40.3995787666        4.0121584375  MEMB      103             0.0000000000
     12831       103  PMPG      C316          -23.1528823314      -40.4197548484        2.3645812771  MEMB      103             0.0000000000
     12832       103  PMPG      H16X          -22.3434776372      -39.7286825117        2.6833337500  MEMB      103             0.0000000000
     12833       103  PMPG      H16Y          -23.3389870321      -40.4435306377        1.2695365240  MEMB      103             0.0000000000
     12834       103  PMPG      H16Z          -22.8844555746      -41.4206978675        2.7650572781  MEMB      103             0.0000000000
     12835       104  PMPE      N               6.9347051787       44.8801700674       17.8725800623  MEMB      104             0.0000000000
     12836       104  PMPE      HN1             6.6340752851       45.5217295677       18.6339099854  MEMB      104             0.0000000000
     12837       104  PMPE      HN2             7.8897989954       45.1088993216       17.5304123924  MEMB      104             0.0000000000
     12838       104  PMPE      HN3             6.3135157060       44.8036873731       17.0419935817  MEMB      104             0.0000000000
     12839       104  PMPE      C12             7.1702542141       43.5451111798       18.5361011570  MEMB      104             0.0000000000
     12840       104  PMPE      H12A            7.1584272750       42.6936181185       17.8225599745  MEMB      104             0.0000000000
     12841       104  PMPE      H12B            6.2919382895       43.3647104455       19.1921024377  MEMB      104             0.0000000000
     12842       104  PMPE      C11             8.4596048281       43.5027570479       19.4322596621  MEMB      104             0.0000000000
     12843       104  PMPE      H11A            8.7516028433       42.4396940004       19.5699378866  MEMB      104             0.0000000000
     12844       104  PMPE      H11B            8.2242528438       43.9636077028       20.4153910127  MEMB      104             0.0000000000
     12845       104  PMPE      P              10.3768847529       45.2368101667       19.3570945965  MEMB      104             0.0000000000
     12846       104  PMPE      O13            11.2159459552       44.7073168603       20.3815773980  MEMB      104             0.0000000000
     12847       104  PMPE      O14             9.5659198293       46.4378324211       19.7155930161  MEMB      104             0.0000000000
     12848       104  PMPE      O11            11.1980089862       45.6166696598       18.0298232714  MEMB      104             0.0000000000
     12849       104  PMPE      O12             9.4578632908       44.1022246075       18.6749708365  MEMB      104             0.0000000000
     12850       104  PMPE      C1             12.0424683559       44.7748678323       17.2686271513  MEMB      104             0.0000000000
     12851       104  PMPE      HA             11.9580277333       43.6927959328       17.5059269919  MEMB      104             0.0000000000
     12852       104  PMPE      HB             13.0815834279       45.1481310660       17.3920583217  MEMB      104             0.0000000000
     12853       104  PMPE      C2             11.5578778973       44.7747457326       15.8236280549  MEMB      104             0.0000000000
     12854       104  PMPE      HS             12.4047577882       44.5402496546       15.1438286716  MEMB      104             0.0000000000
     12855       104  PMPE      O21            10.9521123771       46.0258190220       15.4303698167  MEMB      104             0.0000000000
     12856       104  PMPE      C21            11.7283084488       47.1124041821       15.5165403099  MEMB      104             0.0000000000
     12857       104  PMPE      O22            12.9167275418       47.0854756231       15.6750923996  MEMB      104             0.0000000000
     12858       104  PMPE      C22            10.8203445685       48.3562837283       15.4068699789  MEMB      104             0.0000000000
     12859       104  PMPE      H2R            11.4976288972       49.2290172251       15.5249530476  MEMB      104             0.0000000000
     12860       104  PMPE      H2S            10.0744477124       48.3792637727       16.2299318258  MEMB      104             0.0000000000
     12861       104  PMPE      C3             10.5703099158       43.5768730775       15.5365197757  MEMB      104             0.0000000000
     12862       104  PMPE      HX              9.6825835252       43.7439449701       16.1833193564  MEMB      104             0.0000000000
     12863       104  PMPE      HY             11.0888185162       42.6352092784       15.8171247956  MEMB      104             0.0000000000
     12864       104  PMPE      O31            10.2408804671       43.6177280834       14.1115457343  MEMB      104             0.0000000000
     12865       104  PMPE      C31             9.0819476540       44.1726741549       13.7873738633  MEMB      104             0.0000000000
     12866       104  PMPE      O32             8.3470612376       44.7882447187       14.5996476932  MEMB      104             0.0000000000
     12867       104  PMPE      C32             8.9675331772       44.2782561621       12.2953797601  MEMB      104             0.0000000000
     12868       104  PMPE      H2X             9.9195360393       44.0890280140       11.7548204523  MEMB      104             0.0000000000
     12869       104  PMPE      H2Y             8.5896032623       45.3017619586       12.0857943386  MEMB      104             0.0000000000
     12870       104  PMPE      C23            10.0492832173       48.4097387571       14.0587292416  MEMB      104             0.0000000000
     12871       104  PMPE      H3R             9.3584274765       49.2779787383       14.0021734068  MEMB      104             0.0000000000
     12872       104  PMPE      H3S             9.5061371283       47.4636783708       13.8482936603  MEMB      104             0.0000000000
     12873       104  PMPE      C24            10.9145167293       48.6462907914       12.8140717734  MEMB      104             0.0000000000
     12874       104  PMPE      H4R            11.6501296164       47.8178740222       12.7308830462  MEMB      104             0.0000000000
     12875       104  PMPE      H4S            11.4857985845       49.5990948840       12.8251189163  MEMB      104             0.0000000000
     12876       104  PMPE      C25            10.1825301830       48.5426982687       11.4032377793  MEMB      104             0.0000000000
     12877       104  PMPE      H5R             9.5217022751       47.6502675168       11.3686740896  MEMB      104             0.0000000000
     12878       104  PMPE      H5S            10.9769674647       48.3951893885       10.6407213007  MEMB      104             0.0000000000
     12879       104  PMPE      C26             9.3189743936       49.7900301863       11.1098378825  MEMB      104             0.0000000000
     12880       104  PMPE      H6R             9.3596020995       50.4666513321       11.9900960381  MEMB      104             0.0000000000
     12881       104  PMPE      H6S             8.2261889546       49.5898998287       11.1192726961  MEMB      104             0.0000000000
     12882       104  PMPE      C27             9.6246622022       50.5005506449        9.7610680135  MEMB      104             0.0000000000
     12883       104  PMPE      H7R            10.6435562850       50.9417252839        9.7218194806  MEMB      104             0.0000000000
     12884       104  PMPE      H7S             8.7945687494       51.2389710449        9.7601757661  MEMB      104             0.0000000000
     12885       104  PMPE      C28             9.7047067752       49.6139732353        8.4666551565  MEMB      104             0.0000000000
     12886       104  PMPE      H8R            10.4452361147       48.8116554838        8.6721391529  MEMB      104             0.0000000000
     12887       104  PMPE      H8S            10.0513855057       50.2379936909        7.6153420017  MEMB      104             0.0000000000
     12888       104  PMPE      C29             8.3157131726       48.9330433823        8.2499520433  MEMB      104             0.0000000000
     12889       104  PMPE      H9R             7.4660274739       49.6207557045        8.4484635558  MEMB      104             0.0000000000
     12890       104  PMPE      C217            8.1918554384       47.4584525446        8.5106764990  MEMB      104             0.0000000000
     12891       104  PMPE      H17R            7.1797580679       47.1188523709        8.6929390601  MEMB      104             0.0000000000
     12892       104  PMPE      H17S            9.1400557869       47.0166917178        8.7911267189  MEMB      104             0.0000000000
     12893       104  PMPE      C210            8.1899012776       47.9695137903        7.0537199606  MEMB      104             0.0000000000
     12894       104  PMPE      H10R            7.1878851311       47.8035362713        6.6034578365  MEMB      104             0.0000000000
     12895       104  PMPE      C211            9.4117460568       47.3754799701        6.3978063175  MEMB      104             0.0000000000
     12896       104  PMPE      H11R            9.4313241630       46.3422697064        5.9898670173  MEMB      104             0.0000000000
     12897       104  PMPE      H11S           10.2377812316       47.4668514738        7.1351247137  MEMB      104             0.0000000000
     12898       104  PMPE      C212            9.5460324741       48.1271284936        5.1236067919  MEMB      104             0.0000000000
     12899       104  PMPE      H12R            9.6013023733       49.2334647131        5.2089662925  MEMB      104             0.0000000000
     12900       104  PMPE      H12S            8.6001594119       47.9775646030        4.5603347964  MEMB      104             0.0000000000
     12901       104  PMPE      C213           10.8479875403       47.6735499102        4.3640847243  MEMB      104             0.0000000000
     12902       104  PMPE      H13R           10.9062154890       46.5949348951        4.6239302303  MEMB      104             0.0000000000
     12903       104  PMPE      H13S           11.6725678135       48.3280113183        4.7191461244  MEMB      104             0.0000000000
     12904       104  PMPE      C214           10.6631832847       47.5281134230        2.8343855049  MEMB      104             0.0000000000
     12905       104  PMPE      H14R           10.0996863849       46.5788676005        2.7089868422  MEMB      104             0.0000000000
     12906       104  PMPE      H14S           11.6487779630       47.4601242332        2.3261518553  MEMB      104             0.0000000000
     12907       104  PMPE      C215            9.8859477408       48.7334267820        2.1944739139  MEMB      104             0.0000000000
     12908       104  PMPE      H15R           10.5956346025       49.5733805886        2.3530396519  MEMB      104             0.0000000000
     12909       104  PMPE      H15S            8.9822770835       48.9352293069        2.8084581334  MEMB      104             0.0000000000
     12910       104  PMPE      C216            9.4253110349       48.6392602722        0.8286421184  MEMB      104             0.0000000000
     12911       104  PMPE      H16R            8.5592076851       47.9435486094        0.8155531434  MEMB      104             0.0000000000
     12912       104  PMPE      H16S            8.9950050411       49.5621137332        0.3842329088  MEMB      104             0.0000000000
     12913       104  PMPE      H16T           10.3086007408       48.2417480601        0.2844873778  MEMB      104             0.0000000000
     12914       104  PMPE      C33             7.8612078583       43.3573901197       11.7482754172  MEMB      104             0.0000000000
     12915       104  PMPE      H3X             6.9315943828       43.5966294352       12.3076538781  MEMB      104             0.0000000000
     12916       104  PMPE      H3Y             8.0709201460       42.2749146273       11.8846141889  MEMB      104             0.0000000000
     12917       104  PMPE      C34             7.4540138124       43.7116472385       10.3233083006  MEMB      104             0.0000000000
     12918       104  PMPE      H4X             7.0355391565       44.7316729774       10.4602293057  MEMB      104             0.0000000000
     12919       104  PMPE      H4Y             6.6722927039       42.9941088356        9.9941096152  MEMB      104             0.0000000000
     12920       104  PMPE      C35             8.6712611426       43.6362726543        9.2949304939  MEMB      104             0.0000000000
     12921       104  PMPE      H5X             9.1951458151       42.6603543099        9.2086213378  MEMB      104             0.0000000000
     12922       104  PMPE      H5Y             9.3848637072       44.4826627154        9.3882915016  MEMB      104             0.0000000000
     12923       104  PMPE      C36             8.1617569806       43.9499058754        7.8605538209  MEMB      104             0.0000000000
     12924       104  PMPE      H6X             8.9321461890       44.5741528592        7.3594176956  MEMB      104             0.0000000000
     12925       104  PMPE      H6Y             7.2107387447       44.5226698718        7.9032947112  MEMB      104             0.0000000000
     12926       104  PMPE      C37             8.0297741133       42.5806751492        7.0366119079  MEMB      104             0.0000000000
     12927       104  PMPE      H7X             7.6124336008       41.7178055312        7.5983981321  MEMB      104             0.0000000000
     12928       104  PMPE      H7Y             9.0640940833       42.1927985012        6.9180600080  MEMB      104             0.0000000000
     12929       104  PMPE      C38             7.3807563999       42.7515241787        5.6613391635  MEMB      104             0.0000000000
     12930       104  PMPE      H8X             6.2978105337       42.9479125009        5.8129339460  MEMB      104             0.0000000000
     12931       104  PMPE      H8Y             7.3568609480       41.8878978303        4.9628410181  MEMB      104             0.0000000000
     12932       104  PMPE      C39             8.0084140812       43.8648984191        4.8604091405  MEMB      104             0.0000000000
     12933       104  PMPE      H9X             9.0927247216       43.9796807411        5.0735189356  MEMB      104             0.0000000000
     12934       104  PMPE      H9Y             7.5185687688       44.8493470332        5.0192596296  MEMB      104             0.0000000000
     12935       104  PMPE      C310            7.7692019300       43.6655792917        3.3236518028  MEMB      104             0.0000000000
     12936       104  PMPE      H10X            7.6805331925       42.5807774778        3.1007980480  MEMB      104             0.0000000000
     12937       104  PMPE      H10Y            8.5775604061       44.1718896462        2.7539783797  MEMB      104             0.0000000000
     12938       104  PMPE      C311            6.4078197268       44.2693853098        2.8337694426  MEMB      104             0.0000000000
     12939       104  PMPE      H11X            6.4103430773       45.3800221161        2.8054686138  MEMB      104             0.0000000000
     12940       104  PMPE      H11Y            5.6379642377       43.9756175822        3.5789836348  MEMB      104             0.0000000000
     12941       104  PMPE      C312            5.9089556490       43.7722927103        1.4830164387  MEMB      104             0.0000000000
     12942       104  PMPE      H12X            4.8464957620       44.0287793518        1.2837313059  MEMB      104             0.0000000000
     12943       104  PMPE      H12Y            5.8205337583       42.6654048782        1.5190968160  MEMB      104             0.0000000000
     12944       104  PMPE      C313            6.8194566460       44.0422407476        0.2750106774  MEMB      104             0.0000000000
     12945       104  PMPE      H13X            6.3254637208       43.6296139075       -0.6305440246  MEMB      104             0.0000000000
     12946       104  PMPE      H13Y            7.7483604135       43.4503060046        0.4201737556  MEMB      104             0.0000000000
     12947       104  PMPE      C314            7.0931915248       45.5392391844        0.0708833703  MEMB      104             0.0000000000
     12948       104  PMPE      H14X            7.8601303367       45.7345517555        0.8506137638  MEMB      104             0.0000000000
     12949       104  PMPE      H14Y            6.1791297459       46.0552867036        0.4348984306  MEMB      104             0.0000000000
     12950       104  PMPE      C315            7.7159692325       46.1173296903       -1.2736473361  MEMB      104             0.0000000000
     12951       104  PMPE      H15X            8.8253063019       46.0569938655       -1.2808313496  MEMB      104             0.0000000000
     12952       104  PMPE      H15Y            7.4126472675       47.1854893694       -1.2368779449  MEMB      104             0.0000000000
     12953       104  PMPE      C316            7.1763676046       45.5346069502       -2.6158619094  MEMB      104             0.0000000000
     12954       104  PMPE      H16X            7.5648254139       46.1678252388       -3.4419704442  MEMB      104             0.0000000000
     12955       104  PMPE      H16Y            6.0692543110       45.5961460204       -2.5463368611  MEMB      104             0.0000000000
     12956       104  PMPE      H16Z            7.4351427286       44.4789544074       -2.8459800775  MEMB      104             0.0000000000
     12957       105  PMPE      N             -45.9260867900        3.9765324310       18.3595571021  MEMB      105             0.0000000000
     12958       105  PMPE      HN1           -45.2394812739        3.8745412394       17.5851085199  MEMB      105             0.0000000000
     12959       105  PMPE      HN2           -46.8733785621        3.9952384013       17.9307348991  MEMB      105             0.0000000000
     12960       105  PMPE      HN3           -45.8662840924        4.8582205088       18.9078722347  MEMB      105             0.0000000000
     12961       105  PMPE      C12           -45.7340421672        2.8046358365       19.3111797034  MEMB      105             0.0000000000
     12962       105  PMPE      H12A          -46.4092544291        2.8538085927       20.1920835044  MEMB      105             0.0000000000
     12963       105  PMPE      H12B          -44.6637674500        2.7804554776       19.6082456827  MEMB      105             0.0000000000
     12964       105  PMPE      C11           -46.0203088919        1.4357018067       18.6360593189  MEMB      105             0.0000000000
     12965       105  PMPE      H11A          -45.5324377733        1.4283303367       17.6379368581  MEMB      105             0.0000000000
     12966       105  PMPE      H11B          -47.0871106777        1.3664301786       18.3336417064  MEMB      105             0.0000000000
     12967       105  PMPE      P             -45.9928341051       -1.1877219722       19.2204304438  MEMB      105             0.0000000000
     12968       105  PMPE      O13           -47.4578394377       -1.2196623633       19.3758336991  MEMB      105             0.0000000000
     12969       105  PMPE      O14           -45.2133418932       -2.1278054900       20.0283916985  MEMB      105             0.0000000000
     12970       105  PMPE      O11           -45.6904341234       -1.3861687435       17.6374679586  MEMB      105             0.0000000000
     12971       105  PMPE      O12           -45.4848485395        0.3569998982       19.4310800726  MEMB      105             0.0000000000
     12972       105  PMPE      C1            -45.9152906538       -2.5663227346       17.0037186786  MEMB      105             0.0000000000
     12973       105  PMPE      HA            -47.0257809165       -2.5335156354       16.9962403482  MEMB      105             0.0000000000
     12974       105  PMPE      HB            -45.4296531616       -3.4383437608       17.4916289634  MEMB      105             0.0000000000
     12975       105  PMPE      C2            -45.3463138991       -2.4598891543       15.5494370624  MEMB      105             0.0000000000
     12976       105  PMPE      HS            -44.4398996039       -3.0988127752       15.4822741884  MEMB      105             0.0000000000
     12977       105  PMPE      O21           -45.1588248719       -1.1070662275       15.2414588556  MEMB      105             0.0000000000
     12978       105  PMPE      C21           -44.1094787545       -0.4505240574       15.5988539385  MEMB      105             0.0000000000
     12979       105  PMPE      O22           -43.1922360233       -0.9525714790       16.2255343791  MEMB      105             0.0000000000
     12980       105  PMPE      C22           -44.1213401245        0.9488871468       15.0200460483  MEMB      105             0.0000000000
     12981       105  PMPE      H2R           -43.7415270122        1.6112780616       15.8270784730  MEMB      105             0.0000000000
     12982       105  PMPE      H2S           -45.1309651277        1.2021899687       14.6316955970  MEMB      105             0.0000000000
     12983       105  PMPE      C3            -46.3439995919       -3.1012481091       14.5074362053  MEMB      105             0.0000000000
     12984       105  PMPE      HX            -47.3866742034       -2.9049659429       14.8370178275  MEMB      105             0.0000000000
     12985       105  PMPE      HY            -46.2310884768       -4.2064901622       14.5039120102  MEMB      105             0.0000000000
     12986       105  PMPE      O31           -46.0855392366       -2.6060751505       13.1379899750  MEMB      105             0.0000000000
     12987       105  PMPE      C31           -46.8925751177       -1.6393214904       12.6870887456  MEMB      105             0.0000000000
     12988       105  PMPE      O32           -47.9329801822       -1.2855050176       13.2238042428  MEMB      105             0.0000000000
     12989       105  PMPE      C32           -46.3121812189       -1.0572524341       11.3605285213  MEMB      105             0.0000000000
     12990       105  PMPE      H2X           -45.2458018922       -1.3617075133       11.2937209145  MEMB      105             0.0000000000
     12991       105  PMPE      H2Y           -46.3269352736        0.0533747436       11.3852416610  MEMB      105             0.0000000000
     12992       105  PMPE      C23           -43.2001590111        0.9596380110       13.8541146818  MEMB      105             0.0000000000
     12993       105  PMPE      H3R           -43.4570257968        0.1546909780       13.1327265471  MEMB      105             0.0000000000
     12994       105  PMPE      H3S           -42.1521540663        0.8468829987       14.2052455529  MEMB      105             0.0000000000
     12995       105  PMPE      C24           -43.4195290312        2.2592261362       13.0214660183  MEMB      105             0.0000000000
     12996       105  PMPE      H4R           -43.1944187179        3.1620344089       13.6285768240  MEMB      105             0.0000000000
     12997       105  PMPE      H4S           -44.4909972458        2.4693864769       12.8162598255  MEMB      105             0.0000000000
     12998       105  PMPE      C25           -42.5791224921        2.2674677598       11.7963877970  MEMB      105             0.0000000000
     12999       105  PMPE      H5R           -41.5716694284        1.8788921304       12.0578606812  MEMB      105             0.0000000000
     13000       105  PMPE      H5S           -42.4475381613        3.3394448368       11.5358666531  MEMB      105             0.0000000000
     13001       105  PMPE      C26           -43.1996366259        1.4635230667       10.6320612490  MEMB      105             0.0000000000
     13002       105  PMPE      H6R           -43.5873997957        0.4554838661       10.8924798239  MEMB      105             0.0000000000
     13003       105  PMPE      H6S           -42.4730112647        1.4700876862        9.7916486585  MEMB      105             0.0000000000
     13004       105  PMPE      C27           -44.3528713840        2.2343465203       10.0369783446  MEMB      105             0.0000000000
     13005       105  PMPE      H7R           -44.0554920686        3.2862373164        9.8384540624  MEMB      105             0.0000000000
     13006       105  PMPE      H7S           -45.2075699693        2.2296375397       10.7467603521  MEMB      105             0.0000000000
     13007       105  PMPE      C28           -44.9223245737        1.7709220514        8.6575385164  MEMB      105             0.0000000000
     13008       105  PMPE      H8R           -45.5237737117        0.8451984839        8.7825010871  MEMB      105             0.0000000000
     13009       105  PMPE      H8S           -44.0575783448        1.5713825302        7.9891683519  MEMB      105             0.0000000000
     13010       105  PMPE      C29           -45.8058423462        2.8903447785        8.0943351827  MEMB      105             0.0000000000
     13011       105  PMPE      H9R           -45.3526297844        3.8903513819        7.9243164446  MEMB      105             0.0000000000
     13012       105  PMPE      C217          -47.1784310703        2.9101019642        8.8187662415  MEMB      105             0.0000000000
     13013       105  PMPE      H17R          -47.4765506990        3.9373482815        8.9884074357  MEMB      105             0.0000000000
     13014       105  PMPE      H17S          -47.0468967264        2.1072425579        9.5336118485  MEMB      105             0.0000000000
     13015       105  PMPE      C210          -47.0375891909        2.6152612408        7.3147059989  MEMB      105             0.0000000000
     13016       105  PMPE      H10R          -47.5011544758        3.4554416823        6.7547733008  MEMB      105             0.0000000000
     13017       105  PMPE      C211          -47.4000750269        1.1937770309        6.8544962855  MEMB      105             0.0000000000
     13018       105  PMPE      H11R          -48.3850414514        1.3742285523        6.3732488626  MEMB      105             0.0000000000
     13019       105  PMPE      H11S          -47.5385289305        0.5499624567        7.7492892478  MEMB      105             0.0000000000
     13020       105  PMPE      C212          -46.4084721740        0.5993137842        5.8593617377  MEMB      105             0.0000000000
     13021       105  PMPE      H12R          -45.3490800512        0.5586213377        6.1915564773  MEMB      105             0.0000000000
     13022       105  PMPE      H12S          -46.4581277237        1.3756691776        5.0661863378  MEMB      105             0.0000000000
     13023       105  PMPE      C213          -46.8120934093       -0.7662758328        5.4478290168  MEMB      105             0.0000000000
     13024       105  PMPE      H13R          -47.8726415672       -0.7449676301        5.1175187478  MEMB      105             0.0000000000
     13025       105  PMPE      H13S          -46.7266285888       -1.4127257899        6.3473390297  MEMB      105             0.0000000000
     13026       105  PMPE      C214          -45.9955287130       -1.4025482991        4.3024393126  MEMB      105             0.0000000000
     13027       105  PMPE      H14R          -44.9292154749       -1.5704269145        4.5653350066  MEMB      105             0.0000000000
     13028       105  PMPE      H14S          -46.0161483574       -0.5953942997        3.5392897609  MEMB      105             0.0000000000
     13029       105  PMPE      C215          -46.5572719959       -2.6762092704        3.7706857571  MEMB      105             0.0000000000
     13030       105  PMPE      H15R          -47.6287376164       -2.4243194736        3.6195753808  MEMB      105             0.0000000000
     13031       105  PMPE      H15S          -46.5013750225       -3.4597548780        4.5563401220  MEMB      105             0.0000000000
     13032       105  PMPE      C216          -46.2169341129       -3.2843628546        2.3190676835  MEMB      105             0.0000000000
     13033       105  PMPE      H16R          -46.8808811409       -4.1517289755        2.1161599897  MEMB      105             0.0000000000
     13034       105  PMPE      H16S          -46.3406546756       -2.4506141723        1.5952742100  MEMB      105             0.0000000000
     13035       105  PMPE      H16T          -45.1541367172       -3.6048541782        2.3645412480  MEMB      105             0.0000000000
     13036       105  PMPE      C33           -46.8440804472       -1.5287259443       10.0037499461  MEMB      105             0.0000000000
     13037       105  PMPE      H3X           -46.8211924513       -0.7325583689        9.2292081955  MEMB      105             0.0000000000
     13038       105  PMPE      H3Y           -47.9252098441       -1.7770783688       10.0654032964  MEMB      105             0.0000000000
     13039       105  PMPE      C34           -46.0787853761       -2.7758907787        9.4006413967  MEMB      105             0.0000000000
     13040       105  PMPE      H4X           -46.5285415955       -3.3971023513        8.5968157436  MEMB      105             0.0000000000
     13041       105  PMPE      H4Y           -45.9620684696       -3.5170549989       10.2200154387  MEMB      105             0.0000000000
     13042       105  PMPE      C35           -44.6294343520       -2.6339250157        8.9281200793  MEMB      105             0.0000000000
     13043       105  PMPE      H5X           -44.1282129292       -3.6205410484        8.8296972753  MEMB      105             0.0000000000
     13044       105  PMPE      H5Y           -44.0343499534       -2.1920530774        9.7557340614  MEMB      105             0.0000000000
     13045       105  PMPE      C36           -44.2806414936       -1.9147911511        7.6462461696  MEMB      105             0.0000000000
     13046       105  PMPE      H6X           -44.6023136053       -0.8632529540        7.8047242877  MEMB      105             0.0000000000
     13047       105  PMPE      H6Y           -44.8102774400       -2.4599559985        6.8359356983  MEMB      105             0.0000000000
     13048       105  PMPE      C37           -42.7022876094       -1.9265012901        7.3844910987  MEMB      105             0.0000000000
     13049       105  PMPE      H7X           -42.5227087400       -2.9522568627        7.7716582221  MEMB      105             0.0000000000
     13050       105  PMPE      H7Y           -42.1797311524       -1.2246099864        8.0690385549  MEMB      105             0.0000000000
     13051       105  PMPE      C38           -42.1693457021       -1.7858491862        5.9882137349  MEMB      105             0.0000000000
     13052       105  PMPE      H8X           -42.9624110546       -2.0408067766        5.2531184825  MEMB      105             0.0000000000
     13053       105  PMPE      H8Y           -41.4865240534       -2.6622410068        5.9846414063  MEMB      105             0.0000000000
     13054       105  PMPE      C39           -41.4515119857       -0.5018192988        5.6203376786  MEMB      105             0.0000000000
     13055       105  PMPE      H9X           -40.9290846126       -0.7475822498        4.6711313445  MEMB      105             0.0000000000
     13056       105  PMPE      H9Y           -40.7756871645       -0.1425899626        6.4256541980  MEMB      105             0.0000000000
     13057       105  PMPE      C310          -42.4369396029        0.6381617761        5.3924276854  MEMB      105             0.0000000000
     13058       105  PMPE      H10X          -42.8631574252        0.8369156907        6.3989849855  MEMB      105             0.0000000000
     13059       105  PMPE      H10Y          -43.2417306374        0.3338972845        4.6895372101  MEMB      105             0.0000000000
     13060       105  PMPE      C311          -41.8154520537        1.9614304792        4.7848927624  MEMB      105             0.0000000000
     13061       105  PMPE      H11X          -41.2258803032        1.7294191514        3.8722605110  MEMB      105             0.0000000000
     13062       105  PMPE      H11Y          -41.0468499453        2.3032366658        5.5106611478  MEMB      105             0.0000000000
     13063       105  PMPE      C312          -42.8759155948        2.8879664535        4.2934355691  MEMB      105             0.0000000000
     13064       105  PMPE      H12X          -42.3738750538        3.7148625581        3.7470672226  MEMB      105             0.0000000000
     13065       105  PMPE      H12Y          -43.3908619858        3.4126552082        5.1264138370  MEMB      105             0.0000000000
     13066       105  PMPE      C313          -43.8099663210        2.2859916679        3.2266600014  MEMB      105             0.0000000000
     13067       105  PMPE      H13X          -44.2290982253        1.2725130615        3.4041718512  MEMB      105             0.0000000000
     13068       105  PMPE      H13Y          -43.2279739821        2.1366700508        2.2921485338  MEMB      105             0.0000000000
     13069       105  PMPE      C314          -45.0186944787        3.2742167619        2.9760834237  MEMB      105             0.0000000000
     13070       105  PMPE      H14X          -44.6854072821        4.3339854707        2.9646122912  MEMB      105             0.0000000000
     13071       105  PMPE      H14Y          -45.6702682825        3.1658350421        3.8694051343  MEMB      105             0.0000000000
     13072       105  PMPE      C315          -45.8583432876        2.8989356733        1.7721093568  MEMB      105             0.0000000000
     13073       105  PMPE      H15X          -46.2746754746        1.9325382041        2.1285726681  MEMB      105             0.0000000000
     13074       105  PMPE      H15Y          -45.1359221214        2.6997450272        0.9518967116  MEMB      105             0.0000000000
     13075       105  PMPE      C316          -47.0305894843        3.8463236410        1.3655523974  MEMB      105             0.0000000000
     13076       105  PMPE      H16X          -47.6390369807        3.3205278293        0.5989678180  MEMB      105             0.0000000000
     13077       105  PMPE      H16Y          -46.6788088741        4.6549581254        0.6897699987  MEMB      105             0.0000000000
     13078       105  PMPE      H16Z          -47.6901004206        4.1567487328        2.2040060442  MEMB      105             0.0000000000
     13079       106  PMPG      C13            43.6940701936        7.2967291216       19.1322012410  MEMB      106             0.0000000000
     13080       106  PMPG      H13A           42.8875743338        7.7309535153       19.7609574304  MEMB      106             0.0000000000
     13081       106  PMPG      H13B           44.5431821125        7.9340115935       19.4596171244  MEMB      106             0.0000000000
     13082       106  PMPG      OC3            43.5295099578        7.5689904961       17.7727255425  MEMB      106             0.0000000000
     13083       106  PMPG      HO3            44.1903231062        7.0251238747       17.3378286979  MEMB      106             0.0000000000
     13084       106  PMPG      C12            43.9101399857        5.8217273889       19.4740691265  MEMB      106             0.0000000000
     13085       106  PMPG      H12A           42.9773667271        5.2775725641       19.1972865135  MEMB      106             0.0000000000
     13086       106  PMPG      OC2            44.1101781468        5.6666559903       20.8797641451  MEMB      106             0.0000000000
     13087       106  PMPG      HO2            44.3697846341        4.7230696517       20.9632275101  MEMB      106             0.0000000000
     13088       106  PMPG      C11            45.0644134837        5.1598156649       18.7157665737  MEMB      106             0.0000000000
     13089       106  PMPG      H11A           45.0091785765        5.1703787347       17.6061906834  MEMB      106             0.0000000000
     13090       106  PMPG      H11B           45.1045229370        4.0756226580       18.9550104680  MEMB      106             0.0000000000
     13091       106  PMPG      P              47.7279947852        5.2112885860       18.8564724939  MEMB      106             0.0000000000
     13092       106  PMPG      O13            47.7605757899        3.8916397427       19.5568702236  MEMB      106             0.0000000000
     13093       106  PMPG      O14            48.7797646629        6.1646600665       19.2048135032  MEMB      106             0.0000000000
     13094       106  PMPG      O11            47.6720134755        4.9973736759       17.2755412936  MEMB      106             0.0000000000
     13095       106  PMPG      O12            46.2956185164        5.8766047653       19.1317758566  MEMB      106             0.0000000000
     13096       106  PMPG      C1             47.4047368185        6.1379461667       16.4649619299  MEMB      106             0.0000000000
     13097       106  PMPG      HA             48.1800203776        6.9201726114       16.6111739416  MEMB      106             0.0000000000
     13098       106  PMPG      HB             46.5094277491        6.7195240586       16.7723866290  MEMB      106             0.0000000000
     13099       106  PMPG      C2             47.3508413288        5.8133147937       14.8982064222  MEMB      106             0.0000000000
     13100       106  PMPG      HS             47.1415303881        6.7834586925       14.3988757977  MEMB      106             0.0000000000
     13101       106  PMPG      O21            46.4238949795        4.8568310613       14.5215412833  MEMB      106             0.0000000000
     13102       106  PMPG      C21            45.1165232600        5.0210344161       14.6372860217  MEMB      106             0.0000000000
     13103       106  PMPG      O22            44.4397173731        5.8956553763       15.0946696979  MEMB      106             0.0000000000
     13104       106  PMPG      C22            44.4408535742        3.6764157834       14.2119222030  MEMB      106             0.0000000000
     13105       106  PMPG      H2R            43.8079123754        3.4591385245       15.0987687767  MEMB      106             0.0000000000
     13106       106  PMPG      H2S            45.1900933818        2.8631240920       14.1046044788  MEMB      106             0.0000000000
     13107       106  PMPG      C3             48.7610666826        5.3497215032       14.5192564237  MEMB      106             0.0000000000
     13108       106  PMPG      HX             49.1863401501        4.6694809635       15.2878502700  MEMB      106             0.0000000000
     13109       106  PMPG      HY             49.3590057537        6.2828657621       14.5969194430  MEMB      106             0.0000000000
     13110       106  PMPG      O31            48.6759665884        4.8208951038       13.2208169982  MEMB      106             0.0000000000
     13111       106  PMPG      C31            48.7570014630        3.5037899354       13.0428142654  MEMB      106             0.0000000000
     13112       106  PMPG      O32            48.9537756326        2.6816174560       13.8588327640  MEMB      106             0.0000000000
     13113       106  PMPG      C32            48.7379530557        3.2183099920       11.5051130275  MEMB      106             0.0000000000
     13114       106  PMPG      H2X            47.7525897968        3.5410372925       11.1060803400  MEMB      106             0.0000000000
     13115       106  PMPG      H2Y            49.0419177781        2.1648774736       11.3256506616  MEMB      106             0.0000000000
     13116       106  PMPG      C23            43.4655960844        3.7961003621       12.9644092675  MEMB      106             0.0000000000
     13117       106  PMPG      H3R            42.8176611261        4.6815810194       13.1388380575  MEMB      106             0.0000000000
     13118       106  PMPG      H3S            42.9069872447        2.8477439754       12.8130911290  MEMB      106             0.0000000000
     13119       106  PMPG      C24            44.1735790171        3.9654103720       11.6366797712  MEMB      106             0.0000000000
     13120       106  PMPG      H4R            44.9620652666        3.2011419806       11.8055111778  MEMB      106             0.0000000000
     13121       106  PMPG      H4S            44.6122267472        4.9853814646       11.5970803294  MEMB      106             0.0000000000
     13122       106  PMPG      C25            43.2899787956        3.7697930136       10.3837397659  MEMB      106             0.0000000000
     13123       106  PMPG      H5R            42.2698168308        4.2010455313       10.4709853010  MEMB      106             0.0000000000
     13124       106  PMPG      H5S            43.1937987576        2.6648098277       10.3198470252  MEMB      106             0.0000000000
     13125       106  PMPG      C26            44.0344115031        4.3851407012        9.1605492257  MEMB      106             0.0000000000
     13126       106  PMPG      H6R            43.7262243171        3.6997994658        8.3422279568  MEMB      106             0.0000000000
     13127       106  PMPG      H6S            45.1403624211        4.3142409733        9.2390789054  MEMB      106             0.0000000000
     13128       106  PMPG      C27            43.5419652659        5.8079454616        8.9482713701  MEMB      106             0.0000000000
     13129       106  PMPG      H7R            43.3984657349        6.2943004035        9.9367990575  MEMB      106             0.0000000000
     13130       106  PMPG      H7S            42.5186024232        5.6621755860        8.5410853994  MEMB      106             0.0000000000
     13131       106  PMPG      C28            44.4961684544        6.7610491144        8.1813773115  MEMB      106             0.0000000000
     13132       106  PMPG      H8R            44.7747407146        6.2175126908        7.2533221750  MEMB      106             0.0000000000
     13133       106  PMPG      H8S            45.3618413719        6.8942640010        8.8648878132  MEMB      106             0.0000000000
     13134       106  PMPG      C29            43.9105989007        8.1809598983        7.9819904464  MEMB      106             0.0000000000
     13135       106  PMPG      H9R            43.9851650344        8.8374619903        8.8751676149  MEMB      106             0.0000000000
     13136       106  PMPG      C217           44.1470384820        8.9676784306        6.6615727215  MEMB      106             0.0000000000
     13137       106  PMPG      H17R           44.3729454689       10.0154464379        6.8166121146  MEMB      106             0.0000000000
     13138       106  PMPG      H17S           44.6905373094        8.3104020459        5.9941254787  MEMB      106             0.0000000000
     13139       106  PMPG      C210           42.7086432406        8.5035706544        7.0499149573  MEMB      106             0.0000000000
     13140       106  PMPG      H10R           42.0616201815        9.4044392057        7.1140854635  MEMB      106             0.0000000000
     13141       106  PMPG      C211           42.1864766496        7.2588733235        6.2657070702  MEMB      106             0.0000000000
     13142       106  PMPG      H11R           42.8716653901        6.3862873567        6.2071304934  MEMB      106             0.0000000000
     13143       106  PMPG      H11S           41.1198762751        7.1874957350        6.5683449958  MEMB      106             0.0000000000
     13144       106  PMPG      C212           42.0147498676        7.6498696289        4.7869017888  MEMB      106             0.0000000000
     13145       106  PMPG      H12R           42.9435530798        7.4909305185        4.1983583353  MEMB      106             0.0000000000
     13146       106  PMPG      H12S           41.9970723536        8.7605111987        4.7649100650  MEMB      106             0.0000000000
     13147       106  PMPG      C213           40.8192850806        6.9315803355        4.2313654344  MEMB      106             0.0000000000
     13148       106  PMPG      H13R           40.5581507299        7.2929284821        3.2137409954  MEMB      106             0.0000000000
     13149       106  PMPG      H13S           39.9231220202        7.0723670261        4.8727634285  MEMB      106             0.0000000000
     13150       106  PMPG      C214           41.0392076884        5.4288129193        4.1547468633  MEMB      106             0.0000000000
     13151       106  PMPG      H14R           40.0440525065        5.0008421637        3.9081129579  MEMB      106             0.0000000000
     13152       106  PMPG      H14S           41.4486889566        4.9335382639        5.0610300915  MEMB      106             0.0000000000
     13153       106  PMPG      C215           42.1485419148        4.9369234523        3.1366983247  MEMB      106             0.0000000000
     13154       106  PMPG      H15R           42.4422735971        3.9208947206        3.4768864190  MEMB      106             0.0000000000
     13155       106  PMPG      H15S           43.0232559598        5.6076516421        3.2756946325  MEMB      106             0.0000000000
     13156       106  PMPG      C216           41.7518193450        4.8876853461        1.6677549206  MEMB      106             0.0000000000
     13157       106  PMPG      H16R           42.6739601309        4.5215391227        1.1678411089  MEMB      106             0.0000000000
     13158       106  PMPG      H16S           41.6274519851        5.9305912975        1.3055387635  MEMB      106             0.0000000000
     13159       106  PMPG      H16T           40.9064549610        4.1799209384        1.5308243004  MEMB      106             0.0000000000
     13160       106  PMPG      C33            49.9084744308        3.9646609218       10.8257940482  MEMB      106             0.0000000000
     13161       106  PMPG      H3X            50.8921962497        3.5697141336       11.1584052752  MEMB      106             0.0000000000
     13162       106  PMPG      H3Y            49.8601426037        5.0482614550       11.0661998726  MEMB      106             0.0000000000
     13163       106  PMPG      C34            49.8681844971        3.8225896014        9.2545712325  MEMB      106             0.0000000000
     13164       106  PMPG      H4X            50.1073070971        2.7480672752        9.1044269070  MEMB      106             0.0000000000
     13165       106  PMPG      H4Y            50.7658651430        4.3843890239        8.9186065964  MEMB      106             0.0000000000
     13166       106  PMPG      C35            48.6084217601        4.1125751948        8.3983150563  MEMB      106             0.0000000000
     13167       106  PMPG      H5X            48.5601143118        5.2210768140        8.3416425536  MEMB      106             0.0000000000
     13168       106  PMPG      H5Y            47.7075791674        3.9041085716        9.0142246205  MEMB      106             0.0000000000
     13169       106  PMPG      C36            48.4806152619        3.6422679150        7.0198898718  MEMB      106             0.0000000000
     13170       106  PMPG      H6X            48.6456180445        2.5525584094        6.8797873291  MEMB      106             0.0000000000
     13171       106  PMPG      H6Y            49.2314965625        4.1754687667        6.3984434924  MEMB      106             0.0000000000
     13172       106  PMPG      C37            47.1366592845        3.9494906465        6.2996533029  MEMB      106             0.0000000000
     13173       106  PMPG      H7X            47.0074542804        5.0523572983        6.2634324687  MEMB      106             0.0000000000
     13174       106  PMPG      H7Y            46.3183056105        3.5800682304        6.9539822959  MEMB      106             0.0000000000
     13175       106  PMPG      C38            46.9994055198        3.2732427813        4.8774630471  MEMB      106             0.0000000000
     13176       106  PMPG      H8X            46.9251309797        2.1714122187        4.9990091372  MEMB      106             0.0000000000
     13177       106  PMPG      H8Y            48.0188196892        3.2776953980        4.4357667737  MEMB      106             0.0000000000
     13178       106  PMPG      C39            45.9385526773        3.9946205652        3.9880629022  MEMB      106             0.0000000000
     13179       106  PMPG      H9X            44.9936354744        3.9399142032        4.5698356352  MEMB      106             0.0000000000
     13180       106  PMPG      H9Y            45.6505722985        3.3732481861        3.1132573708  MEMB      106             0.0000000000
     13181       106  PMPG      C310           46.2235019921        5.4307227880        3.6445733245  MEMB      106             0.0000000000
     13182       106  PMPG      H10X           46.5901364911        5.9202716154        4.5720653737  MEMB      106             0.0000000000
     13183       106  PMPG      H10Y           45.3191443007        5.9726095099        3.2941209730  MEMB      106             0.0000000000
     13184       106  PMPG      C311           47.3467848591        5.6460571231        2.6587907228  MEMB      106             0.0000000000
     13185       106  PMPG      H11X           47.4119923879        4.7053236339        2.0713472431  MEMB      106             0.0000000000
     13186       106  PMPG      H11Y           48.2934124108        5.7246012911        3.2350261300  MEMB      106             0.0000000000
     13187       106  PMPG      C312           47.0710255360        6.8501437871        1.7748792707  MEMB      106             0.0000000000
     13188       106  PMPG      H12X           47.9302940189        7.2419480735        1.1896702282  MEMB      106             0.0000000000
     13189       106  PMPG      H12Y           46.7332048142        7.7044963312        2.3996028612  MEMB      106             0.0000000000
     13190       106  PMPG      C313           45.9502893140        6.5133480143        0.7545109832  MEMB      106             0.0000000000
     13191       106  PMPG      H13X           44.9848518472        6.2157255630        1.2167587435  MEMB      106             0.0000000000
     13192       106  PMPG      H13Y           46.2533100682        5.6098957124        0.1833082289  MEMB      106             0.0000000000
     13193       106  PMPG      C314           45.6582875577        7.6265240883       -0.2334682336  MEMB      106             0.0000000000
     13194       106  PMPG      H14X           46.6632814585        7.7294067887       -0.6957709374  MEMB      106             0.0000000000
     13195       106  PMPG      H14Y           45.4643169213        8.5696623537        0.3207765568  MEMB      106             0.0000000000
     13196       106  PMPG      C315           44.5562564906        7.3745184773       -1.2525388982  MEMB      106             0.0000000000
     13197       106  PMPG      H15X           44.6832565355        7.9731372445       -2.1798177398  MEMB      106             0.0000000000
     13198       106  PMPG      H15Y           43.6055880333        7.6784941150       -0.7645331993  MEMB      106             0.0000000000
     13199       106  PMPG      C316           44.4777382860        5.9223437166       -1.7581038577  MEMB      106             0.0000000000
     13200       106  PMPG      H16X           44.3211784028        5.2182558663       -0.9130754060  MEMB      106             0.0000000000
     13201       106  PMPG      H16Y           45.4183950534        5.5530336475       -2.2197271714  MEMB      106             0.0000000000
     13202       106  PMPG      H16Z           43.6469871244        5.8661555304       -2.4936417625  MEMB      106             0.0000000000
     13203       107  QMPE      N              -3.1209651407      -43.2365418902       20.5353384992  MEMB      107             0.0000000000
     13204       107  QMPE      HN1            -2.1086837399      -43.2257457534       20.7736025786  MEMB      107             0.0000000000
     13205       107  QMPE      HN2            -3.1583666409      -42.7102549167       19.6391113247  MEMB      107             0.0000000000
     13206       107  QMPE      HN3            -3.7311755775      -42.8749866054       21.2959442785  MEMB      107             0.0000000000
     13207       107  QMPE      C12            -3.5170585035      -44.6695493341       20.3912504424  MEMB      107             0.0000000000
     13208       107  QMPE      H12A           -4.5417443379      -44.6845430448       19.9621641319  MEMB      107             0.0000000000
     13209       107  QMPE      H12B           -3.6068689128      -45.0973491044       21.4126427953  MEMB      107             0.0000000000
     13210       107  QMPE      C11            -2.5302160237      -45.4530174477       19.6344681203  MEMB      107             0.0000000000
     13211       107  QMPE      H11A           -1.4671811280      -45.3982326003       19.9527074167  MEMB      107             0.0000000000
     13212       107  QMPE      H11B           -2.5349663974      -44.9147012071       18.6626069977  MEMB      107             0.0000000000
     13213       107  QMPE      P              -3.7641864697      -47.3091012543       18.2798243862  MEMB      107             0.0000000000
     13214       107  QMPE      O13            -4.6612914104      -46.3127040753       17.6956449399  MEMB      107             0.0000000000
     13215       107  QMPE      O14            -4.4314383071      -48.5783406756       18.6622030669  MEMB      107             0.0000000000
     13216       107  QMPE      O11            -2.6079436403      -47.5070919694       17.2133119057  MEMB      107             0.0000000000
     13217       107  QMPE      O12            -2.9598592436      -46.7896525630       19.5879586410  MEMB      107             0.0000000000
     13218       107  QMPE      C1             -1.4692296608      -48.4040931085       17.3704408528  MEMB      107             0.0000000000
     13219       107  QMPE      HA             -1.7040243450      -49.2984625764       17.9863108153  MEMB      107             0.0000000000
     13220       107  QMPE      HB             -0.7626852278      -47.7982436319       17.9771223354  MEMB      107             0.0000000000
     13221       107  QMPE      C2             -0.8050989179      -48.6719477032       15.9778087791  MEMB      107             0.0000000000
     13222       107  QMPE      HS              0.1862128138      -49.1727700919       16.0060811786  MEMB      107             0.0000000000
     13223       107  QMPE      O21            -0.7080188751      -47.4674067362       15.2294487881  MEMB      107             0.0000000000
     13224       107  QMPE      C21             0.2552340248      -46.6391642713       15.6276211309  MEMB      107             0.0000000000
     13225       107  QMPE      O22             1.1021050387      -46.8719089547       16.4909535420  MEMB      107             0.0000000000
     13226       107  QMPE      C22             0.0524935623      -45.2425873673       14.9727837778  MEMB      107             0.0000000000
     13227       107  QMPE      H2R            -0.3524682333      -44.7075370480       15.8582486309  MEMB      107             0.0000000000
     13228       107  QMPE      H2S            -0.8332797997      -45.3138241580       14.3059616760  MEMB      107             0.0000000000
     13229       107  QMPE      C3             -1.6792649031      -49.6556050277       15.1151410841  MEMB      107             0.0000000000
     13230       107  QMPE      HX             -1.7429021249      -50.6000507136       15.6967713928  MEMB      107             0.0000000000
     13231       107  QMPE      HY             -1.0460955636      -49.8520196528       14.2236039299  MEMB      107             0.0000000000
     13232       107  QMPE      O31            -2.9779900547      -49.2692475116       14.8103814516  MEMB      107             0.0000000000
     13233       107  QMPE      C31            -3.1246535737      -48.5237764404       13.6979257145  MEMB      107             0.0000000000
     13234       107  QMPE      O32            -2.3070047682      -48.4241236838       12.7877732347  MEMB      107             0.0000000000
     13235       107  QMPE      C32            -4.5153096109      -47.8417040483       13.7390525324  MEMB      107             0.0000000000
     13236       107  QMPE      H2X            -5.2316384879      -48.6891954658       13.7933865826  MEMB      107             0.0000000000
     13237       107  QMPE      H2Y            -4.5177263903      -47.1702606122       14.6241961990  MEMB      107             0.0000000000
     13238       107  QMPE      C23             1.4094448091      -44.6987294515       14.5196771731  MEMB      107             0.0000000000
     13239       107  QMPE      H3R             1.8634056809      -45.1453917607       13.6093291889  MEMB      107             0.0000000000
     13240       107  QMPE      H3S             2.1927256642      -44.8328226322       15.2960860653  MEMB      107             0.0000000000
     13241       107  QMPE      C24             1.4056031017      -43.2302139399       14.3438780470  MEMB      107             0.0000000000
     13242       107  QMPE      H4R             2.3676167396      -42.9418923393       13.8687765127  MEMB      107             0.0000000000
     13243       107  QMPE      H4S             1.4786550320      -42.6277319774       15.2744693521  MEMB      107             0.0000000000
     13244       107  QMPE      C25             0.2716780726      -42.7709515440       13.3899760015  MEMB      107             0.0000000000
     13245       107  QMPE      H5R             0.1643362382      -41.6667647728       13.4497272140  MEMB      107             0.0000000000
     13246       107  QMPE      H5S            -0.6485433189      -43.2876464321       13.7371645993  MEMB      107             0.0000000000
     13247       107  QMPE      C26             0.4580583635      -43.1485521121       11.8960273512  MEMB      107             0.0000000000
     13248       107  QMPE      H6R             0.6278658275      -44.2444816146       11.9625492148  MEMB      107             0.0000000000
     13249       107  QMPE      H6S             1.3117350905      -42.5094231806       11.5844662711  MEMB      107             0.0000000000
     13250       107  QMPE      C27            -0.7518713151      -42.9299869014       11.1352783882  MEMB      107             0.0000000000
     13251       107  QMPE      H7R            -1.2014059069      -41.9419718038       11.3720609216  MEMB      107             0.0000000000
     13252       107  QMPE      H7S            -1.5853317389      -43.6101640736       11.4128090578  MEMB      107             0.0000000000
     13253       107  QMPE      C28            -0.6105205908      -43.0377933053        9.6030801815  MEMB      107             0.0000000000
     13254       107  QMPE      H8R             0.0681500116      -42.3086027230        9.1111371743  MEMB      107             0.0000000000
     13255       107  QMPE      H8S            -1.6155588654      -42.7049324786        9.2662970584  MEMB      107             0.0000000000
     13256       107  QMPE      C29            -0.1753490447      -44.4759723633        9.2274361131  MEMB      107             0.0000000000
     13257       107  QMPE      H9R            -0.9112694750      -45.2561356535        9.5174136852  MEMB      107             0.0000000000
     13258       107  QMPE      C217            1.3090501622      -44.8021596787        9.1269498588  MEMB      107             0.0000000000
     13259       107  QMPE      H17R            1.9702953530      -43.9544745906        9.2576157676  MEMB      107             0.0000000000
     13260       107  QMPE      H17S            1.5511407024      -45.8521720746        9.2353730216  MEMB      107             0.0000000000
     13261       107  QMPE      C210            0.4497831264      -44.6379962816        7.8425358904  MEMB      107             0.0000000000
     13262       107  QMPE      H10R            0.0149835210      -45.5353705117        7.3526483858  MEMB      107             0.0000000000
     13263       107  QMPE      C211            0.5537619837      -43.3901172693        6.9719810535  MEMB      107             0.0000000000
     13264       107  QMPE      H11R           -0.4718775941      -42.9638592225        6.9457385099  MEMB      107             0.0000000000
     13265       107  QMPE      H11S            1.2015730730      -42.6103715684        7.4265778524  MEMB      107             0.0000000000
     13266       107  QMPE      C212            0.9046360206      -43.8408612463        5.5444041142  MEMB      107             0.0000000000
     13267       107  QMPE      H12R            0.8025952092      -42.9088863122        4.9483072478  MEMB      107             0.0000000000
     13268       107  QMPE      H12S            0.1833316469      -44.5790339191        5.1331351518  MEMB      107             0.0000000000
     13269       107  QMPE      C213            2.3642463039      -44.2868309100        5.4969065467  MEMB      107             0.0000000000
     13270       107  QMPE      H13R            2.5622684747      -45.1683054388        6.1435223933  MEMB      107             0.0000000000
     13271       107  QMPE      H13S            3.1103427252      -43.5423819881        5.8482709525  MEMB      107             0.0000000000
     13272       107  QMPE      C214            2.9383528873      -44.6149773159        4.0856875313  MEMB      107             0.0000000000
     13273       107  QMPE      H14R            4.0422936570      -44.7400181218        4.0855708838  MEMB      107             0.0000000000
     13274       107  QMPE      H14S            2.7013985707      -43.7868849035        3.3839493527  MEMB      107             0.0000000000
     13275       107  QMPE      C215            2.2780647146      -45.8048307735        3.3406277661  MEMB      107             0.0000000000
     13276       107  QMPE      H15R            1.1832913190      -45.6895997033        3.4906753200  MEMB      107             0.0000000000
     13277       107  QMPE      H15S            2.5690266866      -46.7147966528        3.9077479684  MEMB      107             0.0000000000
     13278       107  QMPE      C216            2.5311902621      -46.0159037587        1.8652595849  MEMB      107             0.0000000000
     13279       107  QMPE      H16R            3.6060579687      -46.1661902492        1.6277852097  MEMB      107             0.0000000000
     13280       107  QMPE      H16S            2.2364111674      -45.1945951920        1.1775989380  MEMB      107             0.0000000000
     13281       107  QMPE      H16T            2.1224505867      -46.9410612572        1.4055463600  MEMB      107             0.0000000000
     13282       107  QMPE      C33            -4.6755160300      -46.9257958684       12.4648910454  MEMB      107             0.0000000000
     13283       107  QMPE      H3X            -5.7580581117      -46.6760350725       12.4583459981  MEMB      107             0.0000000000
     13284       107  QMPE      H3Y            -4.4565558501      -47.4758462697       11.5247729890  MEMB      107             0.0000000000
     13285       107  QMPE      C34            -4.0083917602      -45.5552440908       12.5506174277  MEMB      107             0.0000000000
     13286       107  QMPE      H4X            -2.9498106466      -45.7613371700       12.2836857218  MEMB      107             0.0000000000
     13287       107  QMPE      H4Y            -3.9443748534      -45.1600063108       13.5869621932  MEMB      107             0.0000000000
     13288       107  QMPE      C35            -4.4673723832      -44.5275170562       11.5691827395  MEMB      107             0.0000000000
     13289       107  QMPE      H5X            -3.8450179522      -43.6080888569       11.6097734414  MEMB      107             0.0000000000
     13290       107  QMPE      H5Y            -5.5224186100      -44.2635852386       11.7962034397  MEMB      107             0.0000000000
     13291       107  QMPE      C36            -4.4763003441      -44.9911592479       10.0835984110  MEMB      107             0.0000000000
     13292       107  QMPE      H6X            -5.0445589321      -45.9413947077        9.9916419516  MEMB      107             0.0000000000
     13293       107  QMPE      H6Y            -3.5216950567      -45.3928387200        9.6814749532  MEMB      107             0.0000000000
     13294       107  QMPE      C37            -4.9598324829      -43.9550577935        9.1542284786  MEMB      107             0.0000000000
     13295       107  QMPE      H7X            -5.9599559121      -43.6858001553        9.5561923531  MEMB      107             0.0000000000
     13296       107  QMPE      H7Y            -4.3472281626      -43.0387684441        9.2936943217  MEMB      107             0.0000000000
     13297       107  QMPE      C38            -5.1662139961      -44.4062595598        7.6953082849  MEMB      107             0.0000000000
     13298       107  QMPE      H8X            -4.9822093086      -45.5014956728        7.6649602047  MEMB      107             0.0000000000
     13299       107  QMPE      H8Y            -6.1874228602      -44.2128479956        7.3028216556  MEMB      107             0.0000000000
     13300       107  QMPE      C39            -4.0897660690      -43.8332428431        6.7777714133  MEMB      107             0.0000000000
     13301       107  QMPE      H9X            -3.0784328367      -44.0949941050        7.1559406940  MEMB      107             0.0000000000
     13302       107  QMPE      H9Y            -4.2350847999      -42.7320309150        6.7546198299  MEMB      107             0.0000000000
     13303       107  QMPE      C310           -4.2461847550      -44.4150255901        5.3790159899  MEMB      107             0.0000000000
     13304       107  QMPE      H10X           -5.2497296546      -44.1757878896        4.9667253785  MEMB      107             0.0000000000
     13305       107  QMPE      H10Y           -4.0105302269      -45.5001755584        5.4141961209  MEMB      107             0.0000000000
     13306       107  QMPE      C311           -3.2014468073      -43.7512710989        4.4279560229  MEMB      107             0.0000000000
     13307       107  QMPE      H11X           -2.1273122844      -43.6053475219        4.6713944507  MEMB      107             0.0000000000
     13308       107  QMPE      H11Y           -3.5228395078      -42.6895437512        4.3666117283  MEMB      107             0.0000000000
     13309       107  QMPE      C312           -3.2991610445      -44.3578759069        3.0229788517  MEMB      107             0.0000000000
     13310       107  QMPE      H12X           -4.3231559122      -44.2202832957        2.6145380605  MEMB      107             0.0000000000
     13311       107  QMPE      H12Y           -3.1781174112      -45.4455470839        3.2143951109  MEMB      107             0.0000000000
     13312       107  QMPE      C313           -2.1699660778      -43.9768996789        2.0811132637  MEMB      107             0.0000000000
     13313       107  QMPE      H13X           -2.4884320710      -42.9306631280        1.8854351120  MEMB      107             0.0000000000
     13314       107  QMPE      H13Y           -1.2451680106      -43.8886598422        2.6904433576  MEMB      107             0.0000000000
     13315       107  QMPE      C314           -1.8992979566      -44.9003008142        0.9455460465  MEMB      107             0.0000000000
     13316       107  QMPE      H14X           -1.7950068964      -45.9586308167        1.2670778652  MEMB      107             0.0000000000
     13317       107  QMPE      H14Y           -0.8765608892      -44.6571552962        0.5860900302  MEMB      107             0.0000000000
     13318       107  QMPE      C315           -2.9415002390      -44.7773908527       -0.1455475359  MEMB      107             0.0000000000
     13319       107  QMPE      H15X           -3.2893965405      -43.7345797553       -0.3062794819  MEMB      107             0.0000000000
     13320       107  QMPE      H15Y           -2.6907525732      -45.1209079779       -1.1719208919  MEMB      107             0.0000000000
     13321       107  QMPE      H15Z           -3.7966318393      -45.3111836705        0.3215014098  MEMB      107             0.0000000000
     13322       108  PMPE      N               4.6917674655      -48.7756131991       20.7540712290  MEMB      108             0.0000000000
     13323       108  PMPE      HN1             4.3286366606      -47.8725034601       21.1203069581  MEMB      108             0.0000000000
     13324       108  PMPE      HN2             3.9105159141      -49.4395098942       20.5794645470  MEMB      108             0.0000000000
     13325       108  PMPE      HN3             5.3322322457      -49.2428088626       21.4272228704  MEMB      108             0.0000000000
     13326       108  PMPE      C12             5.2382391095      -48.6189512829       19.3979348226  MEMB      108             0.0000000000
     13327       108  PMPE      H12A            5.3287900153      -49.6269362363       18.9395811014  MEMB      108             0.0000000000
     13328       108  PMPE      H12B            6.2079732632      -48.1000178418       19.5549210019  MEMB      108             0.0000000000
     13329       108  PMPE      C11             4.3044032006      -47.7489189154       18.5726516175  MEMB      108             0.0000000000
     13330       108  PMPE      H11A            3.2781503197      -48.1651000158       18.6616418514  MEMB      108             0.0000000000
     13331       108  PMPE      H11B            4.4728972767      -47.6509189400       17.4788844175  MEMB      108             0.0000000000
     13332       108  PMPE      P               5.0605892755      -45.1949383092       18.6576086310  MEMB      108             0.0000000000
     13333       108  PMPE      O13             5.6263450062      -44.5149837118       19.8938612983  MEMB      108             0.0000000000
     13334       108  PMPE      O14             4.1571080136      -44.3911095618       17.8352930646  MEMB      108             0.0000000000
     13335       108  PMPE      O11             6.2772710198      -45.7885135941       17.8302672150  MEMB      108             0.0000000000
     13336       108  PMPE      O12             4.2633335483      -46.4715954216       19.0583121196  MEMB      108             0.0000000000
     13337       108  PMPE      C1              7.6711257360      -45.4086282886       18.0705919041  MEMB      108             0.0000000000
     13338       108  PMPE      HA              8.2487605422      -46.3550460909       18.0002187791  MEMB      108             0.0000000000
     13339       108  PMPE      HB              7.9010589535      -45.0787650102       19.1062761978  MEMB      108             0.0000000000
     13340       108  PMPE      C2              8.2291667935      -44.4462269765       16.9806019770  MEMB      108             0.0000000000
     13341       108  PMPE      HS              8.4837325917      -43.4668374294       17.4392011658  MEMB      108             0.0000000000
     13342       108  PMPE      O21             7.5086491531      -44.3475181270       15.6720619374  MEMB      108             0.0000000000
     13343       108  PMPE      C21             6.7035993578      -43.3574358453       15.5599624145  MEMB      108             0.0000000000
     13344       108  PMPE      O22             6.6338821534      -42.4372550106       16.3840299807  MEMB      108             0.0000000000
     13345       108  PMPE      C22             5.8539506683      -43.4491533328       14.2930702907  MEMB      108             0.0000000000
     13346       108  PMPE      H2R             5.3540382956      -42.4780887406       14.0894966495  MEMB      108             0.0000000000
     13347       108  PMPE      H2S             5.0980954730      -44.2371151022       14.4983021190  MEMB      108             0.0000000000
     13348       108  PMPE      C3              9.6054558394      -44.9235123480       16.6114934519  MEMB      108             0.0000000000
     13349       108  PMPE      HX             10.2303405978      -44.8300066887       17.5253298477  MEMB      108             0.0000000000
     13350       108  PMPE      HY             10.0840371370      -44.2237753871       15.8934061058  MEMB      108             0.0000000000
     13351       108  PMPE      O31             9.5821370310      -46.2443147784       16.1476079386  MEMB      108             0.0000000000
     13352       108  PMPE      C31             9.5322526518      -46.5816614773       14.8129140885  MEMB      108             0.0000000000
     13353       108  PMPE      O32             9.4403736799      -45.7971052398       13.9082726260  MEMB      108             0.0000000000
     13354       108  PMPE      C32             9.6301885708      -48.1240492319       14.7500562885  MEMB      108             0.0000000000
     13355       108  PMPE      H2X             8.7851191099      -48.4144077852       15.4102610658  MEMB      108             0.0000000000
     13356       108  PMPE      H2Y            10.6249143753      -48.4134922659       15.1513841359  MEMB      108             0.0000000000
     13357       108  PMPE      C23             6.6414311364      -44.0967227297       13.1081486106  MEMB      108             0.0000000000
     13358       108  PMPE      H3R             6.9927081753      -45.1288101349       13.3219732858  MEMB      108             0.0000000000
     13359       108  PMPE      H3S             7.5318747883      -43.4988188453       12.8184211314  MEMB      108             0.0000000000
     13360       108  PMPE      C24             5.8494985763      -44.0592100398       11.8473974672  MEMB      108             0.0000000000
     13361       108  PMPE      H4R             6.5499397780      -44.4066910437       11.0581187060  MEMB      108             0.0000000000
     13362       108  PMPE      H4S             5.6661794344      -42.9931646714       11.5938970772  MEMB      108             0.0000000000
     13363       108  PMPE      C25             4.5206488883      -44.8326859531       11.8612103268  MEMB      108             0.0000000000
     13364       108  PMPE      H5R             3.8331810971      -44.3547767657       12.5914922923  MEMB      108             0.0000000000
     13365       108  PMPE      H5S             4.5704352381      -45.8978791092       12.1729894183  MEMB      108             0.0000000000
     13366       108  PMPE      C26             3.7566177112      -44.7454604157       10.5002400552  MEMB      108             0.0000000000
     13367       108  PMPE      H6R             3.5794011698      -43.7167893887       10.1197780619  MEMB      108             0.0000000000
     13368       108  PMPE      H6S             2.7842366518      -45.2531597525       10.6764153504  MEMB      108             0.0000000000
     13369       108  PMPE      C27             4.4847102287      -45.4616247772        9.2365017426  MEMB      108             0.0000000000
     13370       108  PMPE      H7R             4.6175374963      -46.4499503686        9.7262871388  MEMB      108             0.0000000000
     13371       108  PMPE      H7S             5.4121680995      -44.8513837923        9.1946808358  MEMB      108             0.0000000000
     13372       108  PMPE      C28             3.7991088720      -45.5126093902        7.9072717460  MEMB      108             0.0000000000
     13373       108  PMPE      H8R             4.5123799335      -45.8502360083        7.1252402244  MEMB      108             0.0000000000
     13374       108  PMPE      H8S             3.6998306134      -44.4225195983        7.7170897216  MEMB      108             0.0000000000
     13375       108  PMPE      C29             2.5119942252      -46.2920766014        7.9037432157  MEMB      108             0.0000000000
     13376       108  PMPE      H9R             1.6494292649      -45.9678181569        8.5243546306  MEMB      108             0.0000000000
     13377       108  PMPE      C217            2.6335215267      -47.8227308744        7.7543941491  MEMB      108             0.0000000000
     13378       108  PMPE      H17R            1.8978536128      -48.3839916647        8.3171279802  MEMB      108             0.0000000000
     13379       108  PMPE      H17S            3.6461760553      -48.1240703616        7.5164565416  MEMB      108             0.0000000000
     13380       108  PMPE      C210            2.0852147996      -46.9333749572        6.6127137109  MEMB      108             0.0000000000
     13381       108  PMPE      H10R            1.0002404605      -47.0674413542        6.4147800654  MEMB      108             0.0000000000
     13382       108  PMPE      C211            2.9194638350      -46.9179972177        5.3476766456  MEMB      108             0.0000000000
     13383       108  PMPE      H11R            2.5574996290      -47.7656074900        4.7273060894  MEMB      108             0.0000000000
     13384       108  PMPE      H11S            3.9914061311      -47.0428189020        5.6116472947  MEMB      108             0.0000000000
     13385       108  PMPE      C212            2.8787517335      -45.5749171280        4.6003582705  MEMB      108             0.0000000000
     13386       108  PMPE      H12R            3.5546284796      -45.6501333943        3.7218064416  MEMB      108             0.0000000000
     13387       108  PMPE      H12S            3.0005600512      -44.7011287396        5.2756194987  MEMB      108             0.0000000000
     13388       108  PMPE      C213            1.4447568577      -45.2862010214        3.9611466487  MEMB      108             0.0000000000
     13389       108  PMPE      H13R            0.6882327760      -45.2308470542        4.7728895931  MEMB      108             0.0000000000
     13390       108  PMPE      H13S            1.1932966890      -46.1829818345        3.3554456477  MEMB      108             0.0000000000
     13391       108  PMPE      C214            1.3780962278      -43.8983361889        3.3790625986  MEMB      108             0.0000000000
     13392       108  PMPE      H14R            1.6861273227      -43.1998449630        4.1862476124  MEMB      108             0.0000000000
     13393       108  PMPE      H14S            0.3203979487      -43.7951119712        3.0551180191  MEMB      108             0.0000000000
     13394       108  PMPE      C215            2.2568199554      -43.6489197957        2.0615729932  MEMB      108             0.0000000000
     13395       108  PMPE      H15R            2.1130049762      -44.6034342905        1.5115364765  MEMB      108             0.0000000000
     13396       108  PMPE      H15S            3.3538650781      -43.6340685969        2.2364785839  MEMB      108             0.0000000000
     13397       108  PMPE      C216            1.9021897239      -42.4160209637        1.2438388739  MEMB      108             0.0000000000
     13398       108  PMPE      H16R            2.0761887983      -41.4510432786        1.7662020808  MEMB      108             0.0000000000
     13399       108  PMPE      H16S            2.3979907934      -42.4528154122        0.2502854862  MEMB      108             0.0000000000
     13400       108  PMPE      H16T            0.8078140541      -42.3108409700        1.0838371681  MEMB      108             0.0000000000
     13401       108  PMPE      C33             9.3762769444      -48.6735200992       13.3997798574  MEMB      108             0.0000000000
     13402       108  PMPE      H3X             9.7977350693      -49.6997766038       13.3406856375  MEMB      108             0.0000000000
     13403       108  PMPE      H3Y             9.9754851231      -48.0867171369       12.6711287914  MEMB      108             0.0000000000
     13404       108  PMPE      C34             7.8892810065      -48.7119608281       12.8895958264  MEMB      108             0.0000000000
     13405       108  PMPE      H4X             7.5274957769      -47.6712870827       12.7466584159  MEMB      108             0.0000000000
     13406       108  PMPE      H4Y             7.2020166668      -49.1148191001       13.6639950216  MEMB      108             0.0000000000
     13407       108  PMPE      C35             7.6809922059      -49.4944026203       11.5274256560  MEMB      108             0.0000000000
     13408       108  PMPE      H5X             6.8269257440      -50.2030956076       11.5788621901  MEMB      108             0.0000000000
     13409       108  PMPE      H5Y             8.6372994609      -50.0377571031       11.3706988039  MEMB      108             0.0000000000
     13410       108  PMPE      C36             7.5191315912      -48.5160393007       10.3456835811  MEMB      108             0.0000000000
     13411       108  PMPE      H6X             8.4107523599      -47.8620670020       10.2377321258  MEMB      108             0.0000000000
     13412       108  PMPE      H6Y             6.6952479279      -47.8542817780       10.6886313368  MEMB      108             0.0000000000
     13413       108  PMPE      C37             7.2303276399      -49.2825907923        9.1052718590  MEMB      108             0.0000000000
     13414       108  PMPE      H7X             6.3086057013      -49.8450820142        9.3667157671  MEMB      108             0.0000000000
     13415       108  PMPE      H7Y             7.9720227215      -49.9860062548        8.6700527351  MEMB      108             0.0000000000
     13416       108  PMPE      C38             6.7241331452      -48.4203755155        7.8948306665  MEMB      108             0.0000000000
     13417       108  PMPE      H8X             5.7066788079      -48.0300108111        8.1109846705  MEMB      108             0.0000000000
     13418       108  PMPE      H8Y             6.5844331946      -49.1748187972        7.0913257996  MEMB      108             0.0000000000
     13419       108  PMPE      C39             7.5992481558      -47.2214353948        7.4089636095  MEMB      108             0.0000000000
     13420       108  PMPE      H9X             8.6158822382      -47.6593417235        7.3140216896  MEMB      108             0.0000000000
     13421       108  PMPE      H9Y             7.5556329156      -46.4693827780        8.2255641952  MEMB      108             0.0000000000
     13422       108  PMPE      C310            7.1741638953      -46.5332171040        6.0944554655  MEMB      108             0.0000000000
     13423       108  PMPE      H10X            7.7821721915      -45.6076530758        6.0051372145  MEMB      108             0.0000000000
     13424       108  PMPE      H10Y            6.0676366431      -46.4343978200        6.0820781598  MEMB      108             0.0000000000
     13425       108  PMPE      C311            7.4922671972      -47.3299126790        4.8097829982  MEMB      108             0.0000000000
     13426       108  PMPE      H11X            7.2570919212      -48.3958794017        5.0164924237  MEMB      108             0.0000000000
     13427       108  PMPE      H11Y            8.5537569706      -47.1984583980        4.5093164863  MEMB      108             0.0000000000
     13428       108  PMPE      C312            6.9209046058      -46.9206944968        3.5245891380  MEMB      108             0.0000000000
     13429       108  PMPE      H12X            7.0093870400      -45.8439744951        3.2654258289  MEMB      108             0.0000000000
     13430       108  PMPE      H12Y            5.8479922454      -47.0498293226        3.7824728042  MEMB      108             0.0000000000
     13431       108  PMPE      C313            7.2177385238      -47.9066724621        2.3177757358  MEMB      108             0.0000000000
     13432       108  PMPE      H13X            7.1909570921      -48.9677830062        2.6458720487  MEMB      108             0.0000000000
     13433       108  PMPE      H13Y            8.2860106400      -47.6421859970        2.1655808576  MEMB      108             0.0000000000
     13434       108  PMPE      C314            6.4173583614      -47.6775490472        1.0470905327  MEMB      108             0.0000000000
     13435       108  PMPE      H14X            6.9383449516      -48.3228636598        0.3078585149  MEMB      108             0.0000000000
     13436       108  PMPE      H14Y            6.4867270658      -46.6252143112        0.6976611003  MEMB      108             0.0000000000
     13437       108  PMPE      C315            4.9653332456      -48.1250897275        1.1725158602  MEMB      108             0.0000000000
     13438       108  PMPE      H15X            4.3940544838      -47.4357973214        1.8304196077  MEMB      108             0.0000000000
     13439       108  PMPE      H15Y            4.9604352380      -49.0870176022        1.7283867403  MEMB      108             0.0000000000
     13440       108  PMPE      C316            4.2029945038      -48.1949201671       -0.1242106112  MEMB      108             0.0000000000
     13441       108  PMPE      H16X            3.1484087195      -48.4619834032        0.1012809394  MEMB      108             0.0000000000
     13442       108  PMPE      H16Y            4.7401644452      -48.8970001534       -0.7971543304  MEMB      108             0.0000000000
     13443       108  PMPE      H16Z            4.1299504185      -47.2233728586       -0.6581417067  MEMB      108             0.0000000000
     13444       109  PMPE      N             -11.7000464205      -43.6579888937       20.7335190287  MEMB      109             0.0000000000
     13445       109  PMPE      HN1           -11.1956242926      -42.9076812573       20.2195183057  MEMB      109             0.0000000000
     13446       109  PMPE      HN2           -12.5697898183      -43.8316220753       20.1903820396  MEMB      109             0.0000000000
     13447       109  PMPE      HN3           -11.9134605423      -43.3384343343       21.6999243461  MEMB      109             0.0000000000
     13448       109  PMPE      C12           -10.8270664645      -44.8533366254       20.7070952786  MEMB      109             0.0000000000
     13449       109  PMPE      H12A          -10.9973925798      -45.3733852366       21.6739764543  MEMB      109             0.0000000000
     13450       109  PMPE      H12B           -9.7848679526      -44.4731402094       20.6471458032  MEMB      109             0.0000000000
     13451       109  PMPE      C11           -11.0826306573      -45.6948622416       19.4634183984  MEMB      109             0.0000000000
     13452       109  PMPE      H11A          -10.5391862600      -46.6174077982       19.7598958404  MEMB      109             0.0000000000
     13453       109  PMPE      H11B          -10.7393551642      -45.2643426032       18.4984646341  MEMB      109             0.0000000000
     13454       109  PMPE      P             -13.0295057010      -46.8614022376       18.2296433152  MEMB      109             0.0000000000
     13455       109  PMPE      O13           -14.2549574343      -47.6047003510       18.6440568009  MEMB      109             0.0000000000
     13456       109  PMPE      O14           -11.8988432001      -47.5907240755       17.6658274772  MEMB      109             0.0000000000
     13457       109  PMPE      O11           -13.4824635415      -45.8679079844       17.1375756830  MEMB      109             0.0000000000
     13458       109  PMPE      O12           -12.4826489850      -45.9551615552       19.4188640203  MEMB      109             0.0000000000
     13459       109  PMPE      C1            -13.9869945379      -44.5759144195       17.3697597870  MEMB      109             0.0000000000
     13460       109  PMPE      HA            -13.5556199977      -44.1835714347       18.3154362206  MEMB      109             0.0000000000
     13461       109  PMPE      HB            -15.0669374452      -44.7010005371       17.5986651007  MEMB      109             0.0000000000
     13462       109  PMPE      C2            -13.7354151025      -43.5622143505       16.2702149357  MEMB      109             0.0000000000
     13463       109  PMPE      HS            -13.9759272330      -42.5621661954       16.6901894110  MEMB      109             0.0000000000
     13464       109  PMPE      O21           -14.5696488431      -43.8785783538       15.1731364624  MEMB      109             0.0000000000
     13465       109  PMPE      C21           -14.6074211866      -43.0232449222       14.2098339296  MEMB      109             0.0000000000
     13466       109  PMPE      O22           -14.2416061012      -41.8421716911       14.2561351213  MEMB      109             0.0000000000
     13467       109  PMPE      C22           -15.3849287905      -43.6454567898       13.0006462990  MEMB      109             0.0000000000
     13468       109  PMPE      H2R           -16.2990518061      -43.0294370073       12.8620104766  MEMB      109             0.0000000000
     13469       109  PMPE      H2S           -15.6311886079      -44.6886566010       13.2928985070  MEMB      109             0.0000000000
     13470       109  PMPE      C3            -12.2247305444      -43.5046370844       15.7753616542  MEMB      109             0.0000000000
     13471       109  PMPE      HX            -11.5450529161      -43.6164803254       16.6470557305  MEMB      109             0.0000000000
     13472       109  PMPE      HY            -12.1149574414      -42.5080085169       15.2968198514  MEMB      109             0.0000000000
     13473       109  PMPE      O31           -12.0069618870      -44.5159778974       14.7559550951  MEMB      109             0.0000000000
     13474       109  PMPE      C31           -10.8244255289      -44.5128924604       14.1364839928  MEMB      109             0.0000000000
     13475       109  PMPE      O32            -9.9280694606      -43.7007141669       14.3707664506  MEMB      109             0.0000000000
     13476       109  PMPE      C32           -10.7114544326      -45.7443718215       13.2695220005  MEMB      109             0.0000000000
     13477       109  PMPE      H2X           -11.4251940837      -45.7488557663       12.4181251165  MEMB      109             0.0000000000
     13478       109  PMPE      H2Y           -11.0272586767      -46.6234339692       13.8710516349  MEMB      109             0.0000000000
     13479       109  PMPE      C23           -14.5824107446      -43.3621897364       11.7160704033  MEMB      109             0.0000000000
     13480       109  PMPE      H3R           -13.5787081467      -43.8383229897       11.7301843205  MEMB      109             0.0000000000
     13481       109  PMPE      H3S           -14.5322120695      -42.2596822676       11.5884832448  MEMB      109             0.0000000000
     13482       109  PMPE      C24           -15.3196295349      -43.8595223279       10.4217407229  MEMB      109             0.0000000000
     13483       109  PMPE      H4R           -16.1665995741      -43.1458330020       10.3345047013  MEMB      109             0.0000000000
     13484       109  PMPE      H4S           -15.6806262055      -44.8990395614       10.5747319583  MEMB      109             0.0000000000
     13485       109  PMPE      C25           -14.3317332087      -43.5907544675        9.2476018412  MEMB      109             0.0000000000
     13486       109  PMPE      H5R           -13.5569866148      -44.3846171938        9.1853881115  MEMB      109             0.0000000000
     13487       109  PMPE      H5S           -13.8433896510      -42.6053612434        9.4052148704  MEMB      109             0.0000000000
     13488       109  PMPE      C26           -15.0754417787      -43.6110966016        7.9321373933  MEMB      109             0.0000000000
     13489       109  PMPE      H6R           -15.7605567763      -42.7399147698        8.0094731142  MEMB      109             0.0000000000
     13490       109  PMPE      H6S           -15.6715523265      -44.5485475472        7.9195337212  MEMB      109             0.0000000000
     13491       109  PMPE      C27           -14.2245414717      -43.5665530356        6.6714997510  MEMB      109             0.0000000000
     13492       109  PMPE      H7R           -13.5239254829      -44.4204962505        6.7908290091  MEMB      109             0.0000000000
     13493       109  PMPE      H7S           -13.5763617666      -42.6645750663        6.6466085891  MEMB      109             0.0000000000
     13494       109  PMPE      C28           -14.9988427754      -43.6098616841        5.3466431896  MEMB      109             0.0000000000
     13495       109  PMPE      H8R           -15.8241798094      -42.8668039043        5.3783433515  MEMB      109             0.0000000000
     13496       109  PMPE      H8S           -15.4859659283      -44.5969190277        5.1958136766  MEMB      109             0.0000000000
     13497       109  PMPE      C29           -14.0262338806      -43.2108760950        4.2476974396  MEMB      109             0.0000000000
     13498       109  PMPE      H9R           -13.0607900157      -43.7588205376        4.2923707228  MEMB      109             0.0000000000
     13499       109  PMPE      C217          -14.1482051103      -41.8264511432        3.6093712132  MEMB      109             0.0000000000
     13500       109  PMPE      H17R          -13.3052891088      -41.4165769361        3.0667991521  MEMB      109             0.0000000000
     13501       109  PMPE      H17S          -15.0534988843      -41.3137249053        3.9101107982  MEMB      109             0.0000000000
     13502       109  PMPE      C210          -14.5154772679      -43.1156591613        2.7998330235  MEMB      109             0.0000000000
     13503       109  PMPE      H10R          -13.7323034035      -43.3408086786        2.0446723505  MEMB      109             0.0000000000
     13504       109  PMPE      C211          -15.8992048633      -42.9852856610        2.2978959705  MEMB      109             0.0000000000
     13505       109  PMPE      H11R          -16.0601570661      -42.0348705695        1.7455124417  MEMB      109             0.0000000000
     13506       109  PMPE      H11S          -16.5804147675      -42.9098117118        3.1722970582  MEMB      109             0.0000000000
     13507       109  PMPE      C212          -16.3237962466      -44.3253351102        1.7504358196  MEMB      109             0.0000000000
     13508       109  PMPE      H12R          -16.0148023322      -45.1088941975        2.4749223730  MEMB      109             0.0000000000
     13509       109  PMPE      H12S          -15.8909718290      -44.5204250820        0.7459841301  MEMB      109             0.0000000000
     13510       109  PMPE      C213          -17.8787636155      -44.4666298583        1.5022026407  MEMB      109             0.0000000000
     13511       109  PMPE      H13R          -18.0435462077      -43.5150445190        0.9529727585  MEMB      109             0.0000000000
     13512       109  PMPE      H13S          -18.2560921553      -44.4318277224        2.5465842935  MEMB      109             0.0000000000
     13513       109  PMPE      C214          -18.3030904703      -45.7523308316        0.7745833331  MEMB      109             0.0000000000
     13514       109  PMPE      H14R          -18.2373533888      -46.6846613815        1.3752167296  MEMB      109             0.0000000000
     13515       109  PMPE      H14S          -17.6468858067      -45.9145675374       -0.1071171958  MEMB      109             0.0000000000
     13516       109  PMPE      C215          -19.7303048046      -45.7231637624        0.2926880870  MEMB      109             0.0000000000
     13517       109  PMPE      H15R          -20.0379635436      -46.6420341313       -0.2507672404  MEMB      109             0.0000000000
     13518       109  PMPE      H15S          -19.8120443148      -44.7713189717       -0.2744366253  MEMB      109             0.0000000000
     13519       109  PMPE      C216          -20.7452870448      -45.5746628028        1.4648129035  MEMB      109             0.0000000000
     13520       109  PMPE      H16R          -21.5984265302      -46.2277059849        1.1819545877  MEMB      109             0.0000000000
     13521       109  PMPE      H16S          -20.2578503427      -46.0626438006        2.3357894394  MEMB      109             0.0000000000
     13522       109  PMPE      H16T          -20.9902026560      -44.5271610985        1.7424406784  MEMB      109             0.0000000000
     13523       109  PMPE      C33            -9.2288711668      -45.8336501724       12.9115389311  MEMB      109             0.0000000000
     13524       109  PMPE      H3X            -8.8657188441      -45.9327737610       13.9568215959  MEMB      109             0.0000000000
     13525       109  PMPE      H3Y            -8.8211768426      -44.8614658564       12.5608766408  MEMB      109             0.0000000000
     13526       109  PMPE      C34            -8.7282712364      -46.9694035398       11.9368149291  MEMB      109             0.0000000000
     13527       109  PMPE      H4X            -8.6689460729      -47.9423126977       12.4699651745  MEMB      109             0.0000000000
     13528       109  PMPE      H4Y            -7.6845899527      -46.7175295147       11.6511398375  MEMB      109             0.0000000000
     13529       109  PMPE      C35            -9.4992154695      -47.2926195778       10.6938744508  MEMB      109             0.0000000000
     13530       109  PMPE      H5X           -10.4261048543      -47.8609390180       10.9223687957  MEMB      109             0.0000000000
     13531       109  PMPE      H5Y            -8.9444297335      -47.9056038952        9.9517261673  MEMB      109             0.0000000000
     13532       109  PMPE      C36            -9.9792544628      -45.9878603181        9.9320304354  MEMB      109             0.0000000000
     13533       109  PMPE      H6X            -9.0718885298      -45.4171088810        9.6400534298  MEMB      109             0.0000000000
     13534       109  PMPE      H6Y           -10.5485383682      -45.4464548649       10.7175980962  MEMB      109             0.0000000000
     13535       109  PMPE      C37           -10.9517632401      -46.3460108691        8.8053474457  MEMB      109             0.0000000000
     13536       109  PMPE      H7X           -11.1542162534      -45.3630480234        8.3287791702  MEMB      109             0.0000000000
     13537       109  PMPE      H7Y           -11.9005233386      -46.7753933537        9.1923953828  MEMB      109             0.0000000000
     13538       109  PMPE      C38           -10.4784936988      -47.3092864678        7.7112901359  MEMB      109             0.0000000000
     13539       109  PMPE      H8X           -10.5913615291      -48.3607014152        8.0520372903  MEMB      109             0.0000000000
     13540       109  PMPE      H8Y            -9.4233827354      -47.1122994824        7.4244833996  MEMB      109             0.0000000000
     13541       109  PMPE      C39           -11.2893690837      -47.2985407074        6.3288018976  MEMB      109             0.0000000000
     13542       109  PMPE      H9X           -12.3595703748      -47.4050067222        6.6074692568  MEMB      109             0.0000000000
     13543       109  PMPE      H9Y           -11.0268440087      -48.2451631959        5.8098533557  MEMB      109             0.0000000000
     13544       109  PMPE      C310          -10.9697185180      -46.1386200005        5.4181031214  MEMB      109             0.0000000000
     13545       109  PMPE      H10X           -9.8664870010      -46.0284557105        5.3469334541  MEMB      109             0.0000000000
     13546       109  PMPE      H10Y          -11.3908926947      -45.2270705309        5.8935094366  MEMB      109             0.0000000000
     13547       109  PMPE      C311          -11.5926200417      -46.1377397882        4.0625604598  MEMB      109             0.0000000000
     13548       109  PMPE      H11X          -11.3210089830      -45.1410282495        3.6537637778  MEMB      109             0.0000000000
     13549       109  PMPE      H11Y          -12.6999021339      -46.1758673662        3.9801354502  MEMB      109             0.0000000000
     13550       109  PMPE      C312          -11.1876643348      -47.2932053529        3.0544358964  MEMB      109             0.0000000000
     13551       109  PMPE      H12X          -11.5804468273      -48.2520074024        3.4553625109  MEMB      109             0.0000000000
     13552       109  PMPE      H12Y          -10.0960113396      -47.4941037682        3.1019087732  MEMB      109             0.0000000000
     13553       109  PMPE      C313          -11.4999153619      -47.1138743990        1.5211823697  MEMB      109             0.0000000000
     13554       109  PMPE      H13X          -11.1268104449      -47.9757220354        0.9276068613  MEMB      109             0.0000000000
     13555       109  PMPE      H13Y          -11.0956665147      -46.1219246087        1.2263276492  MEMB      109             0.0000000000
     13556       109  PMPE      C314          -13.0211776104      -47.2302865779        1.2254969472  MEMB      109             0.0000000000
     13557       109  PMPE      H14X          -13.1997491571      -46.9806808856        0.1577276831  MEMB      109             0.0000000000
     13558       109  PMPE      H14Y          -13.5811198398      -46.4956788466        1.8428601308  MEMB      109             0.0000000000
     13559       109  PMPE      C315          -13.6881320182      -48.6239677709        1.3460094184  MEMB      109             0.0000000000
     13560       109  PMPE      H15X          -13.4259482451      -49.0975218764        2.3162304378  MEMB      109             0.0000000000
     13561       109  PMPE      H15Y          -13.4393134354      -49.2437221075        0.4581392441  MEMB      109             0.0000000000
     13562       109  PMPE      C316          -15.1821221087      -48.6413112860        1.3506367362  MEMB      109             0.0000000000
     13563       109  PMPE      H16X          -15.6115272251      -48.2930274944        0.3869826485  MEMB      109             0.0000000000
     13564       109  PMPE      H16Y          -15.7018567269      -48.0400016557        2.1269260078  MEMB      109             0.0000000000
     13565       109  PMPE      H16Z          -15.5182234271      -49.6906942514        1.4925964020  MEMB      109             0.0000000000
     13566       110  PMPE      N             -29.0156862746       35.2299724068       20.8013441463  MEMB      110             0.0000000000
     13567       110  PMPE      HN1           -29.9217567003       34.7948400651       21.0683579456  MEMB      110             0.0000000000
     13568       110  PMPE      HN2           -28.5040275473       34.5964664659       20.1544473939  MEMB      110             0.0000000000
     13569       110  PMPE      HN3           -28.4336765084       35.6027597594       21.5784504189  MEMB      110             0.0000000000
     13570       110  PMPE      C12           -29.5219320902       36.4210069273       19.9845741360  MEMB      110             0.0000000000
     13571       110  PMPE      H12A          -30.3509958630       36.8958042120       20.5516206203  MEMB      110             0.0000000000
     13572       110  PMPE      H12B          -29.8876376990       35.9836683292       19.0309938758  MEMB      110             0.0000000000
     13573       110  PMPE      C11           -28.3854213334       37.4133806328       19.5698732635  MEMB      110             0.0000000000
     13574       110  PMPE      H11A          -27.7765189029       36.7493812712       18.9197474044  MEMB      110             0.0000000000
     13575       110  PMPE      H11B          -27.7238600744       37.7597750761       20.3924719331  MEMB      110             0.0000000000
     13576       110  PMPE      P             -28.1070014945       39.6716344481       18.2811937877  MEMB      110             0.0000000000
     13577       110  PMPE      O13           -28.7573733727       40.9646722976       18.4859163129  MEMB      110             0.0000000000
     13578       110  PMPE      O14           -27.7020461751       39.2686213144       16.8826705807  MEMB      110             0.0000000000
     13579       110  PMPE      O11           -26.7860173501       39.5034476768       19.1705918621  MEMB      110             0.0000000000
     13580       110  PMPE      O12           -28.9557587253       38.5097762678       18.8238359500  MEMB      110             0.0000000000
     13581       110  PMPE      C1            -25.8929992364       40.5642887947       19.4372911126  MEMB      110             0.0000000000
     13582       110  PMPE      HA            -25.4636026344       40.4103579975       20.4503284720  MEMB      110             0.0000000000
     13583       110  PMPE      HB            -26.3861815216       41.5594519853       19.4100434170  MEMB      110             0.0000000000
     13584       110  PMPE      C2            -24.7608785836       40.6114908053       18.3496899611  MEMB      110             0.0000000000
     13585       110  PMPE      HS            -23.9758114253       41.3556131763       18.6032105522  MEMB      110             0.0000000000
     13586       110  PMPE      O21           -25.2938846207       41.0397848292       17.1135576828  MEMB      110             0.0000000000
     13587       110  PMPE      C21           -25.5822527153       42.2615011968       16.8324026389  MEMB      110             0.0000000000
     13588       110  PMPE      O22           -25.2749203715       43.2620844934       17.4766565859  MEMB      110             0.0000000000
     13589       110  PMPE      C22           -26.4888738039       42.3252876661       15.5207554876  MEMB      110             0.0000000000
     13590       110  PMPE      H2R           -26.5334046334       43.4330343176       15.4484006959  MEMB      110             0.0000000000
     13591       110  PMPE      H2S           -27.4261416414       41.7424887744       15.6480169680  MEMB      110             0.0000000000
     13592       110  PMPE      C3            -24.1224627786       39.2210430500       18.0943328511  MEMB      110             0.0000000000
     13593       110  PMPE      HX            -23.9094108216       38.8440455298       19.1174666521  MEMB      110             0.0000000000
     13594       110  PMPE      HY            -23.2325938228       39.3392047548       17.4397399556  MEMB      110             0.0000000000
     13595       110  PMPE      O31           -24.9897298916       38.2324585222       17.5028247900  MEMB      110             0.0000000000
     13596       110  PMPE      C31           -24.3843670506       37.4511112724       16.5822236839  MEMB      110             0.0000000000
     13597       110  PMPE      O32           -23.1936332977       37.4798661425       16.2415298416  MEMB      110             0.0000000000
     13598       110  PMPE      C32           -25.3903056969       36.4269050920       16.0050319247  MEMB      110             0.0000000000
     13599       110  PMPE      H2X           -26.4727529727       36.5826602379       16.2009122240  MEMB      110             0.0000000000
     13600       110  PMPE      H2Y           -25.2209795351       35.5227740800       16.6280862383  MEMB      110             0.0000000000
     13601       110  PMPE      C23           -25.7904200470       41.8728586642       14.2621416196  MEMB      110             0.0000000000
     13602       110  PMPE      H3R           -25.5672135890       40.7849495560       14.2930250498  MEMB      110             0.0000000000
     13603       110  PMPE      H3S           -24.8286040453       42.4145595146       14.1364795520  MEMB      110             0.0000000000
     13604       110  PMPE      C24           -26.5216861376       42.2006179531       12.9776134020  MEMB      110             0.0000000000
     13605       110  PMPE      H4R           -26.1684830836       43.2196471099       12.7108774837  MEMB      110             0.0000000000
     13606       110  PMPE      H4S           -27.6163664684       42.2167895339       13.1666489986  MEMB      110             0.0000000000
     13607       110  PMPE      C25           -26.2042017327       41.2954401760       11.8005686939  MEMB      110             0.0000000000
     13608       110  PMPE      H5R           -26.2848271621       40.2585842435       12.1914017313  MEMB      110             0.0000000000
     13609       110  PMPE      H5S           -25.1847623662       41.4277317588       11.3791859666  MEMB      110             0.0000000000
     13610       110  PMPE      C26           -27.2028413772       41.4865938248       10.6557907893  MEMB      110             0.0000000000
     13611       110  PMPE      H6R           -28.1491485171       41.5698770146       11.2318877561  MEMB      110             0.0000000000
     13612       110  PMPE      H6S           -27.1381401373       40.6153313966        9.9694694869  MEMB      110             0.0000000000
     13613       110  PMPE      C27           -27.0488345521       42.6867821609        9.7307735884  MEMB      110             0.0000000000
     13614       110  PMPE      H7R           -26.0554158558       42.7316102443        9.2353635120  MEMB      110             0.0000000000
     13615       110  PMPE      H7S           -27.0493129799       43.5756592974       10.3972699853  MEMB      110             0.0000000000
     13616       110  PMPE      C28           -28.1689785371       42.8535050872        8.6617492072  MEMB      110             0.0000000000
     13617       110  PMPE      H8R           -28.0404750242       41.9915985794        7.9726014390  MEMB      110             0.0000000000
     13618       110  PMPE      H8S           -28.0049442586       43.7710717717        8.0571956362  MEMB      110             0.0000000000
     13619       110  PMPE      C29           -29.6363998172       42.8637869971        9.1726264750  MEMB      110             0.0000000000
     13620       110  PMPE      H9R           -29.7716720511       43.6682443175        9.9268618746  MEMB      110             0.0000000000
     13621       110  PMPE      C217          -30.4238976814       41.5823053930        9.0315935775  MEMB      110             0.0000000000
     13622       110  PMPE      H17R          -31.0307674253       41.4810207338        9.9228509678  MEMB      110             0.0000000000
     13623       110  PMPE      H17S          -29.9168652886       40.7572818498        8.5466775236  MEMB      110             0.0000000000
     13624       110  PMPE      C210          -30.6918527570       42.7540131980        8.0872226380  MEMB      110             0.0000000000
     13625       110  PMPE      H10R          -31.6624851241       43.2735207115        8.2365753948  MEMB      110             0.0000000000
     13626       110  PMPE      C211          -30.2156737959       42.7510362962        6.6983773417  MEMB      110             0.0000000000
     13627       110  PMPE      H11R          -29.4621822468       41.9400167026        6.6044685951  MEMB      110             0.0000000000
     13628       110  PMPE      H11S          -29.7936440478       43.7122632010        6.3347102875  MEMB      110             0.0000000000
     13629       110  PMPE      C212          -31.3597855807       42.2706867414        5.8181663321  MEMB      110             0.0000000000
     13630       110  PMPE      H12R          -32.0747328752       43.1170739336        5.7357065402  MEMB      110             0.0000000000
     13631       110  PMPE      H12S          -31.7977988480       41.4046620016        6.3589681292  MEMB      110             0.0000000000
     13632       110  PMPE      C213          -31.0129092598       42.0104971759        4.3001810572  MEMB      110             0.0000000000
     13633       110  PMPE      H13R          -31.9310851588       41.7658991655        3.7244676454  MEMB      110             0.0000000000
     13634       110  PMPE      H13S          -30.4926654558       41.0288630210        4.3080126412  MEMB      110             0.0000000000
     13635       110  PMPE      C214          -30.2956075836       43.1270345064        3.4923922382  MEMB      110             0.0000000000
     13636       110  PMPE      H14R          -29.2689510226       43.2764606629        3.8898456170  MEMB      110             0.0000000000
     13637       110  PMPE      H14S          -30.8299526730       44.1002746186        3.5323957681  MEMB      110             0.0000000000
     13638       110  PMPE      C215          -30.1646102039       42.7521172172        2.0162739395  MEMB      110             0.0000000000
     13639       110  PMPE      H15R          -31.0851384359       42.9871268344        1.4403234050  MEMB      110             0.0000000000
     13640       110  PMPE      H15S          -29.7990927417       41.7099551518        1.8953791935  MEMB      110             0.0000000000
     13641       110  PMPE      C216          -29.1136226306       43.5888325908        1.2033776528  MEMB      110             0.0000000000
     13642       110  PMPE      H16R          -29.1508764353       43.3897522002        0.1109951836  MEMB      110             0.0000000000
     13643       110  PMPE      H16S          -29.4376077795       44.6506008053        1.2481233989  MEMB      110             0.0000000000
     13644       110  PMPE      H16T          -28.0910575623       43.5641386663        1.6370507179  MEMB      110             0.0000000000
     13645       110  PMPE      C33           -25.1207837623       36.3755079381       14.5492406010  MEMB      110             0.0000000000
     13646       110  PMPE      H3X           -25.6737168486       35.4946402520       14.1585254409  MEMB      110             0.0000000000
     13647       110  PMPE      H3Y           -24.0375773228       36.1517332525       14.4447916832  MEMB      110             0.0000000000
     13648       110  PMPE      C34           -25.5727662480       37.6437129142       13.8656228753  MEMB      110             0.0000000000
     13649       110  PMPE      H4X           -25.2442618494       37.8246698470       12.8198405458  MEMB      110             0.0000000000
     13650       110  PMPE      H4Y           -25.2175514201       38.6089415479       14.2857143707  MEMB      110             0.0000000000
     13651       110  PMPE      C35           -27.1501765356       37.7622598690       13.5606792963  MEMB      110             0.0000000000
     13652       110  PMPE      H5X           -27.3627966306       38.8428629403       13.7070027687  MEMB      110             0.0000000000
     13653       110  PMPE      H5Y           -27.8454279917       37.2123219705       14.2303913724  MEMB      110             0.0000000000
     13654       110  PMPE      C36           -27.5998859350       37.4030326821       12.1626999374  MEMB      110             0.0000000000
     13655       110  PMPE      H6X           -27.5533020924       36.2987254241       12.0501978028  MEMB      110             0.0000000000
     13656       110  PMPE      H6Y           -27.0252074672       37.9748029109       11.4029998535  MEMB      110             0.0000000000
     13657       110  PMPE      C37           -28.9938715450       37.9870207238       12.0366563571  MEMB      110             0.0000000000
     13658       110  PMPE      H7X           -29.1244213808       39.0887054723       11.9769198308  MEMB      110             0.0000000000
     13659       110  PMPE      H7Y           -29.7514339052       37.6580238804       12.7797451791  MEMB      110             0.0000000000
     13660       110  PMPE      C38           -29.6704570341       37.5161022963       10.6981225283  MEMB      110             0.0000000000
     13661       110  PMPE      H8X           -30.6559115863       38.0281691483       10.7295519762  MEMB      110             0.0000000000
     13662       110  PMPE      H8Y           -29.8888669301       36.4370762683       10.8475241686  MEMB      110             0.0000000000
     13663       110  PMPE      C39           -28.9652607519       37.7345484113        9.3453601683  MEMB      110             0.0000000000
     13664       110  PMPE      H9X           -27.8834193694       37.6283264435        9.5748320633  MEMB      110             0.0000000000
     13665       110  PMPE      H9Y           -29.1592884683       38.8103213001        9.1468987072  MEMB      110             0.0000000000
     13666       110  PMPE      C310          -29.5056634154       36.9077548042        8.1324440077  MEMB      110             0.0000000000
     13667       110  PMPE      H10X          -30.5531238195       37.0439680211        7.7880700094  MEMB      110             0.0000000000
     13668       110  PMPE      H10Y          -29.4236793539       35.8234994190        8.3604579441  MEMB      110             0.0000000000
     13669       110  PMPE      C311          -28.7584184697       37.2182670586        6.8738642891  MEMB      110             0.0000000000
     13670       110  PMPE      H11X          -27.6903902436       36.9550174804        7.0298655990  MEMB      110             0.0000000000
     13671       110  PMPE      H11Y          -28.8748082617       38.3217761842        6.8187093289  MEMB      110             0.0000000000
     13672       110  PMPE      C312          -29.3260011598       36.4378851752        5.6462447815  MEMB      110             0.0000000000
     13673       110  PMPE      H12X          -30.4367923454       36.4166657206        5.6424998729  MEMB      110             0.0000000000
     13674       110  PMPE      H12Y          -29.0186338762       35.3729108265        5.7215834971  MEMB      110             0.0000000000
     13675       110  PMPE      C313          -28.7853283309       36.9384273307        4.2881686354  MEMB      110             0.0000000000
     13676       110  PMPE      H13X          -29.5021106949       37.7566775699        4.0623137347  MEMB      110             0.0000000000
     13677       110  PMPE      H13Y          -29.1074434305       36.2224859585        3.5020449608  MEMB      110             0.0000000000
     13678       110  PMPE      C314          -27.3712373155       37.4033734856        4.1069459393  MEMB      110             0.0000000000
     13679       110  PMPE      H14X          -26.5474491051       36.7777980577        4.5123464268  MEMB      110             0.0000000000
     13680       110  PMPE      H14Y          -27.2359889162       38.4169620517        4.5413043416  MEMB      110             0.0000000000
     13681       110  PMPE      C315          -26.9981571333       37.6719188432        2.6336295301  MEMB      110             0.0000000000
     13682       110  PMPE      H15X          -26.0803101069       38.2978446303        2.6433500234  MEMB      110             0.0000000000
     13683       110  PMPE      H15Y          -27.8557862020       38.3013830567        2.3133665088  MEMB      110             0.0000000000
     13684       110  PMPE      C316          -26.7562527162       36.4007938134        1.8534105547  MEMB      110             0.0000000000
     13685       110  PMPE      H16X          -27.4983809622       35.5956793889        2.0414439934  MEMB      110             0.0000000000
     13686       110  PMPE      H16Y          -25.7349689270       35.9784031609        1.9669285246  MEMB      110             0.0000000000
     13687       110  PMPE      H16Z          -26.8345926425       36.6606498318        0.7760717596  MEMB      110             0.0000000000
     13688       111  QMPE      N              36.5950869687       26.7979034443       18.2556601114  MEMB      111             0.0000000000
     13689       111  QMPE      HN1            36.8846377960       26.5595049886       17.2856464309  MEMB      111             0.0000000000
     13690       111  QMPE      HN2            37.1369088295       26.1609380588       18.8739675642  MEMB      111             0.0000000000
     13691       111  QMPE      HN3            35.6015647592       26.5774520241       18.4699377818  MEMB      111             0.0000000000
     13692       111  QMPE      C12            36.9013097949       28.2593861619       18.4465436095  MEMB      111             0.0000000000
     13693       111  QMPE      H12A           35.9177214500       28.7753856838       18.4714332767  MEMB      111             0.0000000000
     13694       111  QMPE      H12B           37.5579637712       28.6113012695       17.6223577077  MEMB      111             0.0000000000
     13695       111  QMPE      C11            37.6163460728       28.5913562970       19.7715753442  MEMB      111             0.0000000000
     13696       111  QMPE      H11A           36.8788629678       28.3101968901       20.5534890917  MEMB      111             0.0000000000
     13697       111  QMPE      H11B           37.8353133153       29.6631842115       19.9653770113  MEMB      111             0.0000000000
     13698       111  QMPE      P              40.0765234447       28.0970283139       19.0924675453  MEMB      111             0.0000000000
     13699       111  QMPE      O13            41.2608998868       28.2570682360       20.0288767519  MEMB      111             0.0000000000
     13700       111  QMPE      O14            39.9442307784       29.1753413929       18.0956434883  MEMB      111             0.0000000000
     13701       111  QMPE      O11            40.2726432103       26.6992903817       18.3277189484  MEMB      111             0.0000000000
     13702       111  QMPE      O12            38.7453462217       27.8447289562       19.9815141853  MEMB      111             0.0000000000
     13703       111  QMPE      C1             39.9472479009       26.5450199743       16.9753232877  MEMB      111             0.0000000000
     13704       111  QMPE      HA             39.1681667325       27.2753722642       16.6688285276  MEMB      111             0.0000000000
     13705       111  QMPE      HB             39.3724249931       25.5951004155       16.9359221911  MEMB      111             0.0000000000
     13706       111  QMPE      C2             41.1915801177       26.5691539409       16.0821214374  MEMB      111             0.0000000000
     13707       111  QMPE      HS             41.8146450244       25.6895601205       16.3512419226  MEMB      111             0.0000000000
     13708       111  QMPE      O21            41.9191125473       27.8549582496       16.3208722428  MEMB      111             0.0000000000
     13709       111  QMPE      C21            43.1141734324       27.7685672325       16.8454620663  MEMB      111             0.0000000000
     13710       111  QMPE      O22            43.6839565230       26.7101575132       17.2101461711  MEMB      111             0.0000000000
     13711       111  QMPE      C22            43.8950580501       29.0246942253       16.5530471044  MEMB      111             0.0000000000
     13712       111  QMPE      H2R            43.8386516567       29.6649347763       17.4592653901  MEMB      111             0.0000000000
     13713       111  QMPE      H2S            43.4786774306       29.5827303741       15.6872848116  MEMB      111             0.0000000000
     13714       111  QMPE      C3             40.8696811433       26.3344399310       14.5765260604  MEMB      111             0.0000000000
     13715       111  QMPE      HX             40.4532668468       25.3289625437       14.3530637738  MEMB      111             0.0000000000
     13716       111  QMPE      HY             41.7829866478       26.2630488192       13.9479581913  MEMB      111             0.0000000000
     13717       111  QMPE      O31            39.9130131538       27.3626833620       14.2137604692  MEMB      111             0.0000000000
     13718       111  QMPE      C31            40.3734825949       28.1971135211       13.4112972877  MEMB      111             0.0000000000
     13719       111  QMPE      O32            41.4613329270       28.1595270367       12.8878181805  MEMB      111             0.0000000000
     13720       111  QMPE      C32            39.2825364198       29.2757532365       13.1475477056  MEMB      111             0.0000000000
     13721       111  QMPE      H2X            38.8273012651       29.1340672952       12.1440504744  MEMB      111             0.0000000000
     13722       111  QMPE      H2Y            38.5169954087       29.2078398350       13.9498297119  MEMB      111             0.0000000000
     13723       111  QMPE      C23            45.3591606893       28.6815921840       16.2322461760  MEMB      111             0.0000000000
     13724       111  QMPE      H3R            45.8787346089       28.1838379355       17.0787708768  MEMB      111             0.0000000000
     13725       111  QMPE      H3S            45.9095404372       29.6375984966       16.1001267052  MEMB      111             0.0000000000
     13726       111  QMPE      C24            45.6550307278       27.7890751436       15.0302307689  MEMB      111             0.0000000000
     13727       111  QMPE      H4R            45.4316721042       26.7169843074       15.2174557210  MEMB      111             0.0000000000
     13728       111  QMPE      H4S            46.7611026188       27.7873205389       14.9257166115  MEMB      111             0.0000000000
     13729       111  QMPE      C25            45.0586018321       28.2052672399       13.6554100149  MEMB      111             0.0000000000
     13730       111  QMPE      H5R            45.2265302963       29.2990110084       13.5561854266  MEMB      111             0.0000000000
     13731       111  QMPE      H5S            43.9667181506       28.0105853532       13.7202972234  MEMB      111             0.0000000000
     13732       111  QMPE      C26            45.5162534659       27.3508773793       12.4539044046  MEMB      111             0.0000000000
     13733       111  QMPE      H6R            45.2436846860       26.2802745067       12.5715329902  MEMB      111             0.0000000000
     13734       111  QMPE      H6S            46.6189315083       27.3653518463       12.3189512995  MEMB      111             0.0000000000
     13735       111  QMPE      C27            44.9181745300       27.9627370525       11.1574504616  MEMB      111             0.0000000000
     13736       111  QMPE      H7R            45.4641613505       28.9085138142       10.9531818605  MEMB      111             0.0000000000
     13737       111  QMPE      H7S            43.9632897839       28.4595348308       11.4326010085  MEMB      111             0.0000000000
     13738       111  QMPE      C28            44.9300231452       26.9096095985       10.1113229774  MEMB      111             0.0000000000
     13739       111  QMPE      H8R            44.3406044974       26.0687704661       10.5354648721  MEMB      111             0.0000000000
     13740       111  QMPE      H8S            45.9965987430       26.6504732988        9.9393161435  MEMB      111             0.0000000000
     13741       111  QMPE      C29            44.2290159969       27.5054175472        8.8396170571  MEMB      111             0.0000000000
     13742       111  QMPE      H9R            44.5887870191       28.4204188860        8.3222594994  MEMB      111             0.0000000000
     13743       111  QMPE      C217           42.7366024080       27.4759488948        9.1441167492  MEMB      111             0.0000000000
     13744       111  QMPE      H17R           42.4806065483       26.8649263991       10.0008587177  MEMB      111             0.0000000000
     13745       111  QMPE      H17S           42.3325926012       28.4795820479        9.0952742965  MEMB      111             0.0000000000
     13746       111  QMPE      C210           43.2621932932       26.6897274712        7.9395011760  MEMB      111             0.0000000000
     13747       111  QMPE      H10R           42.9972878200       27.2162016605        6.9977099295  MEMB      111             0.0000000000
     13748       111  QMPE      C211           43.5741520923       25.2289771727        7.8745236889  MEMB      111             0.0000000000
     13749       111  QMPE      H11R           43.7227154866       24.8273936521        8.8996973883  MEMB      111             0.0000000000
     13750       111  QMPE      H11S           42.7401722994       24.6743316469        7.3937252957  MEMB      111             0.0000000000
     13751       111  QMPE      C212           44.9507256235       24.9832084117        7.1490535085  MEMB      111             0.0000000000
     13752       111  QMPE      H12R           45.5686510508       24.6627351452        8.0149560735  MEMB      111             0.0000000000
     13753       111  QMPE      H12S           45.3309169188       25.9549732825        6.7676773538  MEMB      111             0.0000000000
     13754       111  QMPE      C213           44.8888272085       23.8866204948        6.1456238209  MEMB      111             0.0000000000
     13755       111  QMPE      H13R           44.5345930607       22.9023235235        6.5197872839  MEMB      111             0.0000000000
     13756       111  QMPE      H13S           45.9180028484       23.7576762538        5.7475136552  MEMB      111             0.0000000000
     13757       111  QMPE      C214           44.0400849591       24.3987494160        4.9331130728  MEMB      111             0.0000000000
     13758       111  QMPE      H14R           44.3450370597       25.4430543320        4.7078299854  MEMB      111             0.0000000000
     13759       111  QMPE      H14S           42.9629490146       24.4136863947        5.2049150309  MEMB      111             0.0000000000
     13760       111  QMPE      C215           44.0381999034       23.5961932011        3.6283285702  MEMB      111             0.0000000000
     13761       111  QMPE      H15R           43.4097546735       24.1734831235        2.9169112171  MEMB      111             0.0000000000
     13762       111  QMPE      H15S           43.7748184493       22.5322961206        3.8101912999  MEMB      111             0.0000000000
     13763       111  QMPE      C216           45.3744131430       23.4266897536        2.9481845799  MEMB      111             0.0000000000
     13764       111  QMPE      H16R           46.0852174523       24.2480594157        2.7148813357  MEMB      111             0.0000000000
     13765       111  QMPE      H16S           45.4007028323       22.8241280235        2.0151527660  MEMB      111             0.0000000000
     13766       111  QMPE      H16T           46.0065893927       22.8810722676        3.6809703775  MEMB      111             0.0000000000
     13767       111  QMPE      C33            39.9901744414       30.6982759792       13.3133920146  MEMB      111             0.0000000000
     13768       111  QMPE      H3X            40.4948605751       30.7614760859       14.3011258578  MEMB      111             0.0000000000
     13769       111  QMPE      H3Y            39.1566710482       31.4006594420       13.5284513018  MEMB      111             0.0000000000
     13770       111  QMPE      C34            40.8121224226       31.2624350298       12.1207336634  MEMB      111             0.0000000000
     13771       111  QMPE      H4X            41.8538894012       30.8774439809       12.0920249252  MEMB      111             0.0000000000
     13772       111  QMPE      H4Y            40.9524423543       32.3607427642       12.2121195492  MEMB      111             0.0000000000
     13773       111  QMPE      C35            40.1628040951       30.9872005352       10.7608868841  MEMB      111             0.0000000000
     13774       111  QMPE      H5X            39.1010438149       31.3118746323       10.7212307138  MEMB      111             0.0000000000
     13775       111  QMPE      H5Y            40.3655379328       29.9265916900       10.4994887332  MEMB      111             0.0000000000
     13776       111  QMPE      C36            40.8713670402       31.9046124967        9.7166789768  MEMB      111             0.0000000000
     13777       111  QMPE      H6X            41.9630988911       31.8973950197        9.9225692371  MEMB      111             0.0000000000
     13778       111  QMPE      H6Y            40.5249461644       32.9225737520        9.9960848778  MEMB      111             0.0000000000
     13779       111  QMPE      C37            40.5237037093       31.5509477661        8.2687117514  MEMB      111             0.0000000000
     13780       111  QMPE      H7X            41.0926849153       32.1945808670        7.5642138770  MEMB      111             0.0000000000
     13781       111  QMPE      H7Y            40.8822399660       30.5119273623        8.1068192768  MEMB      111             0.0000000000
     13782       111  QMPE      C38            39.0923597568       31.6262922209        7.8957307801  MEMB      111             0.0000000000
     13783       111  QMPE      H8X            38.4168855157       31.2337045410        8.6856229272  MEMB      111             0.0000000000
     13784       111  QMPE      H8Y            38.8037688210       32.6972274285        7.8314346644  MEMB      111             0.0000000000
     13785       111  QMPE      C39            38.7752328720       30.9208488665        6.5691262593  MEMB      111             0.0000000000
     13786       111  QMPE      H9X            39.5690555780       31.1172778650        5.8170742829  MEMB      111             0.0000000000
     13787       111  QMPE      H9Y            37.8437680619       31.3307203851        6.1233691112  MEMB      111             0.0000000000
     13788       111  QMPE      C310           38.5729588213       29.4560244368        6.7388880319  MEMB      111             0.0000000000
     13789       111  QMPE      H10X           37.6616502124       29.2963148001        7.3539726153  MEMB      111             0.0000000000
     13790       111  QMPE      H10Y           39.4899502444       29.0317596119        7.2008914003  MEMB      111             0.0000000000
     13791       111  QMPE      C311           38.3011969092       28.6876999277        5.3911080216  MEMB      111             0.0000000000
     13792       111  QMPE      H11X           37.6366178549       29.3487283847        4.7947053623  MEMB      111             0.0000000000
     13793       111  QMPE      H11Y           37.7890591538       27.7346826970        5.6436835722  MEMB      111             0.0000000000
     13794       111  QMPE      C312           39.4114857098       28.4017788553        4.4713036299  MEMB      111             0.0000000000
     13795       111  QMPE      H12X           39.8411196273       29.3582711847        4.1040734374  MEMB      111             0.0000000000
     13796       111  QMPE      H12Y           39.0755532937       27.9198065952        3.5283441053  MEMB      111             0.0000000000
     13797       111  QMPE      C313           40.6521791788       27.6265586325        5.0673796631  MEMB      111             0.0000000000
     13798       111  QMPE      H13X           40.7717789261       28.2129875182        6.0033914410  MEMB      111             0.0000000000
     13799       111  QMPE      H13Y           40.3316826383       26.6114638353        5.3854761311  MEMB      111             0.0000000000
     13800       111  QMPE      C314           41.8721093921       27.4651998760        4.2254336361  MEMB      111             0.0000000000
     13801       111  QMPE      H14X           42.5918085376       26.9277479450        4.8792683677  MEMB      111             0.0000000000
     13802       111  QMPE      H14Y           42.3128790659       28.4626937661        4.0131868238  MEMB      111             0.0000000000
     13803       111  QMPE      C315           41.5963481201       26.7533932893        2.8972499210  MEMB      111             0.0000000000
     13804       111  QMPE      H15X           41.1401412360       25.7553650431        3.0708473552  MEMB      111             0.0000000000
     13805       111  QMPE      H15Y           40.8042760023       27.3529348391        2.3997640988  MEMB      111             0.0000000000
     13806       111  QMPE      H15Z           42.4677907620       26.7594865339        2.2081416974  MEMB      111             0.0000000000
     13807       112  PMPE      N              25.3409630693      -38.0074044917       16.9412826077  MEMB      112             0.0000000000
     13808       112  PMPE      HN1            24.5317795272      -38.5250154336       16.5426588416  MEMB      112             0.0000000000
     13809       112  PMPE      HN2            25.1623684087      -37.9542050579       17.9644511033  MEMB      112             0.0000000000
     13810       112  PMPE      HN3            25.4144028130      -37.0048871161       16.6745134875  MEMB      112             0.0000000000
     13811       112  PMPE      C12            26.7353608600      -38.6165942744       16.8211703722  MEMB      112             0.0000000000
     13812       112  PMPE      H12A           27.5352554945      -37.8924983448       17.0860750959  MEMB      112             0.0000000000
     13813       112  PMPE      H12B           26.9171854517      -38.8721730118       15.7553652746  MEMB      112             0.0000000000
     13814       112  PMPE      C11            26.8318149936      -39.8844355167       17.7013071696  MEMB      112             0.0000000000
     13815       112  PMPE      H11A           27.8488568173      -40.2846333018       17.5018362763  MEMB      112             0.0000000000
     13816       112  PMPE      H11B           26.0847294789      -40.5750739460       17.2549858216  MEMB      112             0.0000000000
     13817       112  PMPE      P              26.5264806237      -40.7213357464       20.1822675140  MEMB      112             0.0000000000
     13818       112  PMPE      O13            25.5214995422      -40.4051956036       21.2365593919  MEMB      112             0.0000000000
     13819       112  PMPE      O14            27.9228236640      -40.9288433537       20.6548549497  MEMB      112             0.0000000000
     13820       112  PMPE      O11            26.0575216154      -42.0042186706       19.3141944404  MEMB      112             0.0000000000
     13821       112  PMPE      O12            26.6299252329      -39.4960011585       19.1483635660  MEMB      112             0.0000000000
     13822       112  PMPE      C1             24.6787187398      -42.3240964322       19.2260092936  MEMB      112             0.0000000000
     13823       112  PMPE      HA             24.0459561703      -41.4541696561       18.9482327285  MEMB      112             0.0000000000
     13824       112  PMPE      HB             24.2886136494      -42.7655907681       20.1679337703  MEMB      112             0.0000000000
     13825       112  PMPE      C2             24.4510645199      -43.4969709290       18.2277429053  MEMB      112             0.0000000000
     13826       112  PMPE      HS             24.8381553328      -44.4220444241       18.7059901652  MEMB      112             0.0000000000
     13827       112  PMPE      O21            25.1445029397      -43.2995543617       16.9800734200  MEMB      112             0.0000000000
     13828       112  PMPE      C21            26.2725148881      -43.9008717957       16.7263464152  MEMB      112             0.0000000000
     13829       112  PMPE      O22            26.8527377170      -44.6766602957       17.4700138176  MEMB      112             0.0000000000
     13830       112  PMPE      C22            26.7839394848      -43.4260226463       15.3798164254  MEMB      112             0.0000000000
     13831       112  PMPE      H2R            27.0041193796      -42.3373305955       15.3554949290  MEMB      112             0.0000000000
     13832       112  PMPE      H2S            25.9014169394      -43.4112456141       14.7050893718  MEMB      112             0.0000000000
     13833       112  PMPE      C3             22.9413900836      -43.6832395447       17.9686691633  MEMB      112             0.0000000000
     13834       112  PMPE      HX             22.4212067861      -43.8522879500       18.9357022697  MEMB      112             0.0000000000
     13835       112  PMPE      HY             22.9434458693      -44.5560859222       17.2813145388  MEMB      112             0.0000000000
     13836       112  PMPE      O31            22.3251493337      -42.5553912796       17.4052511572  MEMB      112             0.0000000000
     13837       112  PMPE      C31            22.1706920931      -42.5171731033       16.0397881082  MEMB      112             0.0000000000
     13838       112  PMPE      O32            22.4197943116      -43.3799173417       15.1867353611  MEMB      112             0.0000000000
     13839       112  PMPE      C32            21.7655408446      -41.0310586259       15.7556917103  MEMB      112             0.0000000000
     13840       112  PMPE      H2X            22.5214118368      -40.3285552310       16.1673575695  MEMB      112             0.0000000000
     13841       112  PMPE      H2Y            20.7303138467      -40.8772371993       16.1284716233  MEMB      112             0.0000000000
     13842       112  PMPE      C23            27.8025329023      -44.4761580796       14.9039082503  MEMB      112             0.0000000000
     13843       112  PMPE      H3R            27.5096924564      -45.5054365269       15.2024910523  MEMB      112             0.0000000000
     13844       112  PMPE      H3S            28.7995899078      -44.2032353490       15.3109845064  MEMB      112             0.0000000000
     13845       112  PMPE      C24            28.0852561505      -44.5511105268       13.3994667025  MEMB      112             0.0000000000
     13846       112  PMPE      H4R            27.1331823500      -44.4659704975       12.8332264770  MEMB      112             0.0000000000
     13847       112  PMPE      H4S            28.6284028635      -45.5110272355       13.2657788347  MEMB      112             0.0000000000
     13848       112  PMPE      C25            28.9377888608      -43.3963228117       12.7874932586  MEMB      112             0.0000000000
     13849       112  PMPE      H5R            29.8766151713      -43.1225956282       13.3147498116  MEMB      112             0.0000000000
     13850       112  PMPE      H5S            28.3539165101      -42.4511441942       12.7946714115  MEMB      112             0.0000000000
     13851       112  PMPE      C26            29.2447960588      -43.6377036983       11.2964146323  MEMB      112             0.0000000000
     13852       112  PMPE      H6R            29.9830033946      -44.4364975773       11.0699204762  MEMB      112             0.0000000000
     13853       112  PMPE      H6S            29.6570286310      -42.6766866995       10.9211389763  MEMB      112             0.0000000000
     13854       112  PMPE      C27            27.9654388384      -43.8455696145       10.4664236278  MEMB      112             0.0000000000
     13855       112  PMPE      H7R            27.0348346965      -43.3972212036       10.8754236504  MEMB      112             0.0000000000
     13856       112  PMPE      H7S            27.8402528038      -44.9459156767       10.5552379246  MEMB      112             0.0000000000
     13857       112  PMPE      C28            28.1283986123      -43.3797265290        9.0554342012  MEMB      112             0.0000000000
     13858       112  PMPE      H8R            28.9524404427      -43.9614497623        8.5897366698  MEMB      112             0.0000000000
     13859       112  PMPE      H8S            28.4784047436      -42.3255454723        9.0782225334  MEMB      112             0.0000000000
     13860       112  PMPE      C29            26.8305956688      -43.3953265467        8.2143654402  MEMB      112             0.0000000000
     13861       112  PMPE      H9R            25.9680285033      -42.8781617722        8.6864237085  MEMB      112             0.0000000000
     13862       112  PMPE      C217           26.4904534835      -44.7178117144        7.3713096333  MEMB      112             0.0000000000
     13863       112  PMPE      H17R           25.4278882564      -44.9221197979        7.4171615625  MEMB      112             0.0000000000
     13864       112  PMPE      H17S           27.2608270338      -45.4689685593        7.4945066062  MEMB      112             0.0000000000
     13865       112  PMPE      C210           26.8416972171      -43.3902325524        6.7331576793  MEMB      112             0.0000000000
     13866       112  PMPE      H10R           25.9980252221      -42.7370202481        6.4235573470  MEMB      112             0.0000000000
     13867       112  PMPE      C211           28.1810583507      -43.3298833749        6.0041557128  MEMB      112             0.0000000000
     13868       112  PMPE      H11R           27.9873460789      -43.5672943967        4.9362451262  MEMB      112             0.0000000000
     13869       112  PMPE      H11S           28.8493435748      -44.1408425346        6.3647954883  MEMB      112             0.0000000000
     13870       112  PMPE      C212           28.9820655577      -42.1172182002        6.4129406976  MEMB      112             0.0000000000
     13871       112  PMPE      H12R           29.6416288704      -42.3108109695        7.2857635949  MEMB      112             0.0000000000
     13872       112  PMPE      H12S           28.3343946080      -41.2828156306        6.7573478045  MEMB      112             0.0000000000
     13873       112  PMPE      C213           29.8701829684      -41.5957697790        5.2233991938  MEMB      112             0.0000000000
     13874       112  PMPE      H13R           30.5471424909      -40.8231858964        5.6466731076  MEMB      112             0.0000000000
     13875       112  PMPE      H13S           29.1727961463      -41.0975584230        4.5164640161  MEMB      112             0.0000000000
     13876       112  PMPE      C214           30.8266218943      -42.6444399955        4.4878712278  MEMB      112             0.0000000000
     13877       112  PMPE      H14R           30.1983994442      -43.5135041670        4.1973796319  MEMB      112             0.0000000000
     13878       112  PMPE      H14S           31.5718180610      -43.0098571283        5.2264334524  MEMB      112             0.0000000000
     13879       112  PMPE      C215           31.6333911478      -42.2102423251        3.2504434086  MEMB      112             0.0000000000
     13880       112  PMPE      H15R           32.4721604112      -42.9160395714        3.0697830880  MEMB      112             0.0000000000
     13881       112  PMPE      H15S           31.8974453918      -41.1402421776        3.3907852295  MEMB      112             0.0000000000
     13882       112  PMPE      C216           30.8435309007      -42.1656649021        1.9645195309  MEMB      112             0.0000000000
     13883       112  PMPE      H16R           31.6045675033      -42.3488451003        1.1761092307  MEMB      112             0.0000000000
     13884       112  PMPE      H16S           30.0939445580      -42.9854530727        1.9448046169  MEMB      112             0.0000000000
     13885       112  PMPE      H16T           30.4614636634      -41.1518563869        1.7184743381  MEMB      112             0.0000000000
     13886       112  PMPE      C33            21.8134302419      -40.7216974712       14.2770945965  MEMB      112             0.0000000000
     13887       112  PMPE      H3X            21.4809612731      -39.6624052897       14.2360411592  MEMB      112             0.0000000000
     13888       112  PMPE      H3Y            21.2062835835      -41.3009518857       13.5489745446  MEMB      112             0.0000000000
     13889       112  PMPE      C34            23.3021866441      -40.8295557499       13.6009086829  MEMB      112             0.0000000000
     13890       112  PMPE      H4X            23.8317609343      -41.6825166250       14.0766503556  MEMB      112             0.0000000000
     13891       112  PMPE      H4Y            23.9435223046      -39.9595298682       13.8579392058  MEMB      112             0.0000000000
     13892       112  PMPE      C35            23.4381277136      -40.9505679015       12.0972851585  MEMB      112             0.0000000000
     13893       112  PMPE      H5X            23.1921304290      -40.0249810563       11.5341727916  MEMB      112             0.0000000000
     13894       112  PMPE      H5Y            22.7293164908      -41.6819192624       11.6534015134  MEMB      112             0.0000000000
     13895       112  PMPE      C36            24.8648028915      -41.3151864492       11.6702235128  MEMB      112             0.0000000000
     13896       112  PMPE      H6X            24.6623303863      -41.5359858874       10.6003755441  MEMB      112             0.0000000000
     13897       112  PMPE      H6Y            25.1735828312      -42.2332648622       12.2143815595  MEMB      112             0.0000000000
     13898       112  PMPE      C37            25.9999557413      -40.2708591836       11.7011003398  MEMB      112             0.0000000000
     13899       112  PMPE      H7X            26.9920106643      -40.6429156356       11.3668521648  MEMB      112             0.0000000000
     13900       112  PMPE      H7Y            26.0931263595      -39.9731437882       12.7674053218  MEMB      112             0.0000000000
     13901       112  PMPE      C38            25.7528299538      -38.8849912184       11.0621479610  MEMB      112             0.0000000000
     13902       112  PMPE      H8X            26.5889091212      -38.1862068889       11.2789266594  MEMB      112             0.0000000000
     13903       112  PMPE      H8Y            24.9002312792      -38.4663476906       11.6384585429  MEMB      112             0.0000000000
     13904       112  PMPE      C39            25.3046620279      -39.0455390532        9.5784266506  MEMB      112             0.0000000000
     13905       112  PMPE      H9X            24.9869413329      -38.0316488788        9.2537716802  MEMB      112             0.0000000000
     13906       112  PMPE      H9Y            24.4859910861      -39.7951280980        9.5313631398  MEMB      112             0.0000000000
     13907       112  PMPE      C310           26.3277412283      -39.5808164749        8.5363657751  MEMB      112             0.0000000000
     13908       112  PMPE      H10X           26.3524167064      -40.6671981464        8.7676385348  MEMB      112             0.0000000000
     13909       112  PMPE      H10Y           27.3681872756      -39.2218300768        8.6877651970  MEMB      112             0.0000000000
     13910       112  PMPE      C311           25.7963605323      -39.2956137839        7.1189552001  MEMB      112             0.0000000000
     13911       112  PMPE      H11X           24.7063584706      -39.5058440585        7.0740124742  MEMB      112             0.0000000000
     13912       112  PMPE      H11Y           26.1989832882      -40.2046306284        6.6230684211  MEMB      112             0.0000000000
     13913       112  PMPE      C312           26.2671152105      -38.0323237225        6.4246279570  MEMB      112             0.0000000000
     13914       112  PMPE      H12X           27.3659893978      -37.9219790164        6.5455434401  MEMB      112             0.0000000000
     13915       112  PMPE      H12Y           25.8235135209      -37.0770211198        6.7780897025  MEMB      112             0.0000000000
     13916       112  PMPE      C313           25.9690446464      -37.8860618080        4.9176306248  MEMB      112             0.0000000000
     13917       112  PMPE      H13X           26.4651406640      -37.0081760078        4.4512337361  MEMB      112             0.0000000000
     13918       112  PMPE      H13Y           24.8918216929      -37.6937588889        4.7254556600  MEMB      112             0.0000000000
     13919       112  PMPE      C314           26.5369075070      -38.9704570801        4.0317087713  MEMB      112             0.0000000000
     13920       112  PMPE      H14X           25.9337279269      -39.8734344529        4.2665003975  MEMB      112             0.0000000000
     13921       112  PMPE      H14Y           27.6038640455      -39.1977097242        4.2421390369  MEMB      112             0.0000000000
     13922       112  PMPE      C315           26.3536568291      -38.7708386706        2.5310915884  MEMB      112             0.0000000000
     13923       112  PMPE      H15X           26.6933314750      -37.7396802321        2.2951787695  MEMB      112             0.0000000000
     13924       112  PMPE      H15Y           25.2711513092      -38.9132372678        2.3256028701  MEMB      112             0.0000000000
     13925       112  PMPE      C316           27.0853678723      -39.9004354878        1.7514114889  MEMB      112             0.0000000000
     13926       112  PMPE      H16X           26.7288060702      -39.8504019098        0.7003726673  MEMB      112             0.0000000000
     13927       112  PMPE      H16Y           26.6584625715      -40.8726141904        2.0784296652  MEMB      112             0.0000000000
     13928       112  PMPE      H16Z           28.1841097135      -39.8184190390        1.8941023855  MEMB      112             0.0000000000
     13929       113  PMPE      N             -17.5388187822       47.8544759591       19.6270972980  MEMB      113             0.0000000000
     13930       113  PMPE      HN1           -17.1864095800       48.7440053594       19.2194885228  MEMB      113             0.0000000000
     13931       113  PMPE      HN2           -17.9581741631       47.2820639611       18.8667778527  MEMB      113             0.0000000000
     13932       113  PMPE      HN3           -18.2070432496       48.0646865916       20.3957892933  MEMB      113             0.0000000000
     13933       113  PMPE      C12           -16.3096831204       47.2209969702       20.1631522218  MEMB      113             0.0000000000
     13934       113  PMPE      H12A          -16.0347757028       47.7971386570       21.0724419643  MEMB      113             0.0000000000
     13935       113  PMPE      H12B          -15.5576514867       47.2565510183       19.3461421436  MEMB      113             0.0000000000
     13936       113  PMPE      C11           -16.4112593147       45.6943546329       20.4631532026  MEMB      113             0.0000000000
     13937       113  PMPE      H11A          -17.0728581337       45.4355286163       21.3173294879  MEMB      113             0.0000000000
     13938       113  PMPE      H11B          -15.4643681287       45.2783735588       20.8689582292  MEMB      113             0.0000000000
     13939       113  PMPE      P             -15.8981641437       44.1855422465       18.3202679269  MEMB      113             0.0000000000
     13940       113  PMPE      O13           -16.5612032617       43.4806266599       17.1927097508  MEMB      113             0.0000000000
     13941       113  PMPE      O14           -15.0915252021       43.2717932871       19.1694369073  MEMB      113             0.0000000000
     13942       113  PMPE      O11           -14.9585926412       45.3091648829       17.7443944701  MEMB      113             0.0000000000
     13943       113  PMPE      O12           -16.9232607765       44.9288581513       19.3197882191  MEMB      113             0.0000000000
     13944       113  PMPE      C1            -13.7254741485       45.6631425600       18.3214363968  MEMB      113             0.0000000000
     13945       113  PMPE      HA            -13.2629330161       44.8717698019       18.9492148390  MEMB      113             0.0000000000
     13946       113  PMPE      HB            -13.8439746008       46.5682602309       18.9547140118  MEMB      113             0.0000000000
     13947       113  PMPE      C2            -12.6272002655       46.0810373012       17.2808692354  MEMB      113             0.0000000000
     13948       113  PMPE      HS            -11.9905793513       46.7345676384       17.9148509491  MEMB      113             0.0000000000
     13949       113  PMPE      O21           -13.1366287173       46.7939342401       16.1744423880  MEMB      113             0.0000000000
     13950       113  PMPE      C21           -13.7730361011       47.9649927455       16.3668915539  MEMB      113             0.0000000000
     13951       113  PMPE      O22           -13.7475024588       48.5877617329       17.4188366533  MEMB      113             0.0000000000
     13952       113  PMPE      C22           -14.4442158025       48.3788981012       15.0022295783  MEMB      113             0.0000000000
     13953       113  PMPE      H2R           -15.0985987484       49.2526689598       15.2086958497  MEMB      113             0.0000000000
     13954       113  PMPE      H2S           -15.0477351803       47.5031780467       14.6809820461  MEMB      113             0.0000000000
     13955       113  PMPE      C3            -11.8054751157       44.8693037777       16.7422462546  MEMB      113             0.0000000000
     13956       113  PMPE      HX            -11.3158076332       44.3475079423       17.5921144828  MEMB      113             0.0000000000
     13957       113  PMPE      HY            -11.0201859320       45.2272664114       16.0426003646  MEMB      113             0.0000000000
     13958       113  PMPE      O31           -12.6705938441       43.8290962729       16.2647447928  MEMB      113             0.0000000000
     13959       113  PMPE      C31           -12.8572734738       43.9029084445       14.9492870443  MEMB      113             0.0000000000
     13960       113  PMPE      O32           -12.2638991129       44.6335012093       14.1923194676  MEMB      113             0.0000000000
     13961       113  PMPE      C32           -13.9891755093       42.9256308587       14.5120375210  MEMB      113             0.0000000000
     13962       113  PMPE      H2X           -14.5182891794       42.6771892574       15.4568322055  MEMB      113             0.0000000000
     13963       113  PMPE      H2Y           -13.4686759389       42.0432709440       14.0821056147  MEMB      113             0.0000000000
     13964       113  PMPE      C23           -13.4336556693       48.9069750330       14.0159048129  MEMB      113             0.0000000000
     13965       113  PMPE      H3R           -12.4037174783       48.8473248142       14.4282035030  MEMB      113             0.0000000000
     13966       113  PMPE      H3S           -13.5989475252       49.9874926214       13.8172047117  MEMB      113             0.0000000000
     13967       113  PMPE      C24           -13.4433873937       48.1877363595       12.6993197362  MEMB      113             0.0000000000
     13968       113  PMPE      H4R           -14.4408665644       48.4081789017       12.2625573340  MEMB      113             0.0000000000
     13969       113  PMPE      H4S           -13.3019346209       47.1130636563       12.9430220254  MEMB      113             0.0000000000
     13970       113  PMPE      C25           -12.4778006358       48.7814359476       11.7183908097  MEMB      113             0.0000000000
     13971       113  PMPE      H5R           -11.5311004079       48.6127997899       12.2748452084  MEMB      113             0.0000000000
     13972       113  PMPE      H5S           -12.6279556207       49.8662872129       11.5316482000  MEMB      113             0.0000000000
     13973       113  PMPE      C26           -12.5098796666       48.1060128166       10.3272424071  MEMB      113             0.0000000000
     13974       113  PMPE      H6R           -11.8584550779       48.6997922877        9.6509338662  MEMB      113             0.0000000000
     13975       113  PMPE      H6S           -13.5331510629       48.2876063779        9.9344822521  MEMB      113             0.0000000000
     13976       113  PMPE      C27           -12.2141750736       46.5750664502       10.1867950275  MEMB      113             0.0000000000
     13977       113  PMPE      H7R           -13.0892747379       46.1422960649       10.7171082142  MEMB      113             0.0000000000
     13978       113  PMPE      H7S           -11.2517440486       46.3248556427       10.6822156858  MEMB      113             0.0000000000
     13979       113  PMPE      C28           -12.1335357826       46.1456778007        8.6798073084  MEMB      113             0.0000000000
     13980       113  PMPE      H8R           -11.1423706459       46.4007988583        8.2475739351  MEMB      113             0.0000000000
     13981       113  PMPE      H8S           -12.9741630967       46.6030788787        8.1154930609  MEMB      113             0.0000000000
     13982       113  PMPE      C29           -12.4201143978       44.6184231010        8.6453985836  MEMB      113             0.0000000000
     13983       113  PMPE      H9R           -12.9972904876       44.0888041166        9.4332386538  MEMB      113             0.0000000000
     13984       113  PMPE      C217          -11.0894543291       43.8496464802        8.5550544587  MEMB      113             0.0000000000
     13985       113  PMPE      H17R          -10.9889281879       42.8797755165        9.0263654436  MEMB      113             0.0000000000
     13986       113  PMPE      H17S          -10.2702951360       44.5573504770        8.5870272858  MEMB      113             0.0000000000
     13987       113  PMPE      C210          -12.0887744995       43.9405491986        7.3998763576  MEMB      113             0.0000000000
     13988       113  PMPE      H10R          -12.6404958973       42.9999529870        7.1872655558  MEMB      113             0.0000000000
     13989       113  PMPE      C211          -11.5851049071       44.8062644890        6.2299642752  MEMB      113             0.0000000000
     13990       113  PMPE      H11R          -11.0056968135       44.2487895955        5.4632638957  MEMB      113             0.0000000000
     13991       113  PMPE      H11S          -10.8577120598       45.5849286539        6.5444522703  MEMB      113             0.0000000000
     13992       113  PMPE      C212          -12.7916781971       45.4385734998        5.4522335064  MEMB      113             0.0000000000
     13993       113  PMPE      H12R          -13.2285383707       46.3063437515        5.9911661408  MEMB      113             0.0000000000
     13994       113  PMPE      H12S          -13.5834580591       44.6975225164        5.2108850535  MEMB      113             0.0000000000
     13995       113  PMPE      C213          -12.4505886166       46.0313846739        4.1080985253  MEMB      113             0.0000000000
     13996       113  PMPE      H13R          -13.3736652513       46.5751913492        3.8139475182  MEMB      113             0.0000000000
     13997       113  PMPE      H13S          -12.3372107450       45.2075696291        3.3713524696  MEMB      113             0.0000000000
     13998       113  PMPE      C214          -11.2888573045       47.0036125727        4.0305662630  MEMB      113             0.0000000000
     13999       113  PMPE      H14R          -10.4172088725       46.4572892455        4.4501860553  MEMB      113             0.0000000000
     14000       113  PMPE      H14S          -11.6208966369       47.8405739487        4.6813853355  MEMB      113             0.0000000000
     14001       113  PMPE      C215          -11.1264834770       47.5601019866        2.6055562333  MEMB      113             0.0000000000
     14002       113  PMPE      H15R          -11.9946192730       48.2004198475        2.3397471903  MEMB      113             0.0000000000
     14003       113  PMPE      H15S          -11.0275073425       46.7830334828        1.8177179866  MEMB      113             0.0000000000
     14004       113  PMPE      C216          -10.0775385514       48.6520133928        2.3910096830  MEMB      113             0.0000000000
     14005       113  PMPE      H16R          -10.4685382343       49.5464821138        2.9214494014  MEMB      113             0.0000000000
     14006       113  PMPE      H16S           -9.1369563755       48.4408437975        2.9433081297  MEMB      113             0.0000000000
     14007       113  PMPE      H16T           -9.9579960550       49.0555394446        1.3628085832  MEMB      113             0.0000000000
     14008       113  PMPE      C33           -14.8852107979       43.5778036929       13.5081443909  MEMB      113             0.0000000000
     14009       113  PMPE      H3X           -14.3506987557       43.7756201809       12.5544744868  MEMB      113             0.0000000000
     14010       113  PMPE      H3Y           -15.1981951602       44.5830921372       13.8627664394  MEMB      113             0.0000000000
     14011       113  PMPE      C34           -16.1990884187       42.8423795710       13.3178365047  MEMB      113             0.0000000000
     14012       113  PMPE      H4X           -16.7882167676       42.7442562899       14.2546503253  MEMB      113             0.0000000000
     14013       113  PMPE      H4Y           -16.0242723052       41.7860490517       13.0213134534  MEMB      113             0.0000000000
     14014       113  PMPE      C35           -17.1461106546       43.4491592915       12.2262365491  MEMB      113             0.0000000000
     14015       113  PMPE      H5X           -18.1891202574       43.0693414362       12.2730408820  MEMB      113             0.0000000000
     14016       113  PMPE      H5Y           -16.6133619389       43.2863907024       11.2649842397  MEMB      113             0.0000000000
     14017       113  PMPE      C36           -17.4231159624       44.9473518560       12.3461275462  MEMB      113             0.0000000000
     14018       113  PMPE      H6X           -16.4921850968       45.5342312532       12.1936109533  MEMB      113             0.0000000000
     14019       113  PMPE      H6Y           -17.7705169004       45.2823390888       13.3468361867  MEMB      113             0.0000000000
     14020       113  PMPE      C37           -18.4262947036       45.3938349249       11.2630752277  MEMB      113             0.0000000000
     14021       113  PMPE      H7X           -19.2906116593       44.7077799525       11.3919394875  MEMB      113             0.0000000000
     14022       113  PMPE      H7Y           -18.0891205312       45.0968851439       10.2469774490  MEMB      113             0.0000000000
     14023       113  PMPE      C38           -18.8320005994       46.9158667682       11.2723561342  MEMB      113             0.0000000000
     14024       113  PMPE      H8X           -19.1870511721       47.1809456782       12.2911757572  MEMB      113             0.0000000000
     14025       113  PMPE      H8Y           -19.6691980236       47.1471363073       10.5795817876  MEMB      113             0.0000000000
     14026       113  PMPE      C39           -17.6673022757       47.8493194479       10.9772386937  MEMB      113             0.0000000000
     14027       113  PMPE      H9X           -16.8872417180       47.7028904147       11.7546606876  MEMB      113             0.0000000000
     14028       113  PMPE      H9Y           -18.0840051548       48.8789639645       10.9998654500  MEMB      113             0.0000000000
     14029       113  PMPE      C310          -16.7542930266       47.7479775375        9.6636949943  MEMB      113             0.0000000000
     14030       113  PMPE      H10X          -16.4067944792       46.6927289597        9.6596901773  MEMB      113             0.0000000000
     14031       113  PMPE      H10Y          -15.9607244830       48.5108580571        9.8139721112  MEMB      113             0.0000000000
     14032       113  PMPE      C311          -17.4664463101       47.8688553294        8.2960405762  MEMB      113             0.0000000000
     14033       113  PMPE      H11X          -18.1530737739       48.7394446615        8.2257743868  MEMB      113             0.0000000000
     14034       113  PMPE      H11Y          -18.0310940971       46.9143275002        8.3621487105  MEMB      113             0.0000000000
     14035       113  PMPE      C312          -16.6065398302       47.8264354073        7.0549050769  MEMB      113             0.0000000000
     14036       113  PMPE      H12X          -15.9749669329       46.9126209810        7.0354160900  MEMB      113             0.0000000000
     14037       113  PMPE      H12Y          -15.9385184898       48.7108785598        6.9785581626  MEMB      113             0.0000000000
     14038       113  PMPE      C313          -17.3444424657       47.8117297480        5.7484336684  MEMB      113             0.0000000000
     14039       113  PMPE      H13X          -18.0566166139       48.6637523403        5.7139913034  MEMB      113             0.0000000000
     14040       113  PMPE      H13Y          -18.0787077946       46.9867026537        5.6279941620  MEMB      113             0.0000000000
     14041       113  PMPE      C314          -16.4715708800       47.9707844923        4.4428131839  MEMB      113             0.0000000000
     14042       113  PMPE      H14X          -17.1875874611       47.6390857907        3.6607534717  MEMB      113             0.0000000000
     14043       113  PMPE      H14Y          -15.5163255808       47.4042468558        4.4721746531  MEMB      113             0.0000000000
     14044       113  PMPE      C315          -16.0580007135       49.4328976217        4.0890392926  MEMB      113             0.0000000000
     14045       113  PMPE      H15X          -15.5359111884       49.9076097941        4.9471719042  MEMB      113             0.0000000000
     14046       113  PMPE      H15Y          -16.9280000269       50.0856388032        3.8624329211  MEMB      113             0.0000000000
     14047       113  PMPE      C316          -15.0704176469       49.7292870802        2.8815841840  MEMB      113             0.0000000000
     14048       113  PMPE      H16X          -14.8608361963       50.8194043937        2.9267563328  MEMB      113             0.0000000000
     14049       113  PMPE      H16Y          -15.4145513445       49.4620143086        1.8595975241  MEMB      113             0.0000000000
     14050       113  PMPE      H16Z          -14.0861598308       49.2310699144        3.0132556810  MEMB      113             0.0000000000
     14051       114  PVCL2     C3            -36.8456016945      -31.0128216273       19.1535508135  MEMB      114             0.0000000000
     14052       114  PVCL2     HG31          -35.8244879346      -31.4145842662       19.3274324284  MEMB      114             0.0000000000
     14053       114  PVCL2     HG32          -36.8089664865      -31.2394829931       18.0665350025  MEMB      114             0.0000000000
     14054       114  PVCL2     P3            -36.4023473848      -28.5386455531       18.5662938359  MEMB      114             0.0000000000
     14055       114  PVCL2     OP33          -36.2418337290      -27.3287349931       19.3195344142  MEMB      114             0.0000000000
     14056       114  PVCL2     OP34          -37.2790325712      -28.4840164542       17.4000255130  MEMB      114             0.0000000000
     14057       114  PVCL2     OP31          -36.9724480990      -29.6562625754       19.5561671830  MEMB      114             0.0000000000
     14058       114  PVCL2     OP32          -35.0330936217      -29.0571825108       18.0202957042  MEMB      114             0.0000000000
     14059       114  PVCL2     C31           -33.9759793692      -29.2126405273       19.0153022815  MEMB      114             0.0000000000
     14060       114  PVCL2     H31J          -33.8723814016      -28.2023731223       19.4658001912  MEMB      114             0.0000000000
     14061       114  PVCL2     H31K          -34.0514824528      -30.0467924060       19.7452413138  MEMB      114             0.0000000000
     14062       114  PVCL2     C2            -37.9100876531      -31.8810091597       19.8086124963  MEMB      114             0.0000000000
     14063       114  PVCL2     HG22          -37.8683469663      -32.8798198464       19.3238900104  MEMB      114             0.0000000000
     14064       114  PVCL2     OG12          -37.5269126115      -32.0437605449       21.1774336187  MEMB      114             0.0000000000
     14065       114  PVCL2     HO12          -37.4551077365      -31.1138444416       21.4048101383  MEMB      114             0.0000000000
     14066       114  PVCL2     C1            -39.3709020704      -31.3281178876       19.7331962935  MEMB      114             0.0000000000
     14067       114  PVCL2     HG11          -40.0739313068      -32.0469143027       20.2058509792  MEMB      114             0.0000000000
     14068       114  PVCL2     HG12          -39.6468974864      -31.2285159557       18.6616427769  MEMB      114             0.0000000000
     14069       114  PVCL2     P1            -41.0859580371      -29.5430713862       20.7545892681  MEMB      114             0.0000000000
     14070       114  PVCL2     OP13          -41.8555775918      -30.6159993344       21.4666200410  MEMB      114             0.0000000000
     14071       114  PVCL2     OP14          -40.9068411987      -28.2702506747       21.4909867669  MEMB      114             0.0000000000
     14072       114  PVCL2     OP11          -39.5796124011      -30.0707410187       20.2869813056  MEMB      114             0.0000000000
     14073       114  PVCL2     OP12          -41.8510026960      -29.2220949827       19.4254393405  MEMB      114             0.0000000000
     14074       114  PVCL2     C11           -41.5252550349      -28.1639966439       18.5555354882  MEMB      114             0.0000000000
     14075       114  PVCL2     H11J          -40.5172200978      -27.7188464933       18.6970558534  MEMB      114             0.0000000000
     14076       114  PVCL2     H11K          -42.1848694499      -27.3424797698       18.9081539058  MEMB      114             0.0000000000
     14077       114  PVCL2     C12           -41.8344769798      -28.7476320909       17.1017454495  MEMB      114             0.0000000000
     14078       114  PVCL2     H12J          -42.9124466176      -29.0032922674       17.0184364530  MEMB      114             0.0000000000
     14079       114  PVCL2     O12           -40.8714323876      -29.7444334998       16.7622860430  MEMB      114             0.0000000000
     14080       114  PVCL2     CA1           -41.3634157456      -30.7971883698       16.1511879017  MEMB      114             0.0000000000
     14081       114  PVCL2     OA1           -42.5504812684      -31.1275263254       15.9612138158  MEMB      114             0.0000000000
     14082       114  PVCL2     CA2           -40.1761767404      -31.7121487332       15.6182679134  MEMB      114             0.0000000000
     14083       114  PVCL2     H2A           -39.3607599803      -31.4676948670       16.3321718744  MEMB      114             0.0000000000
     14084       114  PVCL2     H2B           -39.9683578537      -31.3960918420       14.5736434683  MEMB      114             0.0000000000
     14085       114  PVCL2     C13           -41.5920332398      -27.5754953369       16.0652205801  MEMB      114             0.0000000000
     14086       114  PVCL2     H13J          -42.4816377000      -26.9160051935       15.9757908026  MEMB      114             0.0000000000
     14087       114  PVCL2     H13K          -41.5155739635      -28.0490329339       15.0631043177  MEMB      114             0.0000000000
     14088       114  PVCL2     O13           -40.4435016439      -26.7471317206       16.3687763768  MEMB      114             0.0000000000
     14089       114  PVCL2     CB1           -39.2966855172      -27.1460810061       15.8375538732  MEMB      114             0.0000000000
     14090       114  PVCL2     OB1           -39.1355748618      -28.1223005210       15.0921324015  MEMB      114             0.0000000000
     14091       114  PVCL2     CB2           -38.2329389360      -26.0666287218       16.1201795193  MEMB      114             0.0000000000
     14092       114  PVCL2     H2D           -37.2390110618      -26.3585886148       15.7186978287  MEMB      114             0.0000000000
     14093       114  PVCL2     H2E           -38.2037738650      -25.9160672507       17.2205439463  MEMB      114             0.0000000000
     14094       114  PVCL2     C32           -32.6465503561      -29.4369011511       18.3157362126  MEMB      114             0.0000000000
     14095       114  PVCL2     H32J          -31.6992598360      -29.2976929208       18.8792808443  MEMB      114             0.0000000000
     14096       114  PVCL2     O32           -32.5421469421      -28.6616986843       17.1129996530  MEMB      114             0.0000000000
     14097       114  PVCL2     CC1           -32.1360490402      -27.4440772968       17.1968131049  MEMB      114             0.0000000000
     14098       114  PVCL2     OC1           -31.7439654330      -26.8404193899       18.1637816215  MEMB      114             0.0000000000
     14099       114  PVCL2     CC2           -32.4041981962      -26.7995145426       15.7429215708  MEMB      114             0.0000000000
     14100       114  PVCL2     H2R           -32.0411653354      -25.7586748230       15.8814146899  MEMB      114             0.0000000000
     14101       114  PVCL2     H2S           -33.5090911485      -26.7831917965       15.6277440522  MEMB      114             0.0000000000
     14102       114  PVCL2     C33           -32.5603236613      -30.9747655668       17.8509140491  MEMB      114             0.0000000000
     14103       114  PVCL2     H33J          -31.6588915216      -30.9801610467       17.2015206116  MEMB      114             0.0000000000
     14104       114  PVCL2     H33K          -32.3931351199      -31.5923237915       18.7592041507  MEMB      114             0.0000000000
     14105       114  PVCL2     O33           -33.7786772015      -31.4349596878       17.1896627018  MEMB      114             0.0000000000
     14106       114  PVCL2     CD1           -33.8200370940      -31.2134340198       15.8371708938  MEMB      114             0.0000000000
     14107       114  PVCL2     OD1           -32.8732901139      -31.0695181208       15.0849519934  MEMB      114             0.0000000000
     14108       114  PVCL2     CD2           -35.2853452682      -31.1476512148       15.3160498440  MEMB      114             0.0000000000
     14109       114  PVCL2     H2X           -35.9433334769      -30.5753605386       16.0044216883  MEMB      114             0.0000000000
     14110       114  PVCL2     H2Y           -35.6486723152      -32.1975623974       15.3150718485  MEMB      114             0.0000000000
     14111       114  PVCL2     CA3           -40.7410092450      -33.1783667270       15.6335659244  MEMB      114             0.0000000000
     14112       114  PVCL2     H3A           -41.5364337554      -33.2298575726       14.8596346275  MEMB      114             0.0000000000
     14113       114  PVCL2     H3B           -41.1056878853      -33.5145497507       16.6277044180  MEMB      114             0.0000000000
     14114       114  PVCL2     CA4           -39.6336394930      -34.2015164213       15.1834092605  MEMB      114             0.0000000000
     14115       114  PVCL2     H4A           -40.0978863881      -35.1889584021       15.3925842254  MEMB      114             0.0000000000
     14116       114  PVCL2     H4B           -38.8333515162      -34.0796264402       15.9443315270  MEMB      114             0.0000000000
     14117       114  PVCL2     CA5           -39.0664758033      -33.9880514198       13.7972416273  MEMB      114             0.0000000000
     14118       114  PVCL2     H5A           -38.0668147601      -34.4652291307       13.7117991472  MEMB      114             0.0000000000
     14119       114  PVCL2     H5B           -38.8970694905      -32.8990995945       13.6565062314  MEMB      114             0.0000000000
     14120       114  PVCL2     CA6           -40.0503671590      -34.5180311125       12.6844216242  MEMB      114             0.0000000000
     14121       114  PVCL2     H6A           -41.0853692511      -34.2294819857       12.9669651905  MEMB      114             0.0000000000
     14122       114  PVCL2     H6B           -39.9752218927      -35.6238929469       12.7602129237  MEMB      114             0.0000000000
     14123       114  PVCL2     CA7           -39.7516466521      -34.0181404719       11.2545148477  MEMB      114             0.0000000000
     14124       114  PVCL2     H7A           -40.2815480640      -33.0556107174       11.0900095153  MEMB      114             0.0000000000
     14125       114  PVCL2     H7B           -40.1719261274      -34.6760124304       10.4640144791  MEMB      114             0.0000000000
     14126       114  PVCL2     CA8           -38.1790542078      -33.9417615242       10.9376750355  MEMB      114             0.0000000000
     14127       114  PVCL2     H8A           -37.6698267766      -34.8122453134       11.4037930791  MEMB      114             0.0000000000
     14128       114  PVCL2     H8B           -37.7702608174      -33.0282969699       11.4201597417  MEMB      114             0.0000000000
     14129       114  PVCL2     CA9           -37.7737461130      -33.8091651805        9.4458298527  MEMB      114             0.0000000000
     14130       114  PVCL2     H9A           -38.5292723072      -33.0617116497        9.1220796388  MEMB      114             0.0000000000
     14131       114  PVCL2     H9B           -37.9525177106      -34.7495225970        8.8818351011  MEMB      114             0.0000000000
     14132       114  PVCL2     CA10          -36.3032234545      -33.4139031481        9.1920795822  MEMB      114             0.0000000000
     14133       114  PVCL2     H10A          -35.9525095299      -33.8678740049        8.2406431446  MEMB      114             0.0000000000
     14134       114  PVCL2     H10B          -35.6611046798      -34.0025340458        9.8816578889  MEMB      114             0.0000000000
     14135       114  PVCL2     CA11          -36.1644388888      -31.9178600841        9.3653705977  MEMB      114             0.0000000000
     14136       114  PVCL2     H11A          -36.5012975802      -31.5538826799       10.3472285480  MEMB      114             0.0000000000
     14137       114  PVCL2     CA12          -35.7078794144      -31.0740822140        8.3849508718  MEMB      114             0.0000000000
     14138       114  PVCL2     H12A          -35.4482249203      -30.0520209937        8.6979534076  MEMB      114             0.0000000000
     14139       114  PVCL2     CA13          -35.2686805378      -31.3980399683        6.9955522894  MEMB      114             0.0000000000
     14140       114  PVCL2     H13A          -36.0859580519      -31.2135652566        6.2659307989  MEMB      114             0.0000000000
     14141       114  PVCL2     H13B          -34.9282902078      -32.4487634520        6.8754054390  MEMB      114             0.0000000000
     14142       114  PVCL2     CA14          -34.0749697371      -30.5593259150        6.4416103746  MEMB      114             0.0000000000
     14143       114  PVCL2     H14A          -33.1561439700      -31.0940596846        6.7643179162  MEMB      114             0.0000000000
     14144       114  PVCL2     H14B          -34.0363845406      -29.5069737106        6.7957105352  MEMB      114             0.0000000000
     14145       114  PVCL2     CA15          -33.8983063711      -30.5763582135        4.9640879913  MEMB      114             0.0000000000
     14146       114  PVCL2     H15A          -33.8283734842      -31.6442713159        4.6657720074  MEMB      114             0.0000000000
     14147       114  PVCL2     H15B          -32.9039043676      -30.0977700187        4.8358751289  MEMB      114             0.0000000000
     14148       114  PVCL2     CA16          -34.9389569110      -29.7804080139        4.0766108490  MEMB      114             0.0000000000
     14149       114  PVCL2     H16A          -34.9802931418      -28.6838098331        4.2500598049  MEMB      114             0.0000000000
     14150       114  PVCL2     H16B          -35.9444726146      -30.0752727606        4.4458182489  MEMB      114             0.0000000000
     14151       114  PVCL2     CA17          -34.6497814715      -29.9452781567        2.5362367918  MEMB      114             0.0000000000
     14152       114  PVCL2     H17A          -34.4438187267      -31.0261935773        2.3828686399  MEMB      114             0.0000000000
     14153       114  PVCL2     H17B          -33.7384721132      -29.3684418663        2.2695964904  MEMB      114             0.0000000000
     14154       114  PVCL2     CA18          -35.7633322613      -29.3266050771        1.6299469316  MEMB      114             0.0000000000
     14155       114  PVCL2     H18A          -35.4326828694      -29.4623246083        0.5780106615  MEMB      114             0.0000000000
     14156       114  PVCL2     H18B          -35.8775434079      -28.2328736398        1.7881518387  MEMB      114             0.0000000000
     14157       114  PVCL2     H18C          -36.7285536191      -29.8685778769        1.5354238854  MEMB      114             0.0000000000
     14158       114  PVCL2     CB3           -38.5837053180      -24.7058235085       15.4973020117  MEMB      114             0.0000000000
     14159       114  PVCL2     H3D           -38.0582655817      -24.0398438849       16.2147314508  MEMB      114             0.0000000000
     14160       114  PVCL2     H3E           -39.6777641442      -24.5125475738       15.4979918886  MEMB      114             0.0000000000
     14161       114  PVCL2     CB4           -38.0340395139      -24.5445307111       14.0762401228  MEMB      114             0.0000000000
     14162       114  PVCL2     H4D           -37.2178626682      -25.2775991119       13.9007787391  MEMB      114             0.0000000000
     14163       114  PVCL2     H4E           -37.8392981609      -23.4576810488       13.9531346946  MEMB      114             0.0000000000
     14164       114  PVCL2     CB5           -38.9643765715      -24.8103739842       12.8746992062  MEMB      114             0.0000000000
     14165       114  PVCL2     H5D           -39.9004256468      -24.2127023873       12.9050680755  MEMB      114             0.0000000000
     14166       114  PVCL2     H5E           -39.3044543352      -25.8644974253       12.9612529503  MEMB      114             0.0000000000
     14167       114  PVCL2     CB6           -38.3404130185      -24.4913236307       11.5680407309  MEMB      114             0.0000000000
     14168       114  PVCL2     H6D           -37.5266574862      -25.1956845990       11.2923624949  MEMB      114             0.0000000000
     14169       114  PVCL2     H6E           -37.7855481504      -23.5312429457       11.6365297179  MEMB      114             0.0000000000
     14170       114  PVCL2     CB7           -39.2664132900      -24.1930062741       10.3224600099  MEMB      114             0.0000000000
     14171       114  PVCL2     H7D           -39.9242979308      -23.3769473347       10.6906405816  MEMB      114             0.0000000000
     14172       114  PVCL2     H7E           -39.9183697766      -25.0710425908       10.1266899386  MEMB      114             0.0000000000
     14173       114  PVCL2     CB8           -38.5802795110      -23.7110669086        9.0596753792  MEMB      114             0.0000000000
     14174       114  PVCL2     H8D           -37.8673633100      -24.5346149113        8.8409518880  MEMB      114             0.0000000000
     14175       114  PVCL2     H8E           -37.9797819674      -22.7993631953        9.2658797271  MEMB      114             0.0000000000
     14176       114  PVCL2     CB9           -39.4021857800      -23.3975731934        7.8029490317  MEMB      114             0.0000000000
     14177       114  PVCL2     H9D           -40.4194054101      -23.0263912631        8.0515656866  MEMB      114             0.0000000000
     14178       114  PVCL2     H9E           -39.5774136424      -24.3623795884        7.2806801343  MEMB      114             0.0000000000
     14179       114  PVCL2     CB10          -38.6469071339      -22.4132401984        6.8883929369  MEMB      114             0.0000000000
     14180       114  PVCL2     H10D          -38.4185643919      -21.5084124861        7.4912752371  MEMB      114             0.0000000000
     14181       114  PVCL2     H10E          -39.4280685272      -22.1189690689        6.1552407352  MEMB      114             0.0000000000
     14182       114  PVCL2     CB11          -37.3496667919      -23.0614737706        6.3550422115  MEMB      114             0.0000000000
     14183       114  PVCL2     H11D          -37.6929203140      -23.9464094581        5.7776453985  MEMB      114             0.0000000000
     14184       114  PVCL2     H11E          -36.7436844002      -23.3156181956        7.2508757128  MEMB      114             0.0000000000
     14185       114  PVCL2     CB12          -36.5588715989      -22.2456460623        5.3009037194  MEMB      114             0.0000000000
     14186       114  PVCL2     H12D          -35.5660944979      -22.6945199393        5.0835864723  MEMB      114             0.0000000000
     14187       114  PVCL2     H12E          -36.4927250897      -21.1922077958        5.6476219811  MEMB      114             0.0000000000
     14188       114  PVCL2     CB13          -37.4700435689      -22.1673862110        3.9751187958  MEMB      114             0.0000000000
     14189       114  PVCL2     H13D          -38.4081881560      -21.6636492651        4.2920657914  MEMB      114             0.0000000000
     14190       114  PVCL2     H13E          -37.7438651826      -23.1783264568        3.6045209887  MEMB      114             0.0000000000
     14191       114  PVCL2     CB14          -37.0101654671      -21.2591759630        2.8494388856  MEMB      114             0.0000000000
     14192       114  PVCL2     H14D          -35.9803050991      -21.5205726502        2.5248181098  MEMB      114             0.0000000000
     14193       114  PVCL2     H14E          -37.0847009890      -20.2011060946        3.1799757134  MEMB      114             0.0000000000
     14194       114  PVCL2     CB15          -38.0357367463      -21.3469690148        1.7094978511  MEMB      114             0.0000000000
     14195       114  PVCL2     H15D          -38.9937743097      -20.9121239651        2.0664205990  MEMB      114             0.0000000000
     14196       114  PVCL2     H15E          -38.2353376489      -22.4318200516        1.5769139663  MEMB      114             0.0000000000
     14197       114  PVCL2     CB16          -37.7036856274      -20.6722115399        0.3279045595  MEMB      114             0.0000000000
     14198       114  PVCL2     H16D          -38.4858928693      -21.0441367819       -0.3679009177  MEMB      114             0.0000000000
     14199       114  PVCL2     H16E          -36.7001381033      -21.0739355333        0.0713296017  MEMB      114             0.0000000000
     14200       114  PVCL2     H16F          -37.6354567554      -19.5639256028        0.2909188935  MEMB      114             0.0000000000
     14201       114  PVCL2     CC3           -31.7691157428      -27.6948947603       14.6339661230  MEMB      114             0.0000000000
     14202       114  PVCL2     H3R           -32.4232483447      -28.5909654105       14.5749014276  MEMB      114             0.0000000000
     14203       114  PVCL2     H3S           -30.7763007888      -28.0506786791       14.9833330158  MEMB      114             0.0000000000
     14204       114  PVCL2     CC4           -31.6951493688      -26.8826802148       13.3025720915  MEMB      114             0.0000000000
     14205       114  PVCL2     H4R           -31.1475965831      -27.4815855336       12.5437445464  MEMB      114             0.0000000000
     14206       114  PVCL2     H4S           -30.9920073023      -26.0302443656       13.4177458760  MEMB      114             0.0000000000
     14207       114  PVCL2     CC5           -33.0582879825      -26.4750444456       12.7575425788  MEMB      114             0.0000000000
     14208       114  PVCL2     H5R           -33.4890086309      -25.8754272833       13.5877589664  MEMB      114             0.0000000000
     14209       114  PVCL2     H5S           -33.7053803292      -27.3734885585       12.6659431355  MEMB      114             0.0000000000
     14210       114  PVCL2     CC6           -33.0625387380      -25.4900092431       11.5265108516  MEMB      114             0.0000000000
     14211       114  PVCL2     H6R           -32.4678269156      -25.6642184669       10.6043994157  MEMB      114             0.0000000000
     14212       114  PVCL2     H6S           -32.8071593424      -24.4941484221       11.9476557897  MEMB      114             0.0000000000
     14213       114  PVCL2     CC7           -34.5158717668      -25.2628894641       11.0045148852  MEMB      114             0.0000000000
     14214       114  PVCL2     H7R           -34.3834185237      -24.5798898287       10.1383226879  MEMB      114             0.0000000000
     14215       114  PVCL2     H7S           -35.0230117353      -24.8549822129       11.9049268239  MEMB      114             0.0000000000
     14216       114  PVCL2     CC8           -35.0372418864      -26.5204626722       10.2729465034  MEMB      114             0.0000000000
     14217       114  PVCL2     H8R           -35.9662748495      -26.1879356865        9.7624131250  MEMB      114             0.0000000000
     14218       114  PVCL2     H8S           -35.2901187396      -27.3168211303       11.0051951054  MEMB      114             0.0000000000
     14219       114  PVCL2     CC9           -34.1628999521      -27.1691447015        9.1743357780  MEMB      114             0.0000000000
     14220       114  PVCL2     H9R           -34.8005786310      -28.0146564693        8.8384835112  MEMB      114             0.0000000000
     14221       114  PVCL2     H9S           -33.1846070919      -27.4801752357        9.5992170833  MEMB      114             0.0000000000
     14222       114  PVCL2     CC10          -33.8154569034      -26.2940092361        7.9161187931  MEMB      114             0.0000000000
     14223       114  PVCL2     H10R          -32.9902606094      -26.8143864931        7.3845376708  MEMB      114             0.0000000000
     14224       114  PVCL2     H10S          -33.5118775104      -25.2521910776        8.1543951459  MEMB      114             0.0000000000
     14225       114  PVCL2     CC11          -34.9699236644      -26.0863839607        7.0077601713  MEMB      114             0.0000000000
     14226       114  PVCL2     H11R          -35.9262958888      -26.0329797847        7.5485928543  MEMB      114             0.0000000000
     14227       114  PVCL2     CC12          -34.8644273639      -26.0093535142        5.6738106626  MEMB      114             0.0000000000
     14228       114  PVCL2     H12R          -35.6543665500      -25.8619184534        4.9226390725  MEMB      114             0.0000000000
     14229       114  PVCL2     CC13          -33.5285872460      -26.1554402670        4.9572501505  MEMB      114             0.0000000000
     14230       114  PVCL2     H13R          -33.4730695855      -26.9808153402        4.2156338071  MEMB      114             0.0000000000
     14231       114  PVCL2     H13S          -32.6835053514      -26.6304656954        5.4999362777  MEMB      114             0.0000000000
     14232       114  PVCL2     CC14          -32.9922490525      -24.9426793240        4.1836148519  MEMB      114             0.0000000000
     14233       114  PVCL2     H14R          -32.0175081376      -25.1387015572        3.6878555603  MEMB      114             0.0000000000
     14234       114  PVCL2     H14S          -33.0396670331      -23.9938187273        4.7595797637  MEMB      114             0.0000000000
     14235       114  PVCL2     CC15          -33.8466152466      -24.6267573108        2.8789658293  MEMB      114             0.0000000000
     14236       114  PVCL2     H15R          -33.4403292549      -23.6572659906        2.5193268772  MEMB      114             0.0000000000
     14237       114  PVCL2     H15S          -34.9396159075      -24.5824442284        3.0731461602  MEMB      114             0.0000000000
     14238       114  PVCL2     CC16          -33.7754376071      -25.7108595931        1.7624605256  MEMB      114             0.0000000000
     14239       114  PVCL2     H16R          -34.3148360088      -26.5817494216        2.1924860853  MEMB      114             0.0000000000
     14240       114  PVCL2     H16S          -32.7194745625      -26.0382232890        1.6524818273  MEMB      114             0.0000000000
     14241       114  PVCL2     CC17          -34.3579601662      -25.2499986814        0.3569198180  MEMB      114             0.0000000000
     14242       114  PVCL2     H17R          -34.2825066956      -26.1608166339       -0.2747759900  MEMB      114             0.0000000000
     14243       114  PVCL2     H17S          -33.6481166424      -24.4394622216        0.0858579445  MEMB      114             0.0000000000
     14244       114  PVCL2     CC18          -35.8339811426      -24.7526085116        0.2332445450  MEMB      114             0.0000000000
     14245       114  PVCL2     H18R          -36.5749852874      -25.5440576083        0.4758197099  MEMB      114             0.0000000000
     14246       114  PVCL2     H18S          -35.9618609679      -24.3998714762       -0.8124813080  MEMB      114             0.0000000000
     14247       114  PVCL2     H18T          -36.1168732171      -23.9071345950        0.8961670454  MEMB      114             0.0000000000
     14248       114  PVCL2     CD3           -35.2818425866      -30.4247854113       14.0086398805  MEMB      114             0.0000000000
     14249       114  PVCL2     H3X           -35.0736862887      -31.1963196420       13.2368064000  MEMB      114             0.0000000000
     14250       114  PVCL2     H3Y           -34.6110246822      -29.5406079735       13.9580999212  MEMB      114             0.0000000000
     14251       114  PVCL2     CD4           -36.7005853558      -29.7802222554       13.7191936693  MEMB      114             0.0000000000
     14252       114  PVCL2     H4X           -36.9643435700      -29.0929775909       14.5513278926  MEMB      114             0.0000000000
     14253       114  PVCL2     H4Y           -37.3640668465      -30.6705306046       13.7574624884  MEMB      114             0.0000000000
     14254       114  PVCL2     CD5           -36.8014413932      -28.9501025097       12.3996659005  MEMB      114             0.0000000000
     14255       114  PVCL2     H5X           -36.1674178166      -29.4116528322       11.6127055151  MEMB      114             0.0000000000
     14256       114  PVCL2     H5Y           -36.3789813806      -27.9583970260       12.6686803242  MEMB      114             0.0000000000
     14257       114  PVCL2     CD6           -38.2618719672      -28.6138618000       12.0054359499  MEMB      114             0.0000000000
     14258       114  PVCL2     H6X           -38.0469679725      -27.9187159632       11.1658471544  MEMB      114             0.0000000000
     14259       114  PVCL2     H6Y           -38.7759327421      -27.9377293465       12.7216118853  MEMB      114             0.0000000000
     14260       114  PVCL2     CD7           -39.0530767954      -29.8493043113       11.7598108804  MEMB      114             0.0000000000
     14261       114  PVCL2     H7X           -39.1015317472      -30.3288003276       12.7608387521  MEMB      114             0.0000000000
     14262       114  PVCL2     H7Y           -38.4027587902      -30.5082414666       11.1456370570  MEMB      114             0.0000000000
     14263       114  PVCL2     CD8           -40.4361452772      -29.6495446850       11.2107857700  MEMB      114             0.0000000000
     14264       114  PVCL2     H8X           -41.0272267748      -29.0549964638       11.9397958302  MEMB      114             0.0000000000
     14265       114  PVCL2     H8Y           -41.0237082062      -30.5872860967       11.1121366479  MEMB      114             0.0000000000
     14266       114  PVCL2     CD9           -40.5448645217      -28.8147310700        9.9096110123  MEMB      114             0.0000000000
     14267       114  PVCL2     H9X           -40.5453993467      -27.7184847193       10.0900678606  MEMB      114             0.0000000000
     14268       114  PVCL2     H9Y           -41.4810746848      -29.1602212661        9.4212796941  MEMB      114             0.0000000000
     14269       114  PVCL2     CD10          -39.4052324082      -29.1139900419        8.9133011487  MEMB      114             0.0000000000
     14270       114  PVCL2     H10X          -39.3537192762      -30.2225425992        8.8605910925  MEMB      114             0.0000000000
     14271       114  PVCL2     H10Y          -38.4047966144      -28.7498406819        9.2308613040  MEMB      114             0.0000000000
     14272       114  PVCL2     CD11          -39.5983976813      -28.5880168917        7.4833772018  MEMB      114             0.0000000000
     14273       114  PVCL2     H11X          -39.9291537994      -27.5328257485        7.5905826576  MEMB      114             0.0000000000
     14274       114  PVCL2     H11Y          -40.4473431290      -29.0444981134        6.9308939662  MEMB      114             0.0000000000
     14275       114  PVCL2     CD12          -38.4017593596      -28.5073750138        6.5596475311  MEMB      114             0.0000000000
     14276       114  PVCL2     H12X          -37.9082269854      -29.5017009807        6.6050661968  MEMB      114             0.0000000000
     14277       114  PVCL2     H12Y          -37.6409287174      -27.8010215214        6.9552765490  MEMB      114             0.0000000000
     14278       114  PVCL2     CD13          -38.5995356478      -28.0510869502        5.0686808558  MEMB      114             0.0000000000
     14279       114  PVCL2     H13X          -39.3973255480      -28.7179853649        4.6774025063  MEMB      114             0.0000000000
     14280       114  PVCL2     H13Y          -37.6456602312      -28.1980262970        4.5183607624  MEMB      114             0.0000000000
     14281       114  PVCL2     CD14          -39.2606236063      -26.6167096738        4.9611481295  MEMB      114             0.0000000000
     14282       114  PVCL2     H14X          -38.6718300603      -25.9040351669        5.5773766901  MEMB      114             0.0000000000
     14283       114  PVCL2     H14Y          -40.2259216678      -26.6681132529        5.5087587526  MEMB      114             0.0000000000
     14284       114  PVCL2     CD15          -39.3499727760      -26.1157314246        3.4942070768  MEMB      114             0.0000000000
     14285       114  PVCL2     H15X          -39.3808632618      -25.0078027348        3.4176498315  MEMB      114             0.0000000000
     14286       114  PVCL2     H15Y          -40.2656010219      -26.6199463138        3.1177588975  MEMB      114             0.0000000000
     14287       114  PVCL2     CD16          -38.2482855981      -26.5349250077        2.4587085528  MEMB      114             0.0000000000
     14288       114  PVCL2     H16X          -38.4485711090      -25.8979420374        1.5707552084  MEMB      114             0.0000000000
     14289       114  PVCL2     H16Y          -38.2178387013      -27.6122489642        2.1889546703  MEMB      114             0.0000000000
     14290       114  PVCL2     H16Z          -37.2812912762      -26.1153628389        2.8097220833  MEMB      114             0.0000000000
     14291       115  PMPG      C13            18.4322691545       43.7470987651       16.4922246717  MEMB      115             0.0000000000
     14292       115  PMPG      H13A           18.0591619617       42.9324080696       15.8354209500  MEMB      115             0.0000000000
     14293       115  PMPG      H13B           17.6161030252       44.4986430918       16.4341295579  MEMB      115             0.0000000000
     14294       115  PMPG      OC3            19.6250247679       44.2579219912       16.0519904004  MEMB      115             0.0000000000
     14295       115  PMPG      HO3            19.3943513456       45.0512189429       15.5630429246  MEMB      115             0.0000000000
     14296       115  PMPG      C12            18.6364560852       43.3096202456       17.9980336569  MEMB      115             0.0000000000
     14297       115  PMPG      H12A           19.5633749426       42.6917280793       18.0405747290  MEMB      115             0.0000000000
     14298       115  PMPG      OC2            17.5439625838       42.4953111659       18.4262854076  MEMB      115             0.0000000000
     14299       115  PMPG      HO2            17.7040507484       42.4001696636       19.3906695189  MEMB      115             0.0000000000
     14300       115  PMPG      C11            18.8167578040       44.5599275852       18.9208335546  MEMB      115             0.0000000000
     14301       115  PMPG      H11A           19.5061855329       45.1933469366       18.3226778323  MEMB      115             0.0000000000
     14302       115  PMPG      H11B           19.4312529145       44.4069378431       19.8336921776  MEMB      115             0.0000000000
     14303       115  PMPG      P              17.2269401077       45.8652743975       20.4662220956  MEMB      115             0.0000000000
     14304       115  PMPG      O13            18.3692568110       46.4443775569       21.0893631560  MEMB      115             0.0000000000
     14305       115  PMPG      O14            16.5826940618       44.7972312278       21.2628806706  MEMB      115             0.0000000000
     14306       115  PMPG      O11            16.1670996444       47.0537220937       20.1896278958  MEMB      115             0.0000000000
     14307       115  PMPG      O12            17.6080119761       45.2097389717       19.1025385071  MEMB      115             0.0000000000
     14308       115  PMPG      C1             15.8557112018       47.5617008655       18.8689165602  MEMB      115             0.0000000000
     14309       115  PMPG      HA             16.7159003591       47.4472608169       18.1751592629  MEMB      115             0.0000000000
     14310       115  PMPG      HB             15.5509225687       48.6298743628       18.8481732865  MEMB      115             0.0000000000
     14311       115  PMPG      C2             14.6992861114       46.8445444228       18.1542745870  MEMB      115             0.0000000000
     14312       115  PMPG      HS             13.7563119211       47.0566674316       18.7021110959  MEMB      115             0.0000000000
     14313       115  PMPG      O21            15.0087829031       45.4440954354       18.1596127758  MEMB      115             0.0000000000
     14314       115  PMPG      C21            14.0469620775       44.5244863197       18.0271903140  MEMB      115             0.0000000000
     14315       115  PMPG      O22            12.8588705832       44.7828681045       17.9793898639  MEMB      115             0.0000000000
     14316       115  PMPG      C22            14.5956954627       43.0994958940       17.9227560038  MEMB      115             0.0000000000
     14317       115  PMPG      H2R            14.5951570844       42.6739704317       18.9490350637  MEMB      115             0.0000000000
     14318       115  PMPG      H2S            15.6505526076       43.1943216241       17.5871884288  MEMB      115             0.0000000000
     14319       115  PMPG      C3             14.5591657741       47.3721343065       16.7339388214  MEMB      115             0.0000000000
     14320       115  PMPG      HX             14.7835256633       48.4598132011       16.7645660613  MEMB      115             0.0000000000
     14321       115  PMPG      HY             13.5114521379       47.3656117809       16.3643786867  MEMB      115             0.0000000000
     14322       115  PMPG      O31            15.5791937275       46.7133122441       15.9296449142  MEMB      115             0.0000000000
     14323       115  PMPG      C31            15.1898194698       46.2674840099       14.8299671534  MEMB      115             0.0000000000
     14324       115  PMPG      O32            14.0995051425       46.2362598426       14.2713635506  MEMB      115             0.0000000000
     14325       115  PMPG      C32            16.4588526548       45.6957275531       14.0942253070  MEMB      115             0.0000000000
     14326       115  PMPG      H2X            16.4926432968       44.5971234627       14.2562381882  MEMB      115             0.0000000000
     14327       115  PMPG      H2Y            17.3671483437       46.1291475339       14.5648279844  MEMB      115             0.0000000000
     14328       115  PMPG      C23            13.7571025669       42.3095455729       16.8762594187  MEMB      115             0.0000000000
     14329       115  PMPG      H3R            12.6751050178       42.4658475973       17.0741778130  MEMB      115             0.0000000000
     14330       115  PMPG      H3S            14.0286988543       41.2459150866       17.0472775896  MEMB      115             0.0000000000
     14331       115  PMPG      C24            14.1232135654       42.4801580143       15.4088641426  MEMB      115             0.0000000000
     14332       115  PMPG      H4R            15.2331350314       42.4559324656       15.3663391026  MEMB      115             0.0000000000
     14333       115  PMPG      H4S            13.7860891610       43.5062826410       15.1486021679  MEMB      115             0.0000000000
     14334       115  PMPG      C25            13.4995544790       41.5248025922       14.3630294498  MEMB      115             0.0000000000
     14335       115  PMPG      H5R            12.3982506765       41.6707613756       14.3509181809  MEMB      115             0.0000000000
     14336       115  PMPG      H5S            13.5716245552       40.4859218477       14.7501402817  MEMB      115             0.0000000000
     14337       115  PMPG      C26            13.8330685197       41.7729892053       12.9372010095  MEMB      115             0.0000000000
     14338       115  PMPG      H6R            13.3829917665       40.9403898828       12.3553674698  MEMB      115             0.0000000000
     14339       115  PMPG      H6S            14.9433404525       41.8128936081       12.9321944820  MEMB      115             0.0000000000
     14340       115  PMPG      C27            13.2459603823       42.9363576957       12.2436691085  MEMB      115             0.0000000000
     14341       115  PMPG      H7R            13.6239567903       43.8609246209       12.7301010443  MEMB      115             0.0000000000
     14342       115  PMPG      H7S            12.1510030963       42.9430583709       12.4316700974  MEMB      115             0.0000000000
     14343       115  PMPG      C28            13.4040371255       42.9146550838       10.6909839569  MEMB      115             0.0000000000
     14344       115  PMPG      H8R            12.5659345939       43.4991842002       10.2548298457  MEMB      115             0.0000000000
     14345       115  PMPG      H8S            13.3205654435       41.8445043778       10.4043980257  MEMB      115             0.0000000000
     14346       115  PMPG      C29            14.7727597491       43.3774264256       10.2192114874  MEMB      115             0.0000000000
     14347       115  PMPG      H9R            15.4613832651       44.0081874339       10.8210913055  MEMB      115             0.0000000000
     14348       115  PMPG      C217           15.5832968064       42.2211536507        9.5747495109  MEMB      115             0.0000000000
     14349       115  PMPG      H17R           16.6524236020       42.3277631119        9.7107325448  MEMB      115             0.0000000000
     14350       115  PMPG      H17S           15.0167843539       41.3243295845        9.3564397735  MEMB      115             0.0000000000
     14351       115  PMPG      C210           15.0929472800       43.4783765793        8.7550160333  MEMB      115             0.0000000000
     14352       115  PMPG      H10R           15.9997839667       44.0816149471        8.5357636525  MEMB      115             0.0000000000
     14353       115  PMPG      C211           14.1806723457       43.0279791513        7.5709848041  MEMB      115             0.0000000000
     14354       115  PMPG      H11R           13.4635152176       42.2086944853        7.7918453050  MEMB      115             0.0000000000
     14355       115  PMPG      H11S           13.6393566849       43.9721674538        7.3478101579  MEMB      115             0.0000000000
     14356       115  PMPG      C212           14.9698870957       42.8881317647        6.2846474359  MEMB      115             0.0000000000
     14357       115  PMPG      H12R           15.7667061832       42.1544198894        6.5317641157  MEMB      115             0.0000000000
     14358       115  PMPG      H12S           15.5413331995       43.7774588554        5.9427876312  MEMB      115             0.0000000000
     14359       115  PMPG      C213           14.1204257142       42.3946608276        5.0437040995  MEMB      115             0.0000000000
     14360       115  PMPG      H13R           13.5932533543       41.4392185764        5.2523669255  MEMB      115             0.0000000000
     14361       115  PMPG      H13S           14.8000038258       42.1446612309        4.2010918500  MEMB      115             0.0000000000
     14362       115  PMPG      C214           13.0971725200       43.4932502667        4.4295373836  MEMB      115             0.0000000000
     14363       115  PMPG      H14R           13.6029309463       44.4810156874        4.3761621322  MEMB      115             0.0000000000
     14364       115  PMPG      H14S           12.4546788781       43.7352889287        5.3030021030  MEMB      115             0.0000000000
     14365       115  PMPG      C215           12.3188995889       42.9912069880        3.2229117117  MEMB      115             0.0000000000
     14366       115  PMPG      H15R           12.9278927556       42.7218244143        2.3335960717  MEMB      115             0.0000000000
     14367       115  PMPG      H15S           11.6693635939       43.8150630711        2.8572809505  MEMB      115             0.0000000000
     14368       115  PMPG      C216           11.4692618406       41.7404680174        3.4895802668  MEMB      115             0.0000000000
     14369       115  PMPG      H16R           10.7145114032       42.0134786020        4.2577847160  MEMB      115             0.0000000000
     14370       115  PMPG      H16S           11.9948884819       40.7917262795        3.7302600667  MEMB      115             0.0000000000
     14371       115  PMPG      H16T           10.8891053321       41.6793152635        2.5440634590  MEMB      115             0.0000000000
     14372       115  PMPG      C33            16.4629320933       46.1059614350       12.6408945697  MEMB      115             0.0000000000
     14373       115  PMPG      H3X            16.5132297170       47.2118997792       12.5476656638  MEMB      115             0.0000000000
     14374       115  PMPG      H3Y            15.5336990152       45.6992313912       12.1876648271  MEMB      115             0.0000000000
     14375       115  PMPG      C34            17.7167779660       45.5920702711       12.0004214038  MEMB      115             0.0000000000
     14376       115  PMPG      H4X            17.7207325398       44.4817990219       11.9603828692  MEMB      115             0.0000000000
     14377       115  PMPG      H4Y            18.6108860352       46.0210873593       12.5012570492  MEMB      115             0.0000000000
     14378       115  PMPG      C35            17.6596149841       46.0937446155       10.5800681446  MEMB      115             0.0000000000
     14379       115  PMPG      H5X            18.1517275417       47.0839850879       10.4725028290  MEMB      115             0.0000000000
     14380       115  PMPG      H5Y            16.6339177949       46.2043710219       10.1677231064  MEMB      115             0.0000000000
     14381       115  PMPG      C36            18.4725237757       45.2285253442        9.6361674862  MEMB      115             0.0000000000
     14382       115  PMPG      H6X            18.0138560448       44.2176008000        9.5917091815  MEMB      115             0.0000000000
     14383       115  PMPG      H6Y            19.4707551120       45.0814744646       10.1011750309  MEMB      115             0.0000000000
     14384       115  PMPG      C37            18.5445278874       45.8809660454        8.2586452368  MEMB      115             0.0000000000
     14385       115  PMPG      H7X            19.3404592656       46.6558863841        8.2409616492  MEMB      115             0.0000000000
     14386       115  PMPG      H7Y            17.5635379286       46.3461511625        8.0228868060  MEMB      115             0.0000000000
     14387       115  PMPG      C38            18.5330475744       44.8830919971        7.0691177685  MEMB      115             0.0000000000
     14388       115  PMPG      H8X            17.6877624823       44.1711933343        7.1831987754  MEMB      115             0.0000000000
     14389       115  PMPG      H8Y            19.4894813462       44.3326713627        6.9403060376  MEMB      115             0.0000000000
     14390       115  PMPG      C39            18.1717377787       45.6779450008        5.8368195086  MEMB      115             0.0000000000
     14391       115  PMPG      H9X            17.4847989306       46.5315522355        6.0206422541  MEMB      115             0.0000000000
     14392       115  PMPG      H9Y            17.5662729921       45.1136832468        5.0956441571  MEMB      115             0.0000000000
     14393       115  PMPG      C310           19.4937377859       45.9047388034        5.0469483418  MEMB      115             0.0000000000
     14394       115  PMPG      H10X           19.8072465024       44.9163376148        4.6480791181  MEMB      115             0.0000000000
     14395       115  PMPG      H10Y           20.3260618322       46.3276499685        5.6491975867  MEMB      115             0.0000000000
     14396       115  PMPG      C311           19.3000274343       46.7571953135        3.8396845710  MEMB      115             0.0000000000
     14397       115  PMPG      H11X           20.2876293324       46.9827110673        3.3834985686  MEMB      115             0.0000000000
     14398       115  PMPG      H11Y           18.7526049481       47.7052422169        4.0290433537  MEMB      115             0.0000000000
     14399       115  PMPG      C312           18.5206903163       46.0246971590        2.7657215905  MEMB      115             0.0000000000
     14400       115  PMPG      H12X           17.4684367680       45.8325644060        3.0660023091  MEMB      115             0.0000000000
     14401       115  PMPG      H12Y           18.9073915848       44.9881238678        2.6642385665  MEMB      115             0.0000000000
     14402       115  PMPG      C313           18.6913248007       46.7405883401        1.4076493156  MEMB      115             0.0000000000
     14403       115  PMPG      H13X           19.7406755957       46.7438099839        1.0427196072  MEMB      115             0.0000000000
     14404       115  PMPG      H13Y           18.5095935575       47.8272677115        1.5505558537  MEMB      115             0.0000000000
     14405       115  PMPG      C314           17.8392648085       46.2117911443        0.2335306016  MEMB      115             0.0000000000
     14406       115  PMPG      H14X           17.7346064502       45.1061959019        0.2014851560  MEMB      115             0.0000000000
     14407       115  PMPG      H14Y           18.3020955396       46.4839583992       -0.7391123515  MEMB      115             0.0000000000
     14408       115  PMPG      C315           16.4390335241       46.7598884520        0.3099923171  MEMB      115             0.0000000000
     14409       115  PMPG      H15X           16.5196499710       47.8354205237        0.5765484784  MEMB      115             0.0000000000
     14410       115  PMPG      H15Y           15.8718286820       46.2833056811        1.1379226836  MEMB      115             0.0000000000
     14411       115  PMPG      C316           15.5089989056       46.4327111617       -0.8788967479  MEMB      115             0.0000000000
     14412       115  PMPG      H16X           14.5163278638       46.8057951302       -0.5476358825  MEMB      115             0.0000000000
     14413       115  PMPG      H16Y           15.6415320446       45.3333488866       -0.9692211018  MEMB      115             0.0000000000
     14414       115  PMPG      H16Z           15.9241038236       47.0062539806       -1.7350830034  MEMB      115             0.0000000000
     14415       116  PVCL2     C3             32.9426088921       33.9571244264       20.9440098690  MEMB      116             0.0000000000
     14416       116  PVCL2     HG31           32.6084891572       33.1298873284       20.2819193380  MEMB      116             0.0000000000
     14417       116  PVCL2     HG32           32.8401036771       33.6181651655       21.9970627331  MEMB      116             0.0000000000
     14418       116  PVCL2     P3             30.4256079501       34.7671252485       21.0189820150  MEMB      116             0.0000000000
     14419       116  PVCL2     OP33           29.7970948872       35.9933202881       20.5573831057  MEMB      116             0.0000000000
     14420       116  PVCL2     OP34           30.0460743156       34.3116279903       22.3684581239  MEMB      116             0.0000000000
     14421       116  PVCL2     OP31           31.9851045582       34.9719996397       20.8296425223  MEMB      116             0.0000000000
     14422       116  PVCL2     OP32           30.0596236840       33.5506300715       20.0281890363  MEMB      116             0.0000000000
     14423       116  PVCL2     C31            29.4974960666       33.8901137414       18.7887283251  MEMB      116             0.0000000000
     14424       116  PVCL2     H31J           28.4280666080       34.1298857129       18.9708030896  MEMB      116             0.0000000000
     14425       116  PVCL2     H31K           30.1677468998       34.6497549826       18.3326249855  MEMB      116             0.0000000000
     14426       116  PVCL2     C2             34.3860468342       34.5344881830       20.8230570992  MEMB      116             0.0000000000
     14427       116  PVCL2     HG22           34.6053445559       35.1545708774       21.7184491833  MEMB      116             0.0000000000
     14428       116  PVCL2     OG12           35.3137077989       33.4011594866       20.7897981447  MEMB      116             0.0000000000
     14429       116  PVCL2     HO12           36.2071838849       33.7412554201       20.7024193124  MEMB      116             0.0000000000
     14430       116  PVCL2     C1             34.5509143128       35.4169749642       19.5114472747  MEMB      116             0.0000000000
     14431       116  PVCL2     HG11           34.1870650640       34.8474902957       18.6296185381  MEMB      116             0.0000000000
     14432       116  PVCL2     HG12           35.5982355314       35.7019404698       19.2743100587  MEMB      116             0.0000000000
     14433       116  PVCL2     P1             33.5954557268       37.6485120081       18.6100790662  MEMB      116             0.0000000000
     14434       116  PVCL2     OP13           32.4599598468       37.1253093150       17.8316882439  MEMB      116             0.0000000000
     14435       116  PVCL2     OP14           33.3632901290       39.0059858554       19.1491303600  MEMB      116             0.0000000000
     14436       116  PVCL2     OP11           33.8699917944       36.6383289863       19.8087267605  MEMB      116             0.0000000000
     14437       116  PVCL2     OP12           34.8703199575       37.5713991104       17.6371211511  MEMB      116             0.0000000000
     14438       116  PVCL2     C11            35.9929570502       38.4011450522       17.8649876739  MEMB      116             0.0000000000
     14439       116  PVCL2     H11J           36.6675995013       38.1077616182       18.6975165294  MEMB      116             0.0000000000
     14440       116  PVCL2     H11K           35.7030387866       39.4602408484       18.0340575330  MEMB      116             0.0000000000
     14441       116  PVCL2     C12            36.8470008815       38.5083680355       16.6419622030  MEMB      116             0.0000000000
     14442       116  PVCL2     H12J           37.3906835297       39.4724718318       16.7380561621  MEMB      116             0.0000000000
     14443       116  PVCL2     O12            35.9935343948       38.4177852106       15.4575286666  MEMB      116             0.0000000000
     14444       116  PVCL2     CA1            35.6440631205       39.5148315288       14.7359441287  MEMB      116             0.0000000000
     14445       116  PVCL2     OA1            35.9694572928       40.6406151340       15.0091626742  MEMB      116             0.0000000000
     14446       116  PVCL2     CA2            34.7502819465       39.1740236340       13.5476036533  MEMB      116             0.0000000000
     14447       116  PVCL2     H2A            34.9708747877       38.1476059712       13.1841121116  MEMB      116             0.0000000000
     14448       116  PVCL2     H2B            34.8831150457       40.0239173293       12.8444982654  MEMB      116             0.0000000000
     14449       116  PVCL2     C13            37.8810592694       37.3123102060       16.5298064496  MEMB      116             0.0000000000
     14450       116  PVCL2     H13J           38.4875266607       37.4087138336       17.4556708992  MEMB      116             0.0000000000
     14451       116  PVCL2     H13K           38.5485722469       37.5748694392       15.6813902460  MEMB      116             0.0000000000
     14452       116  PVCL2     O13            37.1655675874       36.0956612720       16.3833957775  MEMB      116             0.0000000000
     14453       116  PVCL2     CB1            37.9170842422       34.9869997288       16.2772663326  MEMB      116             0.0000000000
     14454       116  PVCL2     OB1            39.0865230002       34.8975040755       16.2042400458  MEMB      116             0.0000000000
     14455       116  PVCL2     CB2            36.8979512668       33.8077535378       16.2832694962  MEMB      116             0.0000000000
     14456       116  PVCL2     H2D            35.9881581997       34.2404981191       15.8149429480  MEMB      116             0.0000000000
     14457       116  PVCL2     H2E            36.7745759376       33.5438163558       17.3553872654  MEMB      116             0.0000000000
     14458       116  PVCL2     C32            29.5408437421       32.6157721288       17.9605031213  MEMB      116             0.0000000000
     14459       116  PVCL2     H32J           29.1573567239       31.7239230558       18.5007470287  MEMB      116             0.0000000000
     14460       116  PVCL2     O32            30.9195213123       32.3455236975       17.7218944321  MEMB      116             0.0000000000
     14461       116  PVCL2     CC1            31.2888168781       31.1254728856       17.6572239643  MEMB      116             0.0000000000
     14462       116  PVCL2     OC1            30.5904165489       30.1044137924       17.5852997098  MEMB      116             0.0000000000
     14463       116  PVCL2     CC2            32.8504849375       30.9952116752       17.7427676009  MEMB      116             0.0000000000
     14464       116  PVCL2     H2R            33.2774927431       31.0509415673       18.7669159217  MEMB      116             0.0000000000
     14465       116  PVCL2     H2S            33.3015266447       31.8127470440       17.1406727471  MEMB      116             0.0000000000
     14466       116  PVCL2     C33            28.8924632103       32.7443717418       16.5515547477  MEMB      116             0.0000000000
     14467       116  PVCL2     H33J           28.9889299874       31.8116653474       15.9556739746  MEMB      116             0.0000000000
     14468       116  PVCL2     H33K           27.7875391927       32.8393466057       16.6182137392  MEMB      116             0.0000000000
     14469       116  PVCL2     O33            29.4411531502       33.8886166069       15.9492312664  MEMB      116             0.0000000000
     14470       116  PVCL2     CD1            30.0539438085       33.7297620423       14.7593150030  MEMB      116             0.0000000000
     14471       116  PVCL2     OD1            30.1114069647       32.7061359187       14.1230363148  MEMB      116             0.0000000000
     14472       116  PVCL2     CD2            30.5401745815       35.1044374750       14.3312570929  MEMB      116             0.0000000000
     14473       116  PVCL2     H2X            29.8230195399       35.8975098197       14.6329948957  MEMB      116             0.0000000000
     14474       116  PVCL2     H2Y            30.5888643098       35.2337063287       13.2288780916  MEMB      116             0.0000000000
     14475       116  PVCL2     CA3            33.3083766952       39.1452042988       14.0249126347  MEMB      116             0.0000000000
     14476       116  PVCL2     H3A            32.9114947144       40.0399058540       14.5505691689  MEMB      116             0.0000000000
     14477       116  PVCL2     H3B            33.1138602639       38.2598697018       14.6673040082  MEMB      116             0.0000000000
     14478       116  PVCL2     CA4            32.3926200717       38.9574383773       12.7428845989  MEMB      116             0.0000000000
     14479       116  PVCL2     H4A            32.7648842171       38.1185173079       12.1168246407  MEMB      116             0.0000000000
     14480       116  PVCL2     H4B            32.3836223957       39.8756478598       12.1174791068  MEMB      116             0.0000000000
     14481       116  PVCL2     CA5            30.9046059691       38.6647656745       12.9947046887  MEMB      116             0.0000000000
     14482       116  PVCL2     H5A            30.3296286942       39.5721671711       13.2781559111  MEMB      116             0.0000000000
     14483       116  PVCL2     H5B            30.6866780336       37.8822912060       13.7527033550  MEMB      116             0.0000000000
     14484       116  PVCL2     CA6            30.2553740550       38.3236874079       11.6062702161  MEMB      116             0.0000000000
     14485       116  PVCL2     H6A            30.1800841997       39.1081462140       10.8231505629  MEMB      116             0.0000000000
     14486       116  PVCL2     H6B            29.2301942774       37.9873300205       11.8712059546  MEMB      116             0.0000000000
     14487       116  PVCL2     CA7            30.8568804353       37.1504483134       10.8476780128  MEMB      116             0.0000000000
     14488       116  PVCL2     H7A            30.8738268918       36.3004808696       11.5629323277  MEMB      116             0.0000000000
     14489       116  PVCL2     H7B            31.8951927352       37.2967730895       10.4805024312  MEMB      116             0.0000000000
     14490       116  PVCL2     CA8            30.0863865493       36.4973851493        9.6967484829  MEMB      116             0.0000000000
     14491       116  PVCL2     H8A            30.3223354109       37.1354864305        8.8184115594  MEMB      116             0.0000000000
     14492       116  PVCL2     H8B            29.0168161684       36.3948247786        9.9792752252  MEMB      116             0.0000000000
     14493       116  PVCL2     CA9            30.7147295957       35.1130648344        9.3742139712  MEMB      116             0.0000000000
     14494       116  PVCL2     H9A            30.6010369205       34.4073682139       10.2247355851  MEMB      116             0.0000000000
     14495       116  PVCL2     H9B            31.7888605707       35.3766485012        9.2689167422  MEMB      116             0.0000000000
     14496       116  PVCL2     CA10           30.2418245055       34.4862470798        8.0225959141  MEMB      116             0.0000000000
     14497       116  PVCL2     H10A           31.0773763382       33.7911603529        7.7923174119  MEMB      116             0.0000000000
     14498       116  PVCL2     H10B           30.0753749347       35.1775441306        7.1689429573  MEMB      116             0.0000000000
     14499       116  PVCL2     CA11           28.9763730164       33.8010143089        8.0865767304  MEMB      116             0.0000000000
     14500       116  PVCL2     H11A           28.5556948967       33.9009470071        9.0980327472  MEMB      116             0.0000000000
     14501       116  PVCL2     CA12           28.3698764968       33.0754840448        7.1498325010  MEMB      116             0.0000000000
     14502       116  PVCL2     H12A           27.3336514706       32.8271683506        7.4229199016  MEMB      116             0.0000000000
     14503       116  PVCL2     CA13           28.7409700206       32.7027684861        5.7592645563  MEMB      116             0.0000000000
     14504       116  PVCL2     H13A           28.4387866607       31.6501636202        5.5721037640  MEMB      116             0.0000000000
     14505       116  PVCL2     H13B           29.8455099621       32.6948102246        5.6398938671  MEMB      116             0.0000000000
     14506       116  PVCL2     CA14           28.0475964445       33.5231864923        4.6852909696  MEMB      116             0.0000000000
     14507       116  PVCL2     H14A           28.3155211261       34.5887235925        4.8501180358  MEMB      116             0.0000000000
     14508       116  PVCL2     H14B           26.9366102563       33.5177900360        4.6844171099  MEMB      116             0.0000000000
     14509       116  PVCL2     CA15           28.5728143955       33.1108916793        3.3113051252  MEMB      116             0.0000000000
     14510       116  PVCL2     H15A           28.4076956330       32.0260404122        3.1376554736  MEMB      116             0.0000000000
     14511       116  PVCL2     H15B           29.6795581653       33.1433184739        3.4028917948  MEMB      116             0.0000000000
     14512       116  PVCL2     CA16           28.1989639122       34.0722253378        2.2030788060  MEMB      116             0.0000000000
     14513       116  PVCL2     H16A           28.3702841128       35.1405275109        2.4554713526  MEMB      116             0.0000000000
     14514       116  PVCL2     H16B           27.1547612412       33.8850241787        1.8730532891  MEMB      116             0.0000000000
     14515       116  PVCL2     CA17           29.0617290852       33.9429738043        0.8895187016  MEMB      116             0.0000000000
     14516       116  PVCL2     H17A           28.8590603035       32.9692347979        0.3944637939  MEMB      116             0.0000000000
     14517       116  PVCL2     H17B           30.1415510310       34.0822840402        1.1106474613  MEMB      116             0.0000000000
     14518       116  PVCL2     CA18           28.8223955569       35.1209799136       -0.0507963856  MEMB      116             0.0000000000
     14519       116  PVCL2     H18A           29.1128740093       36.0349328089        0.5101260878  MEMB      116             0.0000000000
     14520       116  PVCL2     H18B           27.7901705096       35.3900689158       -0.3613170786  MEMB      116             0.0000000000
     14521       116  PVCL2     H18C           29.4251250368       35.0288907716       -0.9795352701  MEMB      116             0.0000000000
     14522       116  PVCL2     CB3            37.3627058011       32.5824195845       15.3752077021  MEMB      116             0.0000000000
     14523       116  PVCL2     H3D            38.4480321818       32.4361853434       15.5622989271  MEMB      116             0.0000000000
     14524       116  PVCL2     H3E            37.1699058567       33.0130093224       14.3693540079  MEMB      116             0.0000000000
     14525       116  PVCL2     CB4            36.6894952245       31.2750665459       15.7733362519  MEMB      116             0.0000000000
     14526       116  PVCL2     H4D            35.6270533423       31.5991690617       15.7510808962  MEMB      116             0.0000000000
     14527       116  PVCL2     H4E            36.9664127117       31.1858060931       16.8455633959  MEMB      116             0.0000000000
     14528       116  PVCL2     CB5            37.0436449379       30.1183442968       14.7951435359  MEMB      116             0.0000000000
     14529       116  PVCL2     H5D            36.4803097209       29.2616140133       15.2229137745  MEMB      116             0.0000000000
     14530       116  PVCL2     H5E            38.1246190962       29.8626901415       14.7737622832  MEMB      116             0.0000000000
     14531       116  PVCL2     CB6            36.3823135098       30.2616525117       13.4109950085  MEMB      116             0.0000000000
     14532       116  PVCL2     H6D            36.6430528245       31.1911513923       12.8611150045  MEMB      116             0.0000000000
     14533       116  PVCL2     H6E            35.2914370178       30.3666833827       13.5934177742  MEMB      116             0.0000000000
     14534       116  PVCL2     CB7            36.5722389604       29.0908157205       12.4502106570  MEMB      116             0.0000000000
     14535       116  PVCL2     H7D            35.7505786209       28.3680705372       12.6421336743  MEMB      116             0.0000000000
     14536       116  PVCL2     H7E            37.5562698460       28.5891693423       12.5700214180  MEMB      116             0.0000000000
     14537       116  PVCL2     CB8            36.6092064031       29.5396442300       10.9586966779  MEMB      116             0.0000000000
     14538       116  PVCL2     H8D            37.3560692301       30.3568695082       10.8656375043  MEMB      116             0.0000000000
     14539       116  PVCL2     H8E            35.6462052347       30.0046924990       10.6575659506  MEMB      116             0.0000000000
     14540       116  PVCL2     CB9            37.0571211227       28.3496205554       10.0908623746  MEMB      116             0.0000000000
     14541       116  PVCL2     H9D            36.7638614311       27.4113568581       10.6085309289  MEMB      116             0.0000000000
     14542       116  PVCL2     H9E            38.1545099018       28.4287484029        9.9365977381  MEMB      116             0.0000000000
     14543       116  PVCL2     CB10           36.3633733332       28.2835506211        8.7342472958  MEMB      116             0.0000000000
     14544       116  PVCL2     H10D           36.6027971042       29.2101675769        8.1699975051  MEMB      116             0.0000000000
     14545       116  PVCL2     H10E           35.2534377981       28.3269750601        8.7561152485  MEMB      116             0.0000000000
     14546       116  PVCL2     CB11           36.9633654623       27.1927450166        7.8403552807  MEMB      116             0.0000000000
     14547       116  PVCL2     H11D           36.8271719426       26.2194107042        8.3584207006  MEMB      116             0.0000000000
     14548       116  PVCL2     H11E           38.0512275420       27.3281784423        8.0207287333  MEMB      116             0.0000000000
     14549       116  PVCL2     CB12           36.5648333427       27.1065650789        6.3526016131  MEMB      116             0.0000000000
     14550       116  PVCL2     H12D           37.0504277902       26.2055639945        5.9204952156  MEMB      116             0.0000000000
     14551       116  PVCL2     H12E           36.8318733676       28.0291215535        5.7941210909  MEMB      116             0.0000000000
     14552       116  PVCL2     CB13           35.0513385790       26.9924032706        6.1716460243  MEMB      116             0.0000000000
     14553       116  PVCL2     H13D           34.5897323641       27.9048191214        6.6060863209  MEMB      116             0.0000000000
     14554       116  PVCL2     H13E           34.6393396411       26.0888071902        6.6697346903  MEMB      116             0.0000000000
     14555       116  PVCL2     CB14           34.6702122088       26.9410857774        4.5865814474  MEMB      116             0.0000000000
     14556       116  PVCL2     H14D           35.0618190139       27.8944227941        4.1717156722  MEMB      116             0.0000000000
     14557       116  PVCL2     H14E           33.5621415530       26.9227745036        4.5080642288  MEMB      116             0.0000000000
     14558       116  PVCL2     CB15           35.2460096171       25.8599376940        3.7329044607  MEMB      116             0.0000000000
     14559       116  PVCL2     H15D           34.7453869607       24.9237813857        4.0604854727  MEMB      116             0.0000000000
     14560       116  PVCL2     H15E           36.3529064476       25.8416751903        3.8265387079  MEMB      116             0.0000000000
     14561       116  PVCL2     CB16           34.8494681495       25.8850969260        2.2386811820  MEMB      116             0.0000000000
     14562       116  PVCL2     H16D           33.7494388407       25.7706194987        2.1330824994  MEMB      116             0.0000000000
     14563       116  PVCL2     H16E           35.1555980740       24.9292840723        1.7622052827  MEMB      116             0.0000000000
     14564       116  PVCL2     H16F           35.3236370854       26.7685869766        1.7602140358  MEMB      116             0.0000000000
     14565       116  PVCL2     CC3            33.2035335107       29.6271324558       17.0256600948  MEMB      116             0.0000000000
     14566       116  PVCL2     H3R            32.7599567502       28.7580736658       17.5569773642  MEMB      116             0.0000000000
     14567       116  PVCL2     H3S            34.3058688661       29.5226689795       17.1165750413  MEMB      116             0.0000000000
     14568       116  PVCL2     CC4            32.8737575504       29.5308268094       15.5213135493  MEMB      116             0.0000000000
     14569       116  PVCL2     H4R            33.3180069678       30.3907011023       14.9758046551  MEMB      116             0.0000000000
     14570       116  PVCL2     H4S            31.7836001808       29.6157155944       15.3246617362  MEMB      116             0.0000000000
     14571       116  PVCL2     CC5            33.3582831966       28.2551233432       14.8155855275  MEMB      116             0.0000000000
     14572       116  PVCL2     H5R            32.9198880416       27.3367234916       15.2613119802  MEMB      116             0.0000000000
     14573       116  PVCL2     H5S            34.4674771693       28.2291052097       14.8733151426  MEMB      116             0.0000000000
     14574       116  PVCL2     CC6            33.0473983437       28.3368149415       13.2756811383  MEMB      116             0.0000000000
     14575       116  PVCL2     H6R            33.6527982539       27.5778215251       12.7355504075  MEMB      116             0.0000000000
     14576       116  PVCL2     H6S            33.4551886825       29.3007191400       12.9029658863  MEMB      116             0.0000000000
     14577       116  PVCL2     CC7            31.5307241598       28.0934311635       12.8655896754  MEMB      116             0.0000000000
     14578       116  PVCL2     H7R            30.8760544889       28.4442377529       13.6918239585  MEMB      116             0.0000000000
     14579       116  PVCL2     H7S            31.5146373485       26.9855828165       12.7835277326  MEMB      116             0.0000000000
     14580       116  PVCL2     CC8            31.2418888638       28.6934541593       11.4778210457  MEMB      116             0.0000000000
     14581       116  PVCL2     H8R            30.5280894206       28.0777525933       10.8898387322  MEMB      116             0.0000000000
     14582       116  PVCL2     H8S            32.1984720507       28.5730636519       10.9257560765  MEMB      116             0.0000000000
     14583       116  PVCL2     CC9            30.7578200230       30.1730574220       11.8035875039  MEMB      116             0.0000000000
     14584       116  PVCL2     H9R            31.3468023193       30.5605524196       12.6622306300  MEMB      116             0.0000000000
     14585       116  PVCL2     H9S            29.6870945735       30.1215303643       12.0954991060  MEMB      116             0.0000000000
     14586       116  PVCL2     CC10           30.8732755746       31.1278582873       10.6420363546  MEMB      116             0.0000000000
     14587       116  PVCL2     H10R           30.2926965251       32.0673112750       10.7631851649  MEMB      116             0.0000000000
     14588       116  PVCL2     H10S           30.2824227430       30.8427529487        9.7454152488  MEMB      116             0.0000000000
     14589       116  PVCL2     CC11           32.1686786221       31.6116434733       10.1684691270  MEMB      116             0.0000000000
     14590       116  PVCL2     H11R           32.4000952760       32.5415469680       10.7085857235  MEMB      116             0.0000000000
     14591       116  PVCL2     CC12           32.8993023981       31.2054979355        9.0915842869  MEMB      116             0.0000000000
     14592       116  PVCL2     H12R           33.8765353029       31.7046109706        9.0147592367  MEMB      116             0.0000000000
     14593       116  PVCL2     CC13           32.4559363466       30.1499570028        8.1040510194  MEMB      116             0.0000000000
     14594       116  PVCL2     H13R           31.8776717089       29.3076049115        8.5403692214  MEMB      116             0.0000000000
     14595       116  PVCL2     H13S           33.3863358007       29.6367558755        7.7795477246  MEMB      116             0.0000000000
     14596       116  PVCL2     CC14           31.7233995628       30.6365678671        6.8454634036  MEMB      116             0.0000000000
     14597       116  PVCL2     H14R           30.8426913138       31.2313716784        7.1693179092  MEMB      116             0.0000000000
     14598       116  PVCL2     H14S           31.3130774957       29.8044416753        6.2342976247  MEMB      116             0.0000000000
     14599       116  PVCL2     CC15           32.5380800072       31.4042592896        5.7408644537  MEMB      116             0.0000000000
     14600       116  PVCL2     H15R           33.0317574044       32.3176637190        6.1362074134  MEMB      116             0.0000000000
     14601       116  PVCL2     H15S           31.7963527473       31.7075663601        4.9713409596  MEMB      116             0.0000000000
     14602       116  PVCL2     CC16           33.5925797381       30.5783859323        5.0901355343  MEMB      116             0.0000000000
     14603       116  PVCL2     H16R           33.0786856590       29.6147109055        4.8862629279  MEMB      116             0.0000000000
     14604       116  PVCL2     H16S           34.4902347512       30.5288366419        5.7428851457  MEMB      116             0.0000000000
     14605       116  PVCL2     CC17           34.0298212245       31.1588778546        3.6848374983  MEMB      116             0.0000000000
     14606       116  PVCL2     H17R           34.6097905965       32.0717828506        3.9389262659  MEMB      116             0.0000000000
     14607       116  PVCL2     H17S           33.1108977476       31.4076415530        3.1121102946  MEMB      116             0.0000000000
     14608       116  PVCL2     CC18           35.0213004520       30.2679837626        2.9222533237  MEMB      116             0.0000000000
     14609       116  PVCL2     H18R           34.5678667603       29.3583535917        2.4735962003  MEMB      116             0.0000000000
     14610       116  PVCL2     H18S           35.8212654428       30.0593365788        3.6644417658  MEMB      116             0.0000000000
     14611       116  PVCL2     H18T           35.6610570838       30.7534430593        2.1545546314  MEMB      116             0.0000000000
     14612       116  PVCL2     CD3            31.8475823482       35.3843473872       15.0104917736  MEMB      116             0.0000000000
     14613       116  PVCL2     H3X            31.8069446571       35.3259727573       16.1192126535  MEMB      116             0.0000000000
     14614       116  PVCL2     H3Y            32.1193839852       36.4426579699       14.8094354339  MEMB      116             0.0000000000
     14615       116  PVCL2     CD4            33.0696981458       34.5682232686       14.5130298964  MEMB      116             0.0000000000
     14616       116  PVCL2     H4X            32.9174759607       33.5309939448       14.8808679574  MEMB      116             0.0000000000
     14617       116  PVCL2     H4Y            33.8359289720       35.0904881641       15.1249533109  MEMB      116             0.0000000000
     14618       116  PVCL2     CD5            33.3182791384       34.5290937304       13.0131806960  MEMB      116             0.0000000000
     14619       116  PVCL2     H5X            32.9186702300       35.4395765338       12.5175450069  MEMB      116             0.0000000000
     14620       116  PVCL2     H5Y            32.6628229263       33.6992863873       12.6724198582  MEMB      116             0.0000000000
     14621       116  PVCL2     CD6            34.7970350363       34.2555855179       12.5334673803  MEMB      116             0.0000000000
     14622       116  PVCL2     H6X            35.1488105982       33.2269389923       12.7625114055  MEMB      116             0.0000000000
     14623       116  PVCL2     H6Y            35.5528483581       34.8835007571       13.0519165406  MEMB      116             0.0000000000
     14624       116  PVCL2     CD7            34.9006496489       34.7147494020       11.0561241896  MEMB      116             0.0000000000
     14625       116  PVCL2     H7X            33.9824792654       34.4245205206       10.5020025725  MEMB      116             0.0000000000
     14626       116  PVCL2     H7Y            35.7170356227       34.0749225747       10.6580589582  MEMB      116             0.0000000000
     14627       116  PVCL2     CD8            35.3979378259       36.1571723057       10.9564383140  MEMB      116             0.0000000000
     14628       116  PVCL2     H8X            36.3419107671       36.3837432925       11.4967177356  MEMB      116             0.0000000000
     14629       116  PVCL2     H8Y            34.7116210303       36.9080737700       11.4030229892  MEMB      116             0.0000000000
     14630       116  PVCL2     CD9            35.6033068419       36.6614199993        9.4957764060  MEMB      116             0.0000000000
     14631       116  PVCL2     H9X            35.7903046253       37.7453538842        9.6521104163  MEMB      116             0.0000000000
     14632       116  PVCL2     H9Y            34.7267084474       36.5555350998        8.8214734597  MEMB      116             0.0000000000
     14633       116  PVCL2     CD10           36.7822339915       35.9222276020        8.8401901585  MEMB      116             0.0000000000
     14634       116  PVCL2     H10X           37.5787048230       35.7732613943        9.6002985781  MEMB      116             0.0000000000
     14635       116  PVCL2     H10Y           37.2936462763       36.6007171596        8.1243475896  MEMB      116             0.0000000000
     14636       116  PVCL2     CD11           36.5006669286       34.5623419883        8.1598714793  MEMB      116             0.0000000000
     14637       116  PVCL2     H11X           36.4233670749       33.7743284567        8.9392177714  MEMB      116             0.0000000000
     14638       116  PVCL2     H11Y           37.4001568770       34.2962300152        7.5645364133  MEMB      116             0.0000000000
     14639       116  PVCL2     CD12           35.3009301900       34.6048014239        7.1448115984  MEMB      116             0.0000000000
     14640       116  PVCL2     H12X           34.3032050314       34.8272805488        7.5799761485  MEMB      116             0.0000000000
     14641       116  PVCL2     H12Y           35.1740429929       33.6106035846        6.6654447878  MEMB      116             0.0000000000
     14642       116  PVCL2     CD13           35.5998047851       35.6583634216        6.0618890735  MEMB      116             0.0000000000
     14643       116  PVCL2     H13X           36.5552016875       35.2953808928        5.6262508817  MEMB      116             0.0000000000
     14644       116  PVCL2     H13Y           35.7217461215       36.6603309227        6.5261232338  MEMB      116             0.0000000000
     14645       116  PVCL2     CD14           34.5182688419       35.7867895770        5.0053458919  MEMB      116             0.0000000000
     14646       116  PVCL2     H14X           33.8479905115       36.6246342677        5.2935530999  MEMB      116             0.0000000000
     14647       116  PVCL2     H14Y           33.8092056390       34.9459366973        4.8487674467  MEMB      116             0.0000000000
     14648       116  PVCL2     CD15           35.0338547311       36.1264078579        3.5321710947  MEMB      116             0.0000000000
     14649       116  PVCL2     H15X           35.5305045767       37.1162694198        3.6206782676  MEMB      116             0.0000000000
     14650       116  PVCL2     H15Y           34.1972042205       36.4234281596        2.8642522523  MEMB      116             0.0000000000
     14651       116  PVCL2     CD16           35.9111471562       35.0592186041        2.9050423290  MEMB      116             0.0000000000
     14652       116  PVCL2     H16X           35.8187978161       35.2293867685        1.8110419012  MEMB      116             0.0000000000
     14653       116  PVCL2     H16Y           35.6246870139       34.0234609891        3.1869422281  MEMB      116             0.0000000000
     14654       116  PVCL2     H16Z           36.9872614566       35.2074166455        3.1381440751  MEMB      116             0.0000000000
     14655       117  PMPE      N              44.0527047934       19.9377808876       16.3828689696  MEMB      117             0.0000000000
     14656       117  PMPE      HN1            43.8508894735       19.8492133422       15.3664900287  MEMB      117             0.0000000000
     14657       117  PMPE      HN2            44.5861074738       20.8188651073       16.5269941931  MEMB      117             0.0000000000
     14658       117  PMPE      HN3            44.6746209567       19.1479400133       16.6492739687  MEMB      117             0.0000000000
     14659       117  PMPE      C12            42.8080513469       20.0912501702       17.2156304893  MEMB      117             0.0000000000
     14660       117  PMPE      H12A           42.0814593756       19.3623740466       16.7971513454  MEMB      117             0.0000000000
     14661       117  PMPE      H12B           42.5666155837       21.1732793587       17.2880363766  MEMB      117             0.0000000000
     14662       117  PMPE      C11            43.1494516541       19.4521517268       18.6234421808  MEMB      117             0.0000000000
     14663       117  PMPE      H11A           43.4399418171       18.3902146749       18.4743578397  MEMB      117             0.0000000000
     14664       117  PMPE      H11B           42.1960056422       19.4805657688       19.1930511306  MEMB      117             0.0000000000
     14665       117  PMPE      P              44.3037439606       21.2928781615       20.0108148130  MEMB      117             0.0000000000
     14666       117  PMPE      O13            43.9664023112       21.1828091649       21.4354481871  MEMB      117             0.0000000000
     14667       117  PMPE      O14            43.5848027513       22.2150715330       19.1341816853  MEMB      117             0.0000000000
     14668       117  PMPE      O11            45.8108467432       21.7190614362       19.9480744833  MEMB      117             0.0000000000
     14669       117  PMPE      O12            44.2734564227       19.9449897061       19.2495391599  MEMB      117             0.0000000000
     14670       117  PMPE      C1             46.7396323883       21.1612139232       18.9412427415  MEMB      117             0.0000000000
     14671       117  PMPE      HA             46.3060780208       20.3129362228       18.3695991011  MEMB      117             0.0000000000
     14672       117  PMPE      HB             47.6490817806       20.7852392416       19.4568644560  MEMB      117             0.0000000000
     14673       117  PMPE      C2             47.1620587263       22.2757881801       17.9460788824  MEMB      117             0.0000000000
     14674       117  PMPE      HS             47.2901150488       23.1936630566       18.5588009664  MEMB      117             0.0000000000
     14675       117  PMPE      O21            46.1313029798       22.4757363395       16.9299921550  MEMB      117             0.0000000000
     14676       117  PMPE      C21            45.4052382617       23.6304774628       16.8747170285  MEMB      117             0.0000000000
     14677       117  PMPE      O22            45.5341673012       24.4893154215       17.7767745827  MEMB      117             0.0000000000
     14678       117  PMPE      C22            44.5573454902       23.8456561129       15.6323055434  MEMB      117             0.0000000000
     14679       117  PMPE      H2R            43.4740745417       23.7597906261       15.8635458667  MEMB      117             0.0000000000
     14680       117  PMPE      H2S            44.8463618742       23.0501734662       14.9125850692  MEMB      117             0.0000000000
     14681       117  PMPE      C3             48.4169844403       21.8158202349       17.1221883970  MEMB      117             0.0000000000
     14682       117  PMPE      HX             49.2734001920       21.8781129730       17.8271651835  MEMB      117             0.0000000000
     14683       117  PMPE      HY             48.8705079112       22.6027398636       16.4823486075  MEMB      117             0.0000000000
     14684       117  PMPE      O31            48.2828806779       20.4818557727       16.5829592538  MEMB      117             0.0000000000
     14685       117  PMPE      C31            48.0123224420       20.4094538630       15.3240936782  MEMB      117             0.0000000000
     14686       117  PMPE      O32            47.7623728163       21.3669421788       14.6102783484  MEMB      117             0.0000000000
     14687       117  PMPE      C32            47.9769085941       19.0117273367       14.7746455313  MEMB      117             0.0000000000
     14688       117  PMPE      H2X            46.9614150604       18.6079876830       14.9748662538  MEMB      117             0.0000000000
     14689       117  PMPE      H2Y            48.7525272349       18.3232016838       15.1729778101  MEMB      117             0.0000000000
     14690       117  PMPE      C23            44.9191958234       25.1964575093       15.1223945816  MEMB      117             0.0000000000
     14691       117  PMPE      H3R            44.7370331362       25.9202825301       15.9453254307  MEMB      117             0.0000000000
     14692       117  PMPE      H3S            44.1034767368       25.4410488387       14.4088831494  MEMB      117             0.0000000000
     14693       117  PMPE      C24            46.3797287087       25.3422389990       14.5242877573  MEMB      117             0.0000000000
     14694       117  PMPE      H4R            47.1118884597       24.8674223881       15.2119015579  MEMB      117             0.0000000000
     14695       117  PMPE      H4S            46.4585536001       26.4489724862       14.5812869184  MEMB      117             0.0000000000
     14696       117  PMPE      C25            46.5160709137       24.9923772018       13.0284044517  MEMB      117             0.0000000000
     14697       117  PMPE      H5R            45.8498942649       24.1198366910       12.8575170383  MEMB      117             0.0000000000
     14698       117  PMPE      H5S            47.5886370904       24.9277932518       12.7460010485  MEMB      117             0.0000000000
     14699       117  PMPE      C26            45.7881710946       26.1520032821       12.2258692035  MEMB      117             0.0000000000
     14700       117  PMPE      H6R            46.6147211137       26.8812713644       12.0869310650  MEMB      117             0.0000000000
     14701       117  PMPE      H6S            44.9879355426       26.6456481184       12.8176960584  MEMB      117             0.0000000000
     14702       117  PMPE      C27            45.2329480746       25.7056563130       10.9438512050  MEMB      117             0.0000000000
     14703       117  PMPE      H7R            46.1458218860       25.2408894969       10.5137655324  MEMB      117             0.0000000000
     14704       117  PMPE      H7S            44.9510158178       26.5665224183       10.3006214688  MEMB      117             0.0000000000
     14705       117  PMPE      C28            44.0428119746       24.6487286151       11.0234890277  MEMB      117             0.0000000000
     14706       117  PMPE      H8R            43.2775157885       24.8938923449       11.7906506907  MEMB      117             0.0000000000
     14707       117  PMPE      H8S            44.5000058881       23.6699614811       11.2829298482  MEMB      117             0.0000000000
     14708       117  PMPE      C29            43.3137682862       24.5615324798        9.6926035458  MEMB      117             0.0000000000
     14709       117  PMPE      H9R            42.4495397817       25.2538642392        9.6025662271  MEMB      117             0.0000000000
     14710       117  PMPE      C217           42.8960284418       23.1033154935        9.3067097909  MEMB      117             0.0000000000
     14711       117  PMPE      H17R           42.0098818128       23.0452834428        8.6868188534  MEMB      117             0.0000000000
     14712       117  PMPE      H17S           43.5177689659       22.2767231556        9.6277594517  MEMB      117             0.0000000000
     14713       117  PMPE      C210           43.9159183456       23.9530860661        8.5229039741  MEMB      117             0.0000000000
     14714       117  PMPE      H10R           43.3925554630       24.3124552490        7.6111659772  MEMB      117             0.0000000000
     14715       117  PMPE      C211           45.2444091641       23.1598367800        8.4866019006  MEMB      117             0.0000000000
     14716       117  PMPE      H11R           44.9952602165       22.1142459552        8.2055583849  MEMB      117             0.0000000000
     14717       117  PMPE      H11S           45.7285735434       23.0329310225        9.4784690251  MEMB      117             0.0000000000
     14718       117  PMPE      C212           46.2134480504       23.8106272179        7.4681138028  MEMB      117             0.0000000000
     14719       117  PMPE      H12R           47.1902951029       23.2814479041        7.4603681661  MEMB      117             0.0000000000
     14720       117  PMPE      H12S           46.3161466812       24.8321374147        7.8927201646  MEMB      117             0.0000000000
     14721       117  PMPE      C213           45.7613315351       23.9347926284        6.0564348638  MEMB      117             0.0000000000
     14722       117  PMPE      H13R           44.9228434619       24.6613665392        5.9985637926  MEMB      117             0.0000000000
     14723       117  PMPE      H13S           45.3602508632       22.9310141445        5.7997559411  MEMB      117             0.0000000000
     14724       117  PMPE      C214           46.8186326414       24.3637072808        4.9663822671  MEMB      117             0.0000000000
     14725       117  PMPE      H14R           47.7232340995       23.7332987742        5.1027715722  MEMB      117             0.0000000000
     14726       117  PMPE      H14S           47.0364711718       25.4454657236        5.0954795134  MEMB      117             0.0000000000
     14727       117  PMPE      C215           46.3333294392       24.2797484937        3.4776115834  MEMB      117             0.0000000000
     14728       117  PMPE      H15R           46.0020460036       23.2447068618        3.2468278859  MEMB      117             0.0000000000
     14729       117  PMPE      H15S           47.1833621117       24.5781199673        2.8274276063  MEMB      117             0.0000000000
     14730       117  PMPE      C216           45.0805437913       25.0878972484        3.2699494614  MEMB      117             0.0000000000
     14731       117  PMPE      H16R           44.5382734985       24.6754982905        2.3923437442  MEMB      117             0.0000000000
     14732       117  PMPE      H16S           44.3651306655       24.9633743090        4.1107822869  MEMB      117             0.0000000000
     14733       117  PMPE      H16T           45.3103333913       26.1599986564        3.0907422463  MEMB      117             0.0000000000
     14734       117  PMPE      C33            48.1920373752       19.1582768227       13.2184171098  MEMB      117             0.0000000000
     14735       117  PMPE      H3X            48.5934590984       18.2592107969       12.7037698471  MEMB      117             0.0000000000
     14736       117  PMPE      H3Y            48.6836017888       20.1262765707       12.9824894869  MEMB      117             0.0000000000
     14737       117  PMPE      C34            46.8127967275       19.2654022756       12.5105669842  MEMB      117             0.0000000000
     14738       117  PMPE      H4X            46.2179501853       20.0890540857       12.9600959076  MEMB      117             0.0000000000
     14739       117  PMPE      H4Y            46.2590584047       18.3358638742       12.7628633858  MEMB      117             0.0000000000
     14740       117  PMPE      C35            46.9390148973       19.5281010448       10.9916020650  MEMB      117             0.0000000000
     14741       117  PMPE      H5X            47.2974578741       18.6643675200       10.3917657971  MEMB      117             0.0000000000
     14742       117  PMPE      H5Y            47.6471394738       20.3450771125       10.7358080652  MEMB      117             0.0000000000
     14743       117  PMPE      C36            45.5662389357       19.8539265595       10.5216829583  MEMB      117             0.0000000000
     14744       117  PMPE      H6X            45.6024575012       19.7888771992        9.4131806500  MEMB      117             0.0000000000
     14745       117  PMPE      H6Y            45.5352211240       20.9253899902       10.8137875795  MEMB      117             0.0000000000
     14746       117  PMPE      C37            44.3704474247       19.0009844441       11.0475228830  MEMB      117             0.0000000000
     14747       117  PMPE      H7X            44.1951395948       19.1046916078       12.1396916106  MEMB      117             0.0000000000
     14748       117  PMPE      H7Y            44.6183745342       17.9271263247       10.9072300020  MEMB      117             0.0000000000
     14749       117  PMPE      C38            43.1187895960       19.4745530879       10.2794632166  MEMB      117             0.0000000000
     14750       117  PMPE      H8X            42.8700568226       20.5571960529       10.2610990070  MEMB      117             0.0000000000
     14751       117  PMPE      H8Y            42.3851675231       18.9540529363       10.9315362372  MEMB      117             0.0000000000
     14752       117  PMPE      C39            43.0144650101       18.8199165790        8.8516834398  MEMB      117             0.0000000000
     14753       117  PMPE      H9X            42.7298402200       17.8019443111        9.1937988056  MEMB      117             0.0000000000
     14754       117  PMPE      H9Y            43.9349456966       18.7905276078        8.2302554523  MEMB      117             0.0000000000
     14755       117  PMPE      C310           41.7533097390       19.4775641337        8.2118667070  MEMB      117             0.0000000000
     14756       117  PMPE      H10X           41.9277408060       20.5620622831        8.0452581357  MEMB      117             0.0000000000
     14757       117  PMPE      H10Y           40.9182945478       19.2370258187        8.9041178128  MEMB      117             0.0000000000
     14758       117  PMPE      C311           41.3799790880       18.8197917397        6.8324291571  MEMB      117             0.0000000000
     14759       117  PMPE      H11X           40.5272263155       19.4363946211        6.4761505710  MEMB      117             0.0000000000
     14760       117  PMPE      H11Y           40.9771118866       17.7891770025        6.9316885613  MEMB      117             0.0000000000
     14761       117  PMPE      C312           42.4804558349       18.8971300314        5.7576019928  MEMB      117             0.0000000000
     14762       117  PMPE      H12X           42.0165459773       18.5767787010        4.8002710632  MEMB      117             0.0000000000
     14763       117  PMPE      H12Y           43.2580691086       18.1401316261        5.9954932364  MEMB      117             0.0000000000
     14764       117  PMPE      C313           43.0821808388       20.3361815122        5.5517508709  MEMB      117             0.0000000000
     14765       117  PMPE      H13X           43.8456147040       20.2495486175        4.7492643502  MEMB      117             0.0000000000
     14766       117  PMPE      H13Y           43.6689766270       20.5720642902        6.4651789457  MEMB      117             0.0000000000
     14767       117  PMPE      C314           42.0808303987       21.4730831217        5.3849835520  MEMB      117             0.0000000000
     14768       117  PMPE      H14X           42.6932369163       22.4000532490        5.3826046178  MEMB      117             0.0000000000
     14769       117  PMPE      H14Y           41.4610065539       21.5203674230        6.3057999550  MEMB      117             0.0000000000
     14770       117  PMPE      C315           41.1771336608       21.2534096977        4.1894885988  MEMB      117             0.0000000000
     14771       117  PMPE      H15X           40.3815700037       20.4859559872        4.3009078079  MEMB      117             0.0000000000
     14772       117  PMPE      H15Y           41.8074685769       20.8676072050        3.3599373869  MEMB      117             0.0000000000
     14773       117  PMPE      C316           40.6087572307       22.6334204397        3.6331397509  MEMB      117             0.0000000000
     14774       117  PMPE      H16X           40.2916040952       22.4746925699        2.5802667842  MEMB      117             0.0000000000
     14775       117  PMPE      H16Y           41.3259023767       23.4672536841        3.7904483332  MEMB      117             0.0000000000
     14776       117  PMPE      H16Z           39.6113004910       22.8964051601        4.0457405179  MEMB      117             0.0000000000
     14777       118  PMPE      N             -50.5337953341       -9.5824769779       19.9778067441  MEMB      118             0.0000000000
     14778       118  PMPE      HN1           -51.2694485756       -9.5739197069       19.2427277391  MEMB      118             0.0000000000
     14779       118  PMPE      HN2           -49.8131250155      -10.1822847501       19.5278457725  MEMB      118             0.0000000000
     14780       118  PMPE      HN3           -50.7521227898       -9.9310018502       20.9330363492  MEMB      118             0.0000000000
     14781       118  PMPE      C12           -50.0211209980       -8.2489406883       20.3337188066  MEMB      118             0.0000000000
     14782       118  PMPE      H12A          -49.2635672960       -8.5030381525       21.1056437649  MEMB      118             0.0000000000
     14783       118  PMPE      H12B          -50.9504788882       -7.7176317343       20.6309148941  MEMB      118             0.0000000000
     14784       118  PMPE      C11           -49.3696223765       -7.4886384401       19.2053135920  MEMB      118             0.0000000000
     14785       118  PMPE      H11A          -49.8735130993       -6.5041794922       19.0992202909  MEMB      118             0.0000000000
     14786       118  PMPE      H11B          -49.6164027225       -8.0678292254       18.2899128331  MEMB      118             0.0000000000
     14787       118  PMPE      P             -47.1959670731       -6.2707280702       18.5004173667  MEMB      118             0.0000000000
     14788       118  PMPE      O13           -45.7698630053       -6.5415251352       18.6597832969  MEMB      118             0.0000000000
     14789       118  PMPE      O14           -47.6390478182       -4.9176829611       18.8993405936  MEMB      118             0.0000000000
     14790       118  PMPE      O11           -47.6249990138       -6.6117006932       17.0322063074  MEMB      118             0.0000000000
     14791       118  PMPE      O12           -47.9337699829       -7.4539095910       19.3914132931  MEMB      118             0.0000000000
     14792       118  PMPE      C1            -47.1465865971       -7.8312615081       16.4310269323  MEMB      118             0.0000000000
     14793       118  PMPE      HA            -47.8028613930       -8.6380460780       16.8218248086  MEMB      118             0.0000000000
     14794       118  PMPE      HB            -46.1069323601       -8.0520828111       16.7545666734  MEMB      118             0.0000000000
     14795       118  PMPE      C2            -47.2385593497       -7.6313661291       14.9126183277  MEMB      118             0.0000000000
     14796       118  PMPE      HS            -46.7106432607       -6.7088735109       14.5891480946  MEMB      118             0.0000000000
     14797       118  PMPE      O21           -48.6130391217       -7.4620346408       14.6634409510  MEMB      118             0.0000000000
     14798       118  PMPE      C21           -49.0082939412       -6.7286387245       13.6490611828  MEMB      118             0.0000000000
     14799       118  PMPE      O22           -48.2411297952       -6.0302745620       12.9554686399  MEMB      118             0.0000000000
     14800       118  PMPE      C22           -50.5347908353       -6.8404515576       13.5412211051  MEMB      118             0.0000000000
     14801       118  PMPE      H2R           -50.8061150767       -5.8555706293       13.9779290771  MEMB      118             0.0000000000
     14802       118  PMPE      H2S           -50.9512828752       -7.6537261964       14.1732338655  MEMB      118             0.0000000000
     14803       118  PMPE      C3            -46.6355311364       -8.7673724098       14.0694246966  MEMB      118             0.0000000000
     14804       118  PMPE      HX            -47.1037862476       -9.7503103916       14.2905382338  MEMB      118             0.0000000000
     14805       118  PMPE      HY            -45.5787148499       -8.9551360777       14.3561390733  MEMB      118             0.0000000000
     14806       118  PMPE      O31           -46.7133007706       -8.6237219258       12.6762792974  MEMB      118             0.0000000000
     14807       118  PMPE      C31           -45.9310391424       -7.7098921184       12.0692190074  MEMB      118             0.0000000000
     14808       118  PMPE      O32           -44.9806940799       -7.2206892748       12.6296281674  MEMB      118             0.0000000000
     14809       118  PMPE      C32           -46.4182527802       -7.3949146732       10.7440950822  MEMB      118             0.0000000000
     14810       118  PMPE      H2X           -47.3589890243       -6.8256513931       10.9030787564  MEMB      118             0.0000000000
     14811       118  PMPE      H2Y           -46.7103019619       -8.3050411115       10.1777924311  MEMB      118             0.0000000000
     14812       118  PMPE      C23           -50.7812981249       -7.1665248401       12.0964177370  MEMB      118             0.0000000000
     14813       118  PMPE      H3R           -51.8547433476       -7.3819863411       11.9077043087  MEMB      118             0.0000000000
     14814       118  PMPE      H3S           -50.2530182940       -8.0395328103       11.6569879518  MEMB      118             0.0000000000
     14815       118  PMPE      C24           -50.7140595155       -6.0006086572       11.1030349607  MEMB      118             0.0000000000
     14816       118  PMPE      H4R           -49.6753258670       -5.6440106267       10.9351320391  MEMB      118             0.0000000000
     14817       118  PMPE      H4S           -51.3075017633       -5.1957621578       11.5871520691  MEMB      118             0.0000000000
     14818       118  PMPE      C25           -51.3626586092       -6.0954404339        9.7079634561  MEMB      118             0.0000000000
     14819       118  PMPE      H5R           -51.4182290874       -5.0733426729        9.2760500357  MEMB      118             0.0000000000
     14820       118  PMPE      H5S           -52.3925503463       -6.4600233438        9.9097635814  MEMB      118             0.0000000000
     14821       118  PMPE      C26           -50.6241536239       -7.0632658798        8.7510596060  MEMB      118             0.0000000000
     14822       118  PMPE      H6R           -50.5016684902       -8.0816054081        9.1780289397  MEMB      118             0.0000000000
     14823       118  PMPE      H6S           -49.5906904356       -6.6865218649        8.5950507672  MEMB      118             0.0000000000
     14824       118  PMPE      C27           -51.0543094702       -7.0709264148        7.2911679731  MEMB      118             0.0000000000
     14825       118  PMPE      H7R           -51.2560387590       -6.0262901536        6.9712284280  MEMB      118             0.0000000000
     14826       118  PMPE      H7S           -52.0033097348       -7.6337579851        7.1610129141  MEMB      118             0.0000000000
     14827       118  PMPE      C28           -49.9400207591       -7.4886213883        6.3187111019  MEMB      118             0.0000000000
     14828       118  PMPE      H8R           -49.1098734925       -6.7526118487        6.3775883159  MEMB      118             0.0000000000
     14829       118  PMPE      H8S           -50.3522893276       -7.4968229999        5.2870680467  MEMB      118             0.0000000000
     14830       118  PMPE      C29           -49.2939889599       -8.8124955788        6.5625208633  MEMB      118             0.0000000000
     14831       118  PMPE      H9R           -49.9645442715       -9.6967583269        6.6150168996  MEMB      118             0.0000000000
     14832       118  PMPE      C217          -47.9958638227       -8.9631696670        7.3918319028  MEMB      118             0.0000000000
     14833       118  PMPE      H17R          -48.1339039131       -9.8713718885        7.9654198938  MEMB      118             0.0000000000
     14834       118  PMPE      H17S          -47.9250331607       -7.9976146051        7.8771932816  MEMB      118             0.0000000000
     14835       118  PMPE      C210          -47.9767590853       -9.1078789154        5.8492826663  MEMB      118             0.0000000000
     14836       118  PMPE      H10R          -47.7879702767      -10.1601499293        5.5469485524  MEMB      118             0.0000000000
     14837       118  PMPE      C211          -47.1802155326       -8.0197072714        5.1854226718  MEMB      118             0.0000000000
     14838       118  PMPE      H11R          -46.1624481941       -8.4557525091        5.0941251050  MEMB      118             0.0000000000
     14839       118  PMPE      H11S          -47.1182764529       -7.2003098869        5.9331338906  MEMB      118             0.0000000000
     14840       118  PMPE      C212          -47.7680027398       -7.3986388699        3.9388137442  MEMB      118             0.0000000000
     14841       118  PMPE      H12R          -47.2587124233       -6.4113300693        3.9516823049  MEMB      118             0.0000000000
     14842       118  PMPE      H12S          -48.8752719507       -7.4450043613        3.8605441748  MEMB      118             0.0000000000
     14843       118  PMPE      C213          -47.0679038674       -8.1703138672        2.7769105942  MEMB      118             0.0000000000
     14844       118  PMPE      H13R          -47.5224224082       -9.1840563632        2.7846530493  MEMB      118             0.0000000000
     14845       118  PMPE      H13S          -45.9748823843       -8.1377223958        2.9732848482  MEMB      118             0.0000000000
     14846       118  PMPE      C214          -47.2151010491       -7.5439797560        1.4070928458  MEMB      118             0.0000000000
     14847       118  PMPE      H14R          -47.1064092207       -6.4448642558        1.5273105342  MEMB      118             0.0000000000
     14848       118  PMPE      H14S          -48.2267423289       -7.8232094503        1.0424909894  MEMB      118             0.0000000000
     14849       118  PMPE      C215          -46.3350641757       -8.0783449606        0.2666122108  MEMB      118             0.0000000000
     14850       118  PMPE      H15R          -45.3526344518       -7.5596313549        0.2571851164  MEMB      118             0.0000000000
     14851       118  PMPE      H15S          -46.7547999365       -7.9363324736       -0.7521983788  MEMB      118             0.0000000000
     14852       118  PMPE      C216          -46.0495809726       -9.5891593447        0.2467897394  MEMB      118             0.0000000000
     14853       118  PMPE      H16R          -45.5821424879       -9.9792634137       -0.6825326674  MEMB      118             0.0000000000
     14854       118  PMPE      H16S          -45.4049512532       -9.8779968599        1.1043133077  MEMB      118             0.0000000000
     14855       118  PMPE      H16T          -47.0045914477      -10.1469063328        0.3525920113  MEMB      118             0.0000000000
     14856       118  PMPE      C33           -45.4316034551       -6.5205000399        9.9576329099  MEMB      118             0.0000000000
     14857       118  PMPE      H3X           -44.4019952987       -6.9279200851       10.0483898705  MEMB      118             0.0000000000
     14858       118  PMPE      H3Y           -45.2513823943       -5.5803657739       10.5215378308  MEMB      118             0.0000000000
     14859       118  PMPE      C34           -45.8774498864       -6.1838653814        8.5052175450  MEMB      118             0.0000000000
     14860       118  PMPE      H4X           -46.9635927626       -6.0040317173        8.6544636505  MEMB      118             0.0000000000
     14861       118  PMPE      H4Y           -45.6947074864       -7.0629347725        7.8508756882  MEMB      118             0.0000000000
     14862       118  PMPE      C35           -45.0329142619       -5.0055358172        7.7989979906  MEMB      118             0.0000000000
     14863       118  PMPE      H5X           -45.3398976837       -5.0254605500        6.7314379241  MEMB      118             0.0000000000
     14864       118  PMPE      H5Y           -43.9506257539       -5.2366247512        7.8968280619  MEMB      118             0.0000000000
     14865       118  PMPE      C36           -45.2370622079       -3.5949152620        8.4920140714  MEMB      118             0.0000000000
     14866       118  PMPE      H6X           -44.9398089912       -2.8435526108        7.7295084606  MEMB      118             0.0000000000
     14867       118  PMPE      H6Y           -44.5067349148       -3.6264711596        9.3286432900  MEMB      118             0.0000000000
     14868       118  PMPE      C37           -46.7057425147       -3.2345046764        8.9545890921  MEMB      118             0.0000000000
     14869       118  PMPE      H7X           -46.7337794353       -2.3210239939        9.5863229663  MEMB      118             0.0000000000
     14870       118  PMPE      H7Y           -47.0494700449       -4.0940494930        9.5688814481  MEMB      118             0.0000000000
     14871       118  PMPE      C38           -47.6448722267       -2.9791334893        7.7735084881  MEMB      118             0.0000000000
     14872       118  PMPE      H8X           -47.5365456032       -3.8153602960        7.0501054222  MEMB      118             0.0000000000
     14873       118  PMPE      H8Y           -47.3177945574       -2.0897431576        7.1935720606  MEMB      118             0.0000000000
     14874       118  PMPE      C39           -49.1027416017       -2.8175051867        8.1530763214  MEMB      118             0.0000000000
     14875       118  PMPE      H9X           -49.4116173905       -2.0845015005        8.9287201630  MEMB      118             0.0000000000
     14876       118  PMPE      H9Y           -49.3949770338       -3.8339442584        8.4933278598  MEMB      118             0.0000000000
     14877       118  PMPE      C310          -50.0907768349       -2.4926623573        7.0202242957  MEMB      118             0.0000000000
     14878       118  PMPE      H10X          -49.9018449718       -1.4208392639        6.7970178402  MEMB      118             0.0000000000
     14879       118  PMPE      H10Y          -51.1620819624       -2.6343341316        7.2782079834  MEMB      118             0.0000000000
     14880       118  PMPE      C311          -50.1047004002       -3.3988477932        5.6847423252  MEMB      118             0.0000000000
     14881       118  PMPE      H11X          -50.6500593891       -4.2522232726        6.1415298605  MEMB      118             0.0000000000
     14882       118  PMPE      H11Y          -49.0823264574       -3.7212244389        5.3929449373  MEMB      118             0.0000000000
     14883       118  PMPE      C312          -50.7905426742       -2.8493224855        4.4375968297  MEMB      118             0.0000000000
     14884       118  PMPE      H12X          -50.2656161874       -1.9032276642        4.1852522982  MEMB      118             0.0000000000
     14885       118  PMPE      H12Y          -51.8047507937       -2.4451060348        4.6432947974  MEMB      118             0.0000000000
     14886       118  PMPE      C313          -50.7196723782       -3.7714267115        3.2498857901  MEMB      118             0.0000000000
     14887       118  PMPE      H13X          -49.6575229290       -3.8788670332        2.9422878984  MEMB      118             0.0000000000
     14888       118  PMPE      H13Y          -51.2995879706       -3.3268681365        2.4129937031  MEMB      118             0.0000000000
     14889       118  PMPE      C314          -51.3288662216       -5.1336488596        3.5001173646  MEMB      118             0.0000000000
     14890       118  PMPE      H14X          -52.3020063246       -4.9402515389        4.0000333953  MEMB      118             0.0000000000
     14891       118  PMPE      H14Y          -50.7560488298       -5.7732451300        4.2051823699  MEMB      118             0.0000000000
     14892       118  PMPE      C315          -51.5987091379       -5.8650492745        2.1833613862  MEMB      118             0.0000000000
     14893       118  PMPE      H15X          -50.6348975511       -6.2767878907        1.8147690816  MEMB      118             0.0000000000
     14894       118  PMPE      H15Y          -52.0477874685       -5.1386822347        1.4726991723  MEMB      118             0.0000000000
     14895       118  PMPE      C316          -52.6892545178       -6.9982647722        2.3423249554  MEMB      118             0.0000000000
     14896       118  PMPE      H16X          -53.6239145817       -6.5680019467        2.7613789162  MEMB      118             0.0000000000
     14897       118  PMPE      H16Y          -52.2996295638       -7.8698270243        2.9105617828  MEMB      118             0.0000000000
     14898       118  PMPE      H16Z          -53.0524179160       -7.2230016951        1.3166914482  MEMB      118             0.0000000000
     14899       119  PMPE      N              49.1031184380      -16.2944211239       19.0769162752  MEMB      119             0.0000000000
     14900       119  PMPE      HN1            50.0897486606      -16.5851989086       18.9232628223  MEMB      119             0.0000000000
     14901       119  PMPE      HN2            48.6534488578      -16.3365058345       18.1400992942  MEMB      119             0.0000000000
     14902       119  PMPE      HN3            49.0977948688      -15.2898422424       19.3459754059  MEMB      119             0.0000000000
     14903       119  PMPE      C12            48.4108049496      -17.2000727182       20.0492914344  MEMB      119             0.0000000000
     14904       119  PMPE      H12A           48.8913638719      -17.0025190655       21.0313080375  MEMB      119             0.0000000000
     14905       119  PMPE      H12B           48.6905017214      -18.2144194818       19.6926523185  MEMB      119             0.0000000000
     14906       119  PMPE      C11            46.8769266892      -16.9850233839       20.0846442084  MEMB      119             0.0000000000
     14907       119  PMPE      H11A           46.6282012870      -15.9393137202       20.3656210993  MEMB      119             0.0000000000
     14908       119  PMPE      H11B           46.5560734299      -17.7560612905       20.8173615504  MEMB      119             0.0000000000
     14909       119  PMPE      P              44.7102418091      -17.0637337651       18.6311601523  MEMB      119             0.0000000000
     14910       119  PMPE      O13            44.0637359203      -16.4942044774       19.8018355666  MEMB      119             0.0000000000
     14911       119  PMPE      O14            44.0987354421      -18.2897679328       18.1726429963  MEMB      119             0.0000000000
     14912       119  PMPE      O11            44.6755220629      -16.0789994030       17.3535150611  MEMB      119             0.0000000000
     14913       119  PMPE      O12            46.2939746870      -17.3123603971       18.8299943063  MEMB      119             0.0000000000
     14914       119  PMPE      C1             45.9303409661      -15.6943817858       16.7507383404  MEMB      119             0.0000000000
     14915       119  PMPE      HA             46.5997966310      -16.5792843889       16.6950828581  MEMB      119             0.0000000000
     14916       119  PMPE      HB             46.4787145622      -14.9656375055       17.3851979978  MEMB      119             0.0000000000
     14917       119  PMPE      C2             45.7019143096      -15.1331441494       15.3326636134  MEMB      119             0.0000000000
     14918       119  PMPE      HS             45.0259505514      -14.2609558978       15.4618211182  MEMB      119             0.0000000000
     14919       119  PMPE      O21            45.0201765860      -16.1016287354       14.5358704114  MEMB      119             0.0000000000
     14920       119  PMPE      C21            44.4513586785      -15.6554236290       13.3851955481  MEMB      119             0.0000000000
     14921       119  PMPE      O22            44.3792710362      -14.4622724160       13.0258734544  MEMB      119             0.0000000000
     14922       119  PMPE      C22            43.9331572970      -16.8622717577       12.5905281069  MEMB      119             0.0000000000
     14923       119  PMPE      H2R            44.0268206216      -17.8658351887       13.0578699726  MEMB      119             0.0000000000
     14924       119  PMPE      H2S            44.4810045082      -16.8746174235       11.6240747325  MEMB      119             0.0000000000
     14925       119  PMPE      C3             47.1171223138      -14.7413195833       14.7617573719  MEMB      119             0.0000000000
     14926       119  PMPE      HX             47.5934085633      -13.9309893815       15.3540724477  MEMB      119             0.0000000000
     14927       119  PMPE      HY             47.0061718481      -14.2598293745       13.7666806242  MEMB      119             0.0000000000
     14928       119  PMPE      O31            47.9468342038      -15.9274161698       14.6453758072  MEMB      119             0.0000000000
     14929       119  PMPE      C31            49.0998531319      -15.6899886439       13.8769926865  MEMB      119             0.0000000000
     14930       119  PMPE      O32            49.4452115811      -14.5789718748       13.4730040100  MEMB      119             0.0000000000
     14931       119  PMPE      C32            49.9533086338      -16.9294678619       13.7479616838  MEMB      119             0.0000000000
     14932       119  PMPE      H2X            50.3323862076      -17.1619399654       14.7660864331  MEMB      119             0.0000000000
     14933       119  PMPE      H2Y            50.7756600123      -16.7786114402       13.0163190422  MEMB      119             0.0000000000
     14934       119  PMPE      C23            42.4641393613      -16.6840159584       12.2762729420  MEMB      119             0.0000000000
     14935       119  PMPE      H3R            42.3806043630      -15.6455109074       11.8904621749  MEMB      119             0.0000000000
     14936       119  PMPE      H3S            41.8335372605      -16.7812218754       13.1857859346  MEMB      119             0.0000000000
     14937       119  PMPE      C24            41.8039917614      -17.7452722468       11.2301196374  MEMB      119             0.0000000000
     14938       119  PMPE      H4R            40.7895764247      -17.3747592746       10.9693463558  MEMB      119             0.0000000000
     14939       119  PMPE      H4S            41.7330304078      -18.7874044684       11.6085981325  MEMB      119             0.0000000000
     14940       119  PMPE      C25            42.4698781963      -17.7540069576        9.8533608531  MEMB      119             0.0000000000
     14941       119  PMPE      H5R            43.4463665267      -18.2301443512       10.0859218974  MEMB      119             0.0000000000
     14942       119  PMPE      H5S            42.5457179125      -16.6864451952        9.5552308752  MEMB      119             0.0000000000
     14943       119  PMPE      C26            41.5603759655      -18.5874540335        8.9348002803  MEMB      119             0.0000000000
     14944       119  PMPE      H6R            40.5819516752      -18.0613296094        8.9206421336  MEMB      119             0.0000000000
     14945       119  PMPE      H6S            41.4061955609      -19.6140892438        9.3304888867  MEMB      119             0.0000000000
     14946       119  PMPE      C27            41.9395818811      -18.7429766783        7.4096134357  MEMB      119             0.0000000000
     14947       119  PMPE      H7R            42.1886886806      -17.7365318640        7.0104448958  MEMB      119             0.0000000000
     14948       119  PMPE      H7S            41.0422315806      -19.1716657502        6.9143263848  MEMB      119             0.0000000000
     14949       119  PMPE      C28            43.0095581855      -19.7512244328        6.9334455869  MEMB      119             0.0000000000
     14950       119  PMPE      H8R            43.8774958659      -19.5464534272        7.5960725497  MEMB      119             0.0000000000
     14951       119  PMPE      H8S            43.2549432736      -19.6198275165        5.8578797372  MEMB      119             0.0000000000
     14952       119  PMPE      C29            42.6072823376      -21.2472247557        7.2661190917  MEMB      119             0.0000000000
     14953       119  PMPE      H9R            41.7238903318      -21.6003513270        6.6923241059  MEMB      119             0.0000000000
     14954       119  PMPE      C217           43.0620021498      -21.9348617341        8.5360852622  MEMB      119             0.0000000000
     14955       119  PMPE      H17R           42.5446003546      -22.8441125537        8.8161707651  MEMB      119             0.0000000000
     14956       119  PMPE      H17S           43.7752361099      -21.3427744389        9.0961020155  MEMB      119             0.0000000000
     14957       119  PMPE      C210           43.7839256481      -22.2387530406        7.1716074816  MEMB      119             0.0000000000
     14958       119  PMPE      H10R           43.4884097538      -23.2031396256        6.7058285145  MEMB      119             0.0000000000
     14959       119  PMPE      C211           45.2168574294      -21.8067232892        6.7881773859  MEMB      119             0.0000000000
     14960       119  PMPE      H11R           45.8641932229      -22.7036099629        6.8924429461  MEMB      119             0.0000000000
     14961       119  PMPE      H11S           45.6129048929      -20.9504228291        7.3748771223  MEMB      119             0.0000000000
     14962       119  PMPE      C212           45.2657964876      -21.5429388513        5.2611923019  MEMB      119             0.0000000000
     14963       119  PMPE      H12R           45.1002569972      -20.4681310097        5.0338033146  MEMB      119             0.0000000000
     14964       119  PMPE      H12S           44.4817454542      -22.1237622856        4.7299402845  MEMB      119             0.0000000000
     14965       119  PMPE      C213           46.6054377643      -21.9338518961        4.5884304412  MEMB      119             0.0000000000
     14966       119  PMPE      H13R           46.8832684118      -22.9837801334        4.8224852951  MEMB      119             0.0000000000
     14967       119  PMPE      H13S           47.4223335357      -21.3928147814        5.1121492370  MEMB      119             0.0000000000
     14968       119  PMPE      C214           46.6209008053      -21.7843798770        3.0488876247  MEMB      119             0.0000000000
     14969       119  PMPE      H14R           46.1975209164      -20.7682078923        2.8990038664  MEMB      119             0.0000000000
     14970       119  PMPE      H14S           45.9161518041      -22.5310214894        2.6244162051  MEMB      119             0.0000000000
     14971       119  PMPE      C215           47.9993539771      -21.8443743320        2.3443306387  MEMB      119             0.0000000000
     14972       119  PMPE      H15R           47.9166673832      -22.0200868019        1.2504326951  MEMB      119             0.0000000000
     14973       119  PMPE      H15S           48.6385064107      -22.6838718262        2.6922514771  MEMB      119             0.0000000000
     14974       119  PMPE      C216           48.7651924981      -20.5179835666        2.4513412822  MEMB      119             0.0000000000
     14975       119  PMPE      H16R           49.7401373441      -20.5577617777        1.9200969000  MEMB      119             0.0000000000
     14976       119  PMPE      H16S           48.0532843061      -19.7070748421        2.1868895555  MEMB      119             0.0000000000
     14977       119  PMPE      H16T           49.1209677892      -20.3115388258        3.4833912784  MEMB      119             0.0000000000
     14978       119  PMPE      C33            49.0932012863      -18.1653667468       13.3208117689  MEMB      119             0.0000000000
     14979       119  PMPE      H3X            48.1725186952      -18.2875370025       13.9305156901  MEMB      119             0.0000000000
     14980       119  PMPE      H3Y            49.8357738505      -18.9761062059       13.4808394034  MEMB      119             0.0000000000
     14981       119  PMPE      C34            48.7676743791      -17.9913125519       11.8028205163  MEMB      119             0.0000000000
     14982       119  PMPE      H4X            48.8266864466      -18.9851052347       11.3096525430  MEMB      119             0.0000000000
     14983       119  PMPE      H4Y            49.2934617130      -17.1884544075       11.2430996252  MEMB      119             0.0000000000
     14984       119  PMPE      C35            47.2207234571      -17.8057579326       11.5612701785  MEMB      119             0.0000000000
     14985       119  PMPE      H5X            46.8838846837      -16.9664348521       12.2065589264  MEMB      119             0.0000000000
     14986       119  PMPE      H5Y            46.5497474318      -18.6482427052       11.8339086452  MEMB      119             0.0000000000
     14987       119  PMPE      C36            46.9157342789      -17.2906835636       10.1673797960  MEMB      119             0.0000000000
     14988       119  PMPE      H6X            46.0344983080      -17.8228521016        9.7495991833  MEMB      119             0.0000000000
     14989       119  PMPE      H6Y            47.7030275894      -17.6461089525        9.4686934719  MEMB      119             0.0000000000
     14990       119  PMPE      C37            46.6951536458      -15.7629605775        9.9576670087  MEMB      119             0.0000000000
     14991       119  PMPE      H7X            47.6778261519      -15.2450322114        9.9370297704  MEMB      119             0.0000000000
     14992       119  PMPE      H7Y            45.9857336392      -15.4127591178       10.7376690377  MEMB      119             0.0000000000
     14993       119  PMPE      C38            45.8877393319      -15.4012601479        8.6631430135  MEMB      119             0.0000000000
     14994       119  PMPE      H8X            44.8036735377      -15.5137234219        8.8787224006  MEMB      119             0.0000000000
     14995       119  PMPE      H8Y            45.9624952989      -16.1275132250        7.8257133483  MEMB      119             0.0000000000
     14996       119  PMPE      C39            46.2502227169      -14.1098012175        7.9369057140  MEMB      119             0.0000000000
     14997       119  PMPE      H9X            47.2700723636      -14.2447568988        7.5173646019  MEMB      119             0.0000000000
     14998       119  PMPE      H9Y            46.3823413099      -13.2710038428        8.6533437628  MEMB      119             0.0000000000
     14999       119  PMPE      C310           45.3408769098      -13.7732521405        6.7698885478  MEMB      119             0.0000000000
     15000       119  PMPE      H10X           45.2565719590      -12.6663654678        6.7249941079  MEMB      119             0.0000000000
     15001       119  PMPE      H10Y           44.3242751571      -14.1453188304        7.0197050108  MEMB      119             0.0000000000
     15002       119  PMPE      C311           45.7918184834      -14.2217441500        5.3544390270  MEMB      119             0.0000000000
     15003       119  PMPE      H11X           46.8340645772      -13.9250980923        5.1093972442  MEMB      119             0.0000000000
     15004       119  PMPE      H11Y           45.1118543554      -13.7676503218        4.6022634648  MEMB      119             0.0000000000
     15005       119  PMPE      C312           45.7005105680      -15.6891395686        5.0546727096  MEMB      119             0.0000000000
     15006       119  PMPE      H12X           45.0021209405      -16.2646472622        5.6991594682  MEMB      119             0.0000000000
     15007       119  PMPE      H12Y           46.7099780987      -16.0993238501        5.2715713373  MEMB      119             0.0000000000
     15008       119  PMPE      C313           45.4569671600      -16.1145361931        3.5868928572  MEMB      119             0.0000000000
     15009       119  PMPE      H13X           44.4161009910      -16.0563714131        3.2027888433  MEMB      119             0.0000000000
     15010       119  PMPE      H13Y           45.6440400269      -17.1860295236        3.3605583386  MEMB      119             0.0000000000
     15011       119  PMPE      C314           46.4309589896      -15.4139451625        2.6759794388  MEMB      119             0.0000000000
     15012       119  PMPE      H14X           47.4417095150      -15.7095378944        3.0299984656  MEMB      119             0.0000000000
     15013       119  PMPE      H14Y           46.4280314815      -14.3127838965        2.5284787924  MEMB      119             0.0000000000
     15014       119  PMPE      C315           46.3993936549      -16.0006647784        1.1649293985  MEMB      119             0.0000000000
     15015       119  PMPE      H15X           45.4893555098      -15.8564326951        0.5441656828  MEMB      119             0.0000000000
     15016       119  PMPE      H15Y           46.4209387914      -17.1033714087        1.2987010955  MEMB      119             0.0000000000
     15017       119  PMPE      C316           47.6396469934      -15.4860524939        0.4100261661  MEMB      119             0.0000000000
     15018       119  PMPE      H16X           47.5665772610      -14.3774582338        0.4090931454  MEMB      119             0.0000000000
     15019       119  PMPE      H16Y           47.6715836735      -15.9287051073       -0.6084813299  MEMB      119             0.0000000000
     15020       119  PMPE      H16Z           48.5565840157      -15.8819094946        0.8966926755  MEMB      119             0.0000000000
     15021       120  PMPE      N              11.2053376026      -47.2090394125       20.6575724833  MEMB      120             0.0000000000
     15022       120  PMPE      HN1            11.8941923397      -46.7310430167       21.2728758776  MEMB      120             0.0000000000
     15023       120  PMPE      HN2            10.9154546854      -46.6831538634       19.8084480502  MEMB      120             0.0000000000
     15024       120  PMPE      HN3            10.3602419342      -47.4205782880       21.2256081068  MEMB      120             0.0000000000
     15025       120  PMPE      C12            11.9526688591      -48.4703367821       20.3439689991  MEMB      120             0.0000000000
     15026       120  PMPE      H12A           11.2923886899      -49.3574726540       20.2374728389  MEMB      120             0.0000000000
     15027       120  PMPE      H12B           12.6692681723      -48.5314985998       21.1907662164  MEMB      120             0.0000000000
     15028       120  PMPE      C11            12.7485343533      -48.3505588761       19.0412084198  MEMB      120             0.0000000000
     15029       120  PMPE      H11A           12.0814075602      -48.0299417417       18.2126751196  MEMB      120             0.0000000000
     15030       120  PMPE      H11B           13.0818921861      -49.3766092705       18.7758516127  MEMB      120             0.0000000000
     15031       120  PMPE      P              15.1823902406      -47.6193824932       18.4131268717  MEMB      120             0.0000000000
     15032       120  PMPE      O13            15.7641677707      -48.7231032213       19.1729754701  MEMB      120             0.0000000000
     15033       120  PMPE      O14            15.9726656455      -46.2920722536       18.2725292631  MEMB      120             0.0000000000
     15034       120  PMPE      O11            14.7486461864      -48.1739152106       16.9736450747  MEMB      120             0.0000000000
     15035       120  PMPE      O12            13.7563412800      -47.3638818799       19.1249734175  MEMB      120             0.0000000000
     15036       120  PMPE      C1             15.5571030841      -47.7506968097       15.8340085826  MEMB      120             0.0000000000
     15037       120  PMPE      HA             15.6311715531      -48.7122358666       15.2823947498  MEMB      120             0.0000000000
     15038       120  PMPE      HB             16.5178582022      -47.2952564054       16.1562576387  MEMB      120             0.0000000000
     15039       120  PMPE      C2             14.9820730311      -46.6629857368       14.9871876168  MEMB      120             0.0000000000
     15040       120  PMPE      HS             14.7392327853      -45.8174034224       15.6656712957  MEMB      120             0.0000000000
     15041       120  PMPE      O21            13.7706488275      -47.2646567365       14.4026170058  MEMB      120             0.0000000000
     15042       120  PMPE      C21            12.8105782256      -46.3769151457       14.1954240125  MEMB      120             0.0000000000
     15043       120  PMPE      O22            12.8705124783      -45.1335824911       14.2570743965  MEMB      120             0.0000000000
     15044       120  PMPE      C22            11.5581404610      -47.2361923908       13.9756954622  MEMB      120             0.0000000000
     15045       120  PMPE      H2R            11.1201013426      -47.5763773648       14.9383566855  MEMB      120             0.0000000000
     15046       120  PMPE      H2S            11.8277271294      -48.1904101432       13.4745840602  MEMB      120             0.0000000000
     15047       120  PMPE      C3             15.8234274937      -46.1646148212       13.8527067301  MEMB      120             0.0000000000
     15048       120  PMPE      HX             16.6445803210      -45.5112206654       14.2175420603  MEMB      120             0.0000000000
     15049       120  PMPE      HY             15.2390341400      -45.5677646648       13.1201938306  MEMB      120             0.0000000000
     15050       120  PMPE      O31            16.5136874655      -47.1853009100       13.0862699008  MEMB      120             0.0000000000
     15051       120  PMPE      C31            15.9376557192      -47.6768825537       12.0102117554  MEMB      120             0.0000000000
     15052       120  PMPE      O32            14.8833345103      -47.3264200395       11.5603745458  MEMB      120             0.0000000000
     15053       120  PMPE      C32            16.7905438055      -48.8538299719       11.5950619901  MEMB      120             0.0000000000
     15054       120  PMPE      H2X            16.5572195578      -49.6670898597       12.3151238635  MEMB      120             0.0000000000
     15055       120  PMPE      H2Y            17.8562203892      -48.5568983819       11.4926619285  MEMB      120             0.0000000000
     15056       120  PMPE      C23            10.4753296265      -46.3995255920       13.1573618213  MEMB      120             0.0000000000
     15057       120  PMPE      H3R            10.3097778712      -45.4186429985       13.6521176298  MEMB      120             0.0000000000
     15058       120  PMPE      H3S             9.5568417213      -46.9980046508       13.3377051424  MEMB      120             0.0000000000
     15059       120  PMPE      C24            10.6895822058      -46.2057477925       11.6396523345  MEMB      120             0.0000000000
     15060       120  PMPE      H4R            11.5638274822      -45.5448448842       11.4573795946  MEMB      120             0.0000000000
     15061       120  PMPE      H4S             9.8008417505      -45.6754992651       11.2355503769  MEMB      120             0.0000000000
     15062       120  PMPE      C25            11.0290667486      -47.4985953289       10.8460298206  MEMB      120             0.0000000000
     15063       120  PMPE      H5R            11.9105237689      -47.9857150549       11.3151445578  MEMB      120             0.0000000000
     15064       120  PMPE      H5S            11.3853920052      -47.0593442384        9.8897814099  MEMB      120             0.0000000000
     15065       120  PMPE      C26             9.9347860155      -48.5482353725       10.5776885534  MEMB      120             0.0000000000
     15066       120  PMPE      H6R             9.0062597220      -48.1386953384       10.1255405402  MEMB      120             0.0000000000
     15067       120  PMPE      H6S             9.6236564691      -48.9391129676       11.5700258754  MEMB      120             0.0000000000
     15068       120  PMPE      C27            10.2348260638      -49.7662657987        9.7497895719  MEMB      120             0.0000000000
     15069       120  PMPE      H7R             9.3388850103      -50.4228716467        9.7278846398  MEMB      120             0.0000000000
     15070       120  PMPE      H7S            10.9923563586      -50.4396988249       10.2047143430  MEMB      120             0.0000000000
     15071       120  PMPE      C28            10.7549945109      -49.3709576308        8.3143045002  MEMB      120             0.0000000000
     15072       120  PMPE      H8R            11.6680018638      -48.7473602183        8.4232280005  MEMB      120             0.0000000000
     15073       120  PMPE      H8S             9.9276667370      -48.8437429398        7.7928686564  MEMB      120             0.0000000000
     15074       120  PMPE      C29            10.9372990479      -50.6333586368        7.5094581937  MEMB      120             0.0000000000
     15075       120  PMPE      H9R            10.1599387648      -51.4264648770        7.4776028859  MEMB      120             0.0000000000
     15076       120  PMPE      C217           12.3200752041      -51.1940905983        7.7836521126  MEMB      120             0.0000000000
     15077       120  PMPE      H17R           12.4995834769      -52.2514481922        7.6331182713  MEMB      120             0.0000000000
     15078       120  PMPE      H17S           12.8690980944      -50.5781379559        8.4851255603  MEMB      120             0.0000000000
     15079       120  PMPE      C210           11.9112156028      -50.6366605835        6.3725916477  MEMB      120             0.0000000000
     15080       120  PMPE      H10R           11.6258060310      -51.4343297420        5.6538523349  MEMB      120             0.0000000000
     15081       120  PMPE      C211           12.3361133216      -49.3133785566        5.8608990392  MEMB      120             0.0000000000
     15082       120  PMPE      H11R           13.0460345229      -49.5053857224        5.0281532794  MEMB      120             0.0000000000
     15083       120  PMPE      H11S           12.8042566355      -48.6491733455        6.6185234236  MEMB      120             0.0000000000
     15084       120  PMPE      C212           11.1995895275      -48.4876633336        5.1540140841  MEMB      120             0.0000000000
     15085       120  PMPE      H12R           10.3517179279      -48.2027867205        5.8130135748  MEMB      120             0.0000000000
     15086       120  PMPE      H12S           10.7041691198      -49.1980784927        4.4581771538  MEMB      120             0.0000000000
     15087       120  PMPE      C213           11.6499181519      -47.2003499943        4.5493053446  MEMB      120             0.0000000000
     15088       120  PMPE      H13R           12.2248343432      -46.5832463723        5.2724749079  MEMB      120             0.0000000000
     15089       120  PMPE      H13S           10.7239429393      -46.6669602151        4.2453538787  MEMB      120             0.0000000000
     15090       120  PMPE      C214           12.5672206557      -47.2257574224        3.3068356150  MEMB      120             0.0000000000
     15091       120  PMPE      H14R           12.2014439808      -47.9619782465        2.5595019812  MEMB      120             0.0000000000
     15092       120  PMPE      H14S           13.5700234543      -47.5874965389        3.6196488445  MEMB      120             0.0000000000
     15093       120  PMPE      C215           12.7331150203      -45.8653567512        2.6342032289  MEMB      120             0.0000000000
     15094       120  PMPE      H15R           13.2437335803      -45.9273361782        1.6494462144  MEMB      120             0.0000000000
     15095       120  PMPE      H15S           13.3131397020      -45.2524169500        3.3568349272  MEMB      120             0.0000000000
     15096       120  PMPE      C216           11.4964894057      -45.0828366370        2.3202560859  MEMB      120             0.0000000000
     15097       120  PMPE      H16R           11.9043334068      -44.0783871300        2.0772231672  MEMB      120             0.0000000000
     15098       120  PMPE      H16S           10.8742897155      -45.5449714435        1.5242545700  MEMB      120             0.0000000000
     15099       120  PMPE      H16T           10.9257050843      -45.0059315646        3.2703155989  MEMB      120             0.0000000000
     15100       120  PMPE      C33            16.4534772463      -49.3866952629       10.1475315348  MEMB      120             0.0000000000
     15101       120  PMPE      H3X            16.3143734739      -48.5529000491        9.4265903109  MEMB      120             0.0000000000
     15102       120  PMPE      H3Y            15.5232227272      -49.9912094038       10.0882849458  MEMB      120             0.0000000000
     15103       120  PMPE      C34            17.6287792780      -50.1584322338        9.5227350153  MEMB      120             0.0000000000
     15104       120  PMPE      H4X            18.1954378481      -50.8757239199       10.1541709539  MEMB      120             0.0000000000
     15105       120  PMPE      H4Y            18.4139378179      -49.3964195876        9.3299031941  MEMB      120             0.0000000000
     15106       120  PMPE      C35            17.2767440411      -50.8742578096        8.1769281051  MEMB      120             0.0000000000
     15107       120  PMPE      H5X            16.4025767561      -51.5382315447        8.3480758372  MEMB      120             0.0000000000
     15108       120  PMPE      H5Y            18.0946125807      -51.4274393515        7.6676129888  MEMB      120             0.0000000000
     15109       120  PMPE      C36            16.9634518500      -49.9189537056        7.0528551947  MEMB      120             0.0000000000
     15110       120  PMPE      H6X            17.9426848216      -49.4127310429        6.9144275465  MEMB      120             0.0000000000
     15111       120  PMPE      H6Y            16.2103115477      -49.1617173345        7.3589499363  MEMB      120             0.0000000000
     15112       120  PMPE      C37            16.4464523234      -50.7333344341        5.8233673952  MEMB      120             0.0000000000
     15113       120  PMPE      H7X            15.4149249846      -51.1169053667        5.9755040562  MEMB      120             0.0000000000
     15114       120  PMPE      H7Y            17.1192703941      -51.5632586674        5.5186337767  MEMB      120             0.0000000000
     15115       120  PMPE      C38            16.4214447766      -49.8615450061        4.5265110776  MEMB      120             0.0000000000
     15116       120  PMPE      H8X            17.4534205742      -49.5242769054        4.2907211420  MEMB      120             0.0000000000
     15117       120  PMPE      H8Y            15.8191651685      -48.9699464633        4.8033371018  MEMB      120             0.0000000000
     15118       120  PMPE      C39            15.9244488408      -50.4415518730        3.2231526195  MEMB      120             0.0000000000
     15119       120  PMPE      H9X            14.9070080905      -50.8370050571        3.4299180382  MEMB      120             0.0000000000
     15120       120  PMPE      H9Y            16.5566350123      -51.3392986254        3.0537057240  MEMB      120             0.0000000000
     15121       120  PMPE      C310           16.0079761998      -49.4966140939        1.9739812565  MEMB      120             0.0000000000
     15122       120  PMPE      H10X           16.9298775190      -48.9330822804        2.2325369383  MEMB      120             0.0000000000
     15123       120  PMPE      H10Y           15.2379643462      -48.6968550399        1.9316925621  MEMB      120             0.0000000000
     15124       120  PMPE      C311           16.1124854294      -50.2841337504        0.6763552904  MEMB      120             0.0000000000
     15125       120  PMPE      H11X           16.6983615066      -51.2091446200        0.8645712583  MEMB      120             0.0000000000
     15126       120  PMPE      H11Y           16.5555559415      -49.5719830195       -0.0522399628  MEMB      120             0.0000000000
     15127       120  PMPE      C312           14.7550908119      -50.5997932702        0.1214268455  MEMB      120             0.0000000000
     15128       120  PMPE      H12X           14.0646070983      -50.9550336406        0.9160056046  MEMB      120             0.0000000000
     15129       120  PMPE      H12Y           14.8924779829      -51.3500339869       -0.6864007574  MEMB      120             0.0000000000
     15130       120  PMPE      C313           13.9235196965      -49.4344660871       -0.4491614382  MEMB      120             0.0000000000
     15131       120  PMPE      H13X           14.4598271558      -49.2601698990       -1.4064056357  MEMB      120             0.0000000000
     15132       120  PMPE      H13Y           14.1735490269      -48.5543885244        0.1811325441  MEMB      120             0.0000000000
     15133       120  PMPE      C314           12.4763036284      -49.7953486863       -0.6808659538  MEMB      120             0.0000000000
     15134       120  PMPE      H14X           12.0437309652      -50.2349915182        0.2432105334  MEMB      120             0.0000000000
     15135       120  PMPE      H14Y           12.4170113827      -50.5590369141       -1.4855929145  MEMB      120             0.0000000000
     15136       120  PMPE      C315           11.6441537827      -48.6019836051       -1.2452263745  MEMB      120             0.0000000000
     15137       120  PMPE      H15X           11.7797763946      -47.8550532776       -0.4340398745  MEMB      120             0.0000000000
     15138       120  PMPE      H15Y           10.6298078275      -48.9883341843       -1.4821994202  MEMB      120             0.0000000000
     15139       120  PMPE      C316           12.1985672450      -47.9764889776       -2.5839035625  MEMB      120             0.0000000000
     15140       120  PMPE      H16X           11.7692370301      -46.9697406727       -2.7748349564  MEMB      120             0.0000000000
     15141       120  PMPE      H16Y           11.9184849719      -48.6274756441       -3.4395273515  MEMB      120             0.0000000000
     15142       120  PMPE      H16Z           13.3067605840      -47.9147079931       -2.5347962127  MEMB      120             0.0000000000
     15143       121  POPE      N              48.7661791124      -11.5464744006       19.7554413802  MEMB      121             0.0000000000
     15144       121  POPE      HN1            48.6472709847      -12.3914690999       19.1609290728  MEMB      121             0.0000000000
     15145       121  POPE      HN2            48.9726825466      -11.8203894923       20.7372391594  MEMB      121             0.0000000000
     15146       121  POPE      HN3            47.9088885412      -10.9577195336       19.7599544672  MEMB      121             0.0000000000
     15147       121  POPE      C12            50.0049766246      -10.8514421764       19.2180568681  MEMB      121             0.0000000000
     15148       121  POPE      H12A           50.2420486727      -11.3283211503       18.2430161391  MEMB      121             0.0000000000
     15149       121  POPE      H12B           50.8074789251      -11.2273546057       19.8881320843  MEMB      121             0.0000000000
     15150       121  POPE      C11            49.7452635852       -9.3658217534       19.2937868707  MEMB      121             0.0000000000
     15151       121  POPE      H11A           50.6291199077       -8.8377706713       18.8763167788  MEMB      121             0.0000000000
     15152       121  POPE      H11B           49.5483043250       -8.9847200499       20.3186232089  MEMB      121             0.0000000000
     15153       121  POPE      P              47.6667493918       -7.9276681691       18.8349803598  MEMB      121             0.0000000000
     15154       121  POPE      O13            48.4890903218       -6.6722594510       18.9544500615  MEMB      121             0.0000000000
     15155       121  POPE      O14            46.9309316780       -8.3658167785       20.0411654019  MEMB      121             0.0000000000
     15156       121  POPE      O11            46.8556327988       -7.8086116760       17.4941539296  MEMB      121             0.0000000000
     15157       121  POPE      O12            48.6250356987       -9.0798956770       18.4079651572  MEMB      121             0.0000000000
     15158       121  POPE      C1             46.6631515018       -8.9951748263       16.6526910729  MEMB      121             0.0000000000
     15159       121  POPE      HA             45.6152850980       -9.0776399607       16.2928349209  MEMB      121             0.0000000000
     15160       121  POPE      HB             46.8676938213       -9.9385320708       17.2027461900  MEMB      121             0.0000000000
     15161       121  POPE      C2             47.5207532728       -8.7887038898       15.3615860471  MEMB      121             0.0000000000
     15162       121  POPE      HS             48.5914141871       -9.0526037818       15.4970963342  MEMB      121             0.0000000000
     15163       121  POPE      O21            47.3165780741       -7.4046348016       14.8763786872  MEMB      121             0.0000000000
     15164       121  POPE      C21            48.3874808703       -6.7780690905       14.3512893871  MEMB      121             0.0000000000
     15165       121  POPE      O22            49.5234770356       -7.2041988061       14.3665063882  MEMB      121             0.0000000000
     15166       121  POPE      C22            47.9855674404       -5.4309744261       13.6998827563  MEMB      121             0.0000000000
     15167       121  POPE      H2R            48.5593794136       -4.5503282777       14.0597765116  MEMB      121             0.0000000000
     15168       121  POPE      H2S            46.9014855386       -5.2557871174       13.8683968404  MEMB      121             0.0000000000
     15169       121  POPE      C3             47.1428133192       -9.8276470865       14.2624471642  MEMB      121             0.0000000000
     15170       121  POPE      HX             46.2101778009       -9.5865618928       13.7089223910  MEMB      121             0.0000000000
     15171       121  POPE      HY             46.9126760194      -10.8008491474       14.7464261295  MEMB      121             0.0000000000
     15172       121  POPE      O31            48.1430990889      -10.0098204860       13.1874552166  MEMB      121             0.0000000000
     15173       121  POPE      C31            49.0199599949      -10.9766224274       13.4122889679  MEMB      121             0.0000000000
     15174       121  POPE      O32            49.0163747648      -11.7396034500       14.3361764107  MEMB      121             0.0000000000
     15175       121  POPE      C32            50.0817691684      -11.0323077014       12.2048308123  MEMB      121             0.0000000000
     15176       121  POPE      H2X            51.1181281146      -11.0494497796       12.6048145847  MEMB      121             0.0000000000
     15177       121  POPE      H2Y            49.9605606527      -10.1342843545       11.5620371969  MEMB      121             0.0000000000
     15178       121  POPE      C23            48.2766466492       -5.5543227701       12.1574398747  MEMB      121             0.0000000000
     15179       121  POPE      H3R            49.3161580696       -5.8808757107       11.9404138733  MEMB      121             0.0000000000
     15180       121  POPE      H3S            48.0375925379       -4.6294494703       11.5901799672  MEMB      121             0.0000000000
     15181       121  POPE      C24            47.4405993513       -6.6058790262       11.4447652922  MEMB      121             0.0000000000
     15182       121  POPE      H4R            46.4194917623       -6.1741356621       11.5172776324  MEMB      121             0.0000000000
     15183       121  POPE      H4S            47.6646990024       -7.5825821233       11.9245060286  MEMB      121             0.0000000000
     15184       121  POPE      C25            47.9375952236       -6.7074912361        9.9796881847  MEMB      121             0.0000000000
     15185       121  POPE      H5R            48.9087970883       -7.2466860116        9.9985752962  MEMB      121             0.0000000000
     15186       121  POPE      H5S            48.1295379200       -5.7497769129        9.4502902079  MEMB      121             0.0000000000
     15187       121  POPE      C26            47.0093117218       -7.3934778053        8.8992619316  MEMB      121             0.0000000000
     15188       121  POPE      H6R            47.4774116148       -7.2934149892        7.8966696900  MEMB      121             0.0000000000
     15189       121  POPE      H6S            45.9802302114       -6.9748604464        8.8907966407  MEMB      121             0.0000000000
     15190       121  POPE      C27            46.8923870675       -8.9344950944        9.0978194963  MEMB      121             0.0000000000
     15191       121  POPE      H7R            46.4354861020       -9.1142591504       10.0944380678  MEMB      121             0.0000000000
     15192       121  POPE      H7S            47.9120444821       -9.3265555777        9.3000774171  MEMB      121             0.0000000000
     15193       121  POPE      C28            46.1293607202       -9.7300473679        7.9550553794  MEMB      121             0.0000000000
     15194       121  POPE      H8R            46.0964320345      -10.8396005672        8.0011887235  MEMB      121             0.0000000000
     15195       121  POPE      H8S            46.9302098445       -9.5735380462        7.2010877028  MEMB      121             0.0000000000
     15196       121  POPE      C29            44.8566990485       -8.9520728813        7.6337100807  MEMB      121             0.0000000000
     15197       121  POPE      H91            43.9344416753       -9.1455561498        8.2011651816  MEMB      121             0.0000000000
     15198       121  POPE      C210           44.7564252744       -8.1427875432        6.5954077588  MEMB      121             0.0000000000
     15199       121  POPE      H101           43.7666652703       -7.7532015673        6.3150549166  MEMB      121             0.0000000000
     15200       121  POPE      C211           45.7960213541       -7.7328391743        5.5504539847  MEMB      121             0.0000000000
     15201       121  POPE      H11R           46.7267735823       -7.4835189727        6.1035008088  MEMB      121             0.0000000000
     15202       121  POPE      H11S           45.5124263149       -6.8168707347        4.9892981770  MEMB      121             0.0000000000
     15203       121  POPE      C212           46.1832438567       -8.8843523335        4.4941137072  MEMB      121             0.0000000000
     15204       121  POPE      H12R           45.2153140683       -9.1150545984        3.9999388714  MEMB      121             0.0000000000
     15205       121  POPE      H12S           46.4894315929       -9.6517644548        5.2368443658  MEMB      121             0.0000000000
     15206       121  POPE      C213           47.4191742420       -8.6005520284        3.7043991396  MEMB      121             0.0000000000
     15207       121  POPE      H13R           48.3199154100       -8.4876925957        4.3449064095  MEMB      121             0.0000000000
     15208       121  POPE      H13S           47.1500744558       -7.7614537919        3.0277754748  MEMB      121             0.0000000000
     15209       121  POPE      C214           47.8642619776       -9.8120413553        2.8218364667  MEMB      121             0.0000000000
     15210       121  POPE      H14R           46.9130384185      -10.1442009282        2.3536869934  MEMB      121             0.0000000000
     15211       121  POPE      H14S           48.0947973732      -10.6399838157        3.5258857231  MEMB      121             0.0000000000
     15212       121  POPE      C215           48.9957846521       -9.5315373917        1.8691895276  MEMB      121             0.0000000000
     15213       121  POPE      H15R           49.3112452409      -10.5285637179        1.4940305248  MEMB      121             0.0000000000
     15214       121  POPE      H15S           49.8601326990       -9.0593123855        2.3832196531  MEMB      121             0.0000000000
     15215       121  POPE      C216           48.5903326441       -8.6951512152        0.5944849428  MEMB      121             0.0000000000
     15216       121  POPE      H16R           48.4125183904       -7.6343267099        0.8726119464  MEMB      121             0.0000000000
     15217       121  POPE      H16S           47.6066949988       -9.1480919479        0.3462465655  MEMB      121             0.0000000000
     15218       121  POPE      C217           49.5606098396       -8.7894729828       -0.5522868584  MEMB      121             0.0000000000
     15219       121  POPE      H17R           50.4976153216       -8.2285710566       -0.3480089535  MEMB      121             0.0000000000
     15220       121  POPE      H17S           49.0247916446       -8.3235284661       -1.4067564698  MEMB      121             0.0000000000
     15221       121  POPE      C218           50.0617922943      -10.2025341996       -1.0257349618  MEMB      121             0.0000000000
     15222       121  POPE      H18R           50.6370365964      -10.1317950535       -1.9735805308  MEMB      121             0.0000000000
     15223       121  POPE      H18S           49.1881186819      -10.8338532155       -1.2949026831  MEMB      121             0.0000000000
     15224       121  POPE      H18T           50.6378217487      -10.7601246075       -0.2565753733  MEMB      121             0.0000000000
     15225       121  POPE      C33            50.0854883380      -12.3352258292       11.4158713529  MEMB      121             0.0000000000
     15226       121  POPE      H3X            50.1920503361      -13.1564778758       12.1564859950  MEMB      121             0.0000000000
     15227       121  POPE      H3Y            50.9226953644      -12.2298420726       10.6931681443  MEMB      121             0.0000000000
     15228       121  POPE      C34            48.8236262769      -12.6774111307       10.6055583373  MEMB      121             0.0000000000
     15229       121  POPE      H4X            48.6519282983      -11.7362155372       10.0407651393  MEMB      121             0.0000000000
     15230       121  POPE      H4Y            48.0312515298      -12.8654279106       11.3612786078  MEMB      121             0.0000000000
     15231       121  POPE      C35            49.0362768332      -13.9623016625        9.7732334063  MEMB      121             0.0000000000
     15232       121  POPE      H5X            48.9600235657      -14.7633706341       10.5392581941  MEMB      121             0.0000000000
     15233       121  POPE      H5Y            50.0356907808      -14.0251529650        9.2920444769  MEMB      121             0.0000000000
     15234       121  POPE      C36            47.9499123398      -14.3332921812        8.8225199638  MEMB      121             0.0000000000
     15235       121  POPE      H6X            46.9142110876      -14.1188287719        9.1625930433  MEMB      121             0.0000000000
     15236       121  POPE      H6Y            48.1935599508      -15.3942274401        8.6003187520  MEMB      121             0.0000000000
     15237       121  POPE      C37            47.9099388997      -13.5058604235        7.5176823361  MEMB      121             0.0000000000
     15238       121  POPE      H7X            48.7385988634      -13.7634550435        6.8239328724  MEMB      121             0.0000000000
     15239       121  POPE      H7Y            48.0606728930      -12.4441644005        7.8082024314  MEMB      121             0.0000000000
     15240       121  POPE      C38            46.5618139578      -13.6047916824        6.7942348941  MEMB      121             0.0000000000
     15241       121  POPE      H8X            45.7676518687      -13.3220883058        7.5179104927  MEMB      121             0.0000000000
     15242       121  POPE      H8Y            46.4017428054      -14.6903390628        6.6202096005  MEMB      121             0.0000000000
     15243       121  POPE      C39            46.4662213895      -12.7901611065        5.5501402874  MEMB      121             0.0000000000
     15244       121  POPE      H9X            47.2884566500      -13.0635481323        4.8547916216  MEMB      121             0.0000000000
     15245       121  POPE      H9Y            46.4722308451      -11.6832529999        5.6452154685  MEMB      121             0.0000000000
     15246       121  POPE      C310           45.1484714123      -13.1058920887        4.8780080466  MEMB      121             0.0000000000
     15247       121  POPE      H10X           44.3919043351      -12.5792987900        5.4981913578  MEMB      121             0.0000000000
     15248       121  POPE      H10Y           44.8880688087      -14.1851222918        4.9201272633  MEMB      121             0.0000000000
     15249       121  POPE      C311           45.0832253123      -12.5870832319        3.4117182609  MEMB      121             0.0000000000
     15250       121  POPE      H11X           45.9032392679      -13.0983160121        2.8635039420  MEMB      121             0.0000000000
     15251       121  POPE      H11Y           45.2974153310      -11.4979785650        3.3638165261  MEMB      121             0.0000000000
     15252       121  POPE      C312           43.7332282529      -12.7319122080        2.7287903393  MEMB      121             0.0000000000
     15253       121  POPE      H12X           42.8925380993      -12.3614498715        3.3535445890  MEMB      121             0.0000000000
     15254       121  POPE      H12Y           43.6249185731      -13.8367310417        2.6844589275  MEMB      121             0.0000000000
     15255       121  POPE      C313           43.6962157958      -12.1099552915        1.2411960217  MEMB      121             0.0000000000
     15256       121  POPE      H13X           42.7950783926      -12.4587768344        0.6929302765  MEMB      121             0.0000000000
     15257       121  POPE      H13Y           44.6281121075      -12.5165451314        0.7933408411  MEMB      121             0.0000000000
     15258       121  POPE      C314           43.7236248670      -10.5873274614        1.2586452950  MEMB      121             0.0000000000
     15259       121  POPE      H14X           44.1103739765      -10.2518645981        0.2726378436  MEMB      121             0.0000000000
     15260       121  POPE      H14Y           44.5282014186      -10.3003812550        1.9690263578  MEMB      121             0.0000000000
     15261       121  POPE      C315           42.4547095198       -9.9818900608        1.6773184634  MEMB      121             0.0000000000
     15262       121  POPE      H15X           42.0546408376      -10.6525906485        2.4675254453  MEMB      121             0.0000000000
     15263       121  POPE      H15Y           41.7726068241      -10.1698145955        0.8207305273  MEMB      121             0.0000000000
     15264       121  POPE      C316           42.3574876042       -8.5290138865        2.2022330536  MEMB      121             0.0000000000
     15265       121  POPE      H16X           42.7943620188       -7.7150865997        1.5849942074  MEMB      121             0.0000000000
     15266       121  POPE      H16Y           42.9742639310       -8.5018107072        3.1259044145  MEMB      121             0.0000000000
     15267       121  POPE      H16Z           41.2871978767       -8.3027971746        2.3962089339  MEMB      121             0.0000000000
     15268       122  PMPE      N              39.9689804130      -25.0666245021       18.0971401485  MEMB      122             0.0000000000
     15269       122  PMPE      HN1            39.2248365516      -25.7415940642       17.8283161364  MEMB      122             0.0000000000
     15270       122  PMPE      HN2            39.6648807724      -24.3327510498       18.7683726609  MEMB      122             0.0000000000
     15271       122  PMPE      HN3            40.3811682679      -24.5747588254       17.2787458066  MEMB      122             0.0000000000
     15272       122  PMPE      C12            40.8951665784      -25.9896343305       18.8114573311  MEMB      122             0.0000000000
     15273       122  PMPE      H12A           41.2740164443      -26.7457216117       18.0909534511  MEMB      122             0.0000000000
     15274       122  PMPE      H12B           40.3027682241      -26.4429811668       19.6347809895  MEMB      122             0.0000000000
     15275       122  PMPE      C11            42.0377444035      -25.1823991986       19.4675548183  MEMB      122             0.0000000000
     15276       122  PMPE      H11A           42.5892657639      -25.8692963973       20.1445462616  MEMB      122             0.0000000000
     15277       122  PMPE      H11B           41.5495155170      -24.4833677074       20.1798107016  MEMB      122             0.0000000000
     15278       122  PMPE      P              44.1119980563      -23.6408371160       19.1832416565  MEMB      122             0.0000000000
     15279       122  PMPE      O13            45.3744503534      -24.3246723756       18.8582077359  MEMB      122             0.0000000000
     15280       122  PMPE      O14            43.9201047943      -23.3479226831       20.6359355262  MEMB      122             0.0000000000
     15281       122  PMPE      O11            43.9730888888      -22.2898231749       18.3338532712  MEMB      122             0.0000000000
     15282       122  PMPE      O12            42.9380624459      -24.6097161812       18.6126095122  MEMB      122             0.0000000000
     15283       122  PMPE      C1             42.9840197240      -22.0533627795       17.3265240900  MEMB      122             0.0000000000
     15284       122  PMPE      HA             42.7278293226      -20.9728023658       17.3593373480  MEMB      122             0.0000000000
     15285       122  PMPE      HB             42.0157606336      -22.5467071555       17.5576230369  MEMB      122             0.0000000000
     15286       122  PMPE      C2             43.4892304933      -22.4402788792       15.9104242936  MEMB      122             0.0000000000
     15287       122  PMPE      HS             42.7535565378      -22.0456333152       15.1773758893  MEMB      122             0.0000000000
     15288       122  PMPE      O21            43.5358049657      -23.8659777652       15.8652792022  MEMB      122             0.0000000000
     15289       122  PMPE      C21            42.5039800345      -24.4434628031       15.4837986590  MEMB      122             0.0000000000
     15290       122  PMPE      O22            41.4145320055      -23.9740856385       15.1775436029  MEMB      122             0.0000000000
     15291       122  PMPE      C22            42.7774670693      -25.9732727600       15.5760568998  MEMB      122             0.0000000000
     15292       122  PMPE      H2R            41.7126817769      -26.2902048493       15.5657064741  MEMB      122             0.0000000000
     15293       122  PMPE      H2S            43.3423107651      -26.2686297317       16.4860222000  MEMB      122             0.0000000000
     15294       122  PMPE      C3             44.9597329291      -21.8624511520       15.7199035015  MEMB      122             0.0000000000
     15295       122  PMPE      HX             45.6008385195      -22.4036431808       16.4481999848  MEMB      122             0.0000000000
     15296       122  PMPE      HY             45.0628878220      -20.8601364146       16.1879263148  MEMB      122             0.0000000000
     15297       122  PMPE      O31            45.3522102458      -21.8488024989       14.3892860461  MEMB      122             0.0000000000
     15298       122  PMPE      C31            45.0016252913      -20.7754314498       13.6881286874  MEMB      122             0.0000000000
     15299       122  PMPE      O32            44.5988198171      -19.7076327248       14.1643102969  MEMB      122             0.0000000000
     15300       122  PMPE      C32            44.9616006964      -20.9999890380       12.1614984669  MEMB      122             0.0000000000
     15301       122  PMPE      H2X            45.7513925635      -21.7623739051       11.9902689603  MEMB      122             0.0000000000
     15302       122  PMPE      H2Y            45.1820816270      -20.0175054692       11.6919935734  MEMB      122             0.0000000000
     15303       122  PMPE      C23            43.5961781032      -26.5242922524       14.3796747165  MEMB      122             0.0000000000
     15304       122  PMPE      H3R            43.0296359596      -26.2772374726       13.4564660185  MEMB      122             0.0000000000
     15305       122  PMPE      H3S            43.5128728446      -27.6125985743       14.5869694332  MEMB      122             0.0000000000
     15306       122  PMPE      C24            45.0263480639      -25.9758942860       14.0673959863  MEMB      122             0.0000000000
     15307       122  PMPE      H4R            45.6907584803      -25.8945776975       14.9541129728  MEMB      122             0.0000000000
     15308       122  PMPE      H4S            44.9278035660      -24.9773307051       13.5904460910  MEMB      122             0.0000000000
     15309       122  PMPE      C25            45.7079696292      -26.9866486209       13.1055689441  MEMB      122             0.0000000000
     15310       122  PMPE      H5R            44.9690761354      -27.2352511296       12.3140172262  MEMB      122             0.0000000000
     15311       122  PMPE      H5S            46.0935686539      -27.8349216351       13.7106038129  MEMB      122             0.0000000000
     15312       122  PMPE      C26            46.9831935361      -26.3839127021       12.5232276608  MEMB      122             0.0000000000
     15313       122  PMPE      H6R            47.6223773565      -27.1025117605       11.9670079504  MEMB      122             0.0000000000
     15314       122  PMPE      H6S            47.5118030620      -26.1309455913       13.4671028336  MEMB      122             0.0000000000
     15315       122  PMPE      C27            46.9156447791      -25.1108750597       11.6400046717  MEMB      122             0.0000000000
     15316       122  PMPE      H7R            47.8759823424      -24.5531906945       11.6074365099  MEMB      122             0.0000000000
     15317       122  PMPE      H7S            46.0785463470      -24.4369901330       11.9219030765  MEMB      122             0.0000000000
     15318       122  PMPE      C28            46.7033975302      -25.4052345635       10.1673884158  MEMB      122             0.0000000000
     15319       122  PMPE      H8R            47.2002161962      -26.3287073998        9.8003875732  MEMB      122             0.0000000000
     15320       122  PMPE      H8S            47.0460850469      -24.5123123944        9.6020777506  MEMB      122             0.0000000000
     15321       122  PMPE      C29            45.2102961091      -25.6693522609        9.9328579468  MEMB      122             0.0000000000
     15322       122  PMPE      H9R            44.4932127641      -24.8894461228       10.2673108282  MEMB      122             0.0000000000
     15323       122  PMPE      C217           44.7113224482      -27.0318453562        9.5673983403  MEMB      122             0.0000000000
     15324       122  PMPE      H17R           43.6848708223      -27.1618336852        9.8873816636  MEMB      122             0.0000000000
     15325       122  PMPE      H17S           45.4911002208      -27.7830009313        9.5428886438  MEMB      122             0.0000000000
     15326       122  PMPE      C210           44.8243707024      -26.0103749769        8.4076086540  MEMB      122             0.0000000000
     15327       122  PMPE      H10R           43.8366243216      -25.5872183064        8.1254447291  MEMB      122             0.0000000000
     15328       122  PMPE      C211           45.8099192997      -26.3182809361        7.3902617653  MEMB      122             0.0000000000
     15329       122  PMPE      H11R           45.4002259370      -26.9738247832        6.5923057533  MEMB      122             0.0000000000
     15330       122  PMPE      H11S           46.6903827850      -26.8242839320        7.8408910414  MEMB      122             0.0000000000
     15331       122  PMPE      C212           46.2909930409      -25.0169359333        6.6652936935  MEMB      122             0.0000000000
     15332       122  PMPE      H12R           46.4621670304      -24.2126321345        7.4123658531  MEMB      122             0.0000000000
     15333       122  PMPE      H12S           45.4928435815      -24.6417953832        5.9896109867  MEMB      122             0.0000000000
     15334       122  PMPE      C213           47.5010265793      -25.1068721010        5.7179840579  MEMB      122             0.0000000000
     15335       122  PMPE      H13R           48.3490522296      -25.4666899321        6.3390351563  MEMB      122             0.0000000000
     15336       122  PMPE      H13S           47.6377376315      -24.0269248096        5.4958468372  MEMB      122             0.0000000000
     15337       122  PMPE      C214           47.2430596756      -26.0634118471        4.4641824543  MEMB      122             0.0000000000
     15338       122  PMPE      H14R           46.4355032457      -25.8017103183        3.7474633552  MEMB      122             0.0000000000
     15339       122  PMPE      H14S           46.9804286044      -27.0772299037        4.8350169485  MEMB      122             0.0000000000
     15340       122  PMPE      C215           48.5245405078      -26.4688076244        3.6884462232  MEMB      122             0.0000000000
     15341       122  PMPE      H15R           48.3522661803      -27.4524796768        3.2015868372  MEMB      122             0.0000000000
     15342       122  PMPE      H15S           49.3249326917      -26.5926365187        4.4489461384  MEMB      122             0.0000000000
     15343       122  PMPE      C216           49.0716354459      -25.4854803125        2.6113254162  MEMB      122             0.0000000000
     15344       122  PMPE      H16R           48.2844327374      -25.4736619390        1.8274294362  MEMB      122             0.0000000000
     15345       122  PMPE      H16S           49.3655421768      -24.4779737423        2.9758400310  MEMB      122             0.0000000000
     15346       122  PMPE      H16T           49.9881064802      -25.8378702073        2.0914967214  MEMB      122             0.0000000000
     15347       122  PMPE      C33            43.6195863099      -21.5116433955       11.6328701511  MEMB      122             0.0000000000
     15348       122  PMPE      H3X            42.8988514775      -20.6674172035       11.6791788411  MEMB      122             0.0000000000
     15349       122  PMPE      H3Y            43.2985353862      -22.4301273302       12.1691858592  MEMB      122             0.0000000000
     15350       122  PMPE      C34            43.4962148083      -21.8933156627       10.0682090477  MEMB      122             0.0000000000
     15351       122  PMPE      H4X            42.5406094463      -22.4569977081       10.0098820856  MEMB      122             0.0000000000
     15352       122  PMPE      H4Y            44.2057009269      -22.7016012729        9.7895969227  MEMB      122             0.0000000000
     15353       122  PMPE      C35            43.4382085377      -20.7029656087        9.0953484377  MEMB      122             0.0000000000
     15354       122  PMPE      H5X            43.0781034875      -19.7471383731        9.5324287504  MEMB      122             0.0000000000
     15355       122  PMPE      H5Y            42.6427003077      -20.9563122307        8.3623389301  MEMB      122             0.0000000000
     15356       122  PMPE      C36            44.7648784535      -20.3642430883        8.3981978933  MEMB      122             0.0000000000
     15357       122  PMPE      H6X            45.3111717936      -21.2814456359        8.0905866623  MEMB      122             0.0000000000
     15358       122  PMPE      H6Y            45.4987020748      -19.8325970381        9.0409856934  MEMB      122             0.0000000000
     15359       122  PMPE      C37            44.6587422729      -19.5693355084        7.0820512884  MEMB      122             0.0000000000
     15360       122  PMPE      H7X            45.6951740359      -19.5699260259        6.6818894676  MEMB      122             0.0000000000
     15361       122  PMPE      H7Y            44.4534377368      -18.5306378137        7.4186191877  MEMB      122             0.0000000000
     15362       122  PMPE      C38            43.5314684091      -20.0010713458        6.0895472898  MEMB      122             0.0000000000
     15363       122  PMPE      H8X            43.3794901136      -19.2776264074        5.2601792239  MEMB      122             0.0000000000
     15364       122  PMPE      H8Y            42.5888358552      -20.1827256434        6.6488024080  MEMB      122             0.0000000000
     15365       122  PMPE      C39            43.9438654337      -21.3071463437        5.4088396348  MEMB      122             0.0000000000
     15366       122  PMPE      H9X            43.8391194890      -22.0678195854        6.2117877300  MEMB      122             0.0000000000
     15367       122  PMPE      H9Y            45.0049934731      -21.1764689137        5.1067608834  MEMB      122             0.0000000000
     15368       122  PMPE      C310           42.9803889980      -21.9111079568        4.2898688251  MEMB      122             0.0000000000
     15369       122  PMPE      H10X           42.4639379158      -21.0670096708        3.7847979461  MEMB      122             0.0000000000
     15370       122  PMPE      H10Y           42.2243456039      -22.5257574468        4.8236529531  MEMB      122             0.0000000000
     15371       122  PMPE      C311           43.7868260352      -22.6383165134        3.1768448638  MEMB      122             0.0000000000
     15372       122  PMPE      H11X           44.1515341293      -23.6265134804        3.5300810265  MEMB      122             0.0000000000
     15373       122  PMPE      H11Y           44.7082158747      -22.0436356179        2.9987536880  MEMB      122             0.0000000000
     15374       122  PMPE      C312           43.1539620123      -22.8127670935        1.7653385796  MEMB      122             0.0000000000
     15375       122  PMPE      H12X           43.7055390387      -23.5867872643        1.1900327186  MEMB      122             0.0000000000
     15376       122  PMPE      H12Y           43.4072994113      -21.8527053966        1.2669187184  MEMB      122             0.0000000000
     15377       122  PMPE      C313           41.6248982316      -23.0739913812        1.7759294761  MEMB      122             0.0000000000
     15378       122  PMPE      H13X           41.1589744669      -23.0843477759        0.7674014883  MEMB      122             0.0000000000
     15379       122  PMPE      H13Y           41.1055318057      -22.3537079452        2.4435908625  MEMB      122             0.0000000000
     15380       122  PMPE      C314           41.3045966388      -24.5096154589        2.4240889019  MEMB      122             0.0000000000
     15381       122  PMPE      H14X           40.1954785422      -24.5032608588        2.4884091963  MEMB      122             0.0000000000
     15382       122  PMPE      H14Y           41.7169907196      -24.5445205559        3.4551240753  MEMB      122             0.0000000000
     15383       122  PMPE      C315           41.8160198073      -25.7016295413        1.5478191104  MEMB      122             0.0000000000
     15384       122  PMPE      H15X           41.5464738547      -26.7140623471        1.9174766339  MEMB      122             0.0000000000
     15385       122  PMPE      H15Y           42.9237805690      -25.6962441802        1.6324226218  MEMB      122             0.0000000000
     15386       122  PMPE      C316           41.4483088702      -25.5639292909        0.0327410204  MEMB      122             0.0000000000
     15387       122  PMPE      H16X           41.5045510139      -26.5732335241       -0.4281944342  MEMB      122             0.0000000000
     15388       122  PMPE      H16Y           42.1664127051      -24.8727507289       -0.4580935516  MEMB      122             0.0000000000
     15389       122  PMPE      H16Z           40.3833188543      -25.2515115429       -0.0173833892  MEMB      122             0.0000000000
     15390       123  PMPE      N             -45.7807778955       24.4761105461       17.6498039135  MEMB      123             0.0000000000
     15391       123  PMPE      HN1           -46.4204173410       23.9305181068       18.2620049843  MEMB      123             0.0000000000
     15392       123  PMPE      HN2           -46.3533747252       25.0340908398       16.9846793892  MEMB      123             0.0000000000
     15393       123  PMPE      HN3           -45.2077577613       23.8316268638       17.0685216931  MEMB      123             0.0000000000
     15394       123  PMPE      C12           -44.9563319378       25.3675332145       18.5936232152  MEMB      123             0.0000000000
     15395       123  PMPE      H12A          -45.6956410879       26.0900435510       19.0007126378  MEMB      123             0.0000000000
     15396       123  PMPE      H12B          -44.1282091609       25.9232178560       18.1039821783  MEMB      123             0.0000000000
     15397       123  PMPE      C11           -44.5087983068       24.5718876061       19.8397281191  MEMB      123             0.0000000000
     15398       123  PMPE      H11A          -45.4173396638       24.1245066811       20.2965911529  MEMB      123             0.0000000000
     15399       123  PMPE      H11B          -44.2655253955       25.4050037503       20.5333105260  MEMB      123             0.0000000000
     15400       123  PMPE      P             -43.6350640625       22.1841613372       19.2068017279  MEMB      123             0.0000000000
     15401       123  PMPE      O13           -44.9065493622       21.6618467017       19.7643462149  MEMB      123             0.0000000000
     15402       123  PMPE      O14           -42.4087573917       21.3650649991       19.5215000976  MEMB      123             0.0000000000
     15403       123  PMPE      O11           -43.7581907866       22.3950690684       17.6717481747  MEMB      123             0.0000000000
     15404       123  PMPE      O12           -43.4239054626       23.6333449520       19.7524485382  MEMB      123             0.0000000000
     15405       123  PMPE      C1            -42.7159126814       22.9626067421       16.9521108169  MEMB      123             0.0000000000
     15406       123  PMPE      HA            -41.7597566735       22.4111696563       17.0786170135  MEMB      123             0.0000000000
     15407       123  PMPE      HB            -42.4939452246       23.9887028274       17.3156741017  MEMB      123             0.0000000000
     15408       123  PMPE      C2            -43.0864299939       22.9989874880       15.3957278921  MEMB      123             0.0000000000
     15409       123  PMPE      HS            -43.8597505474       23.7730672922       15.2031224469  MEMB      123             0.0000000000
     15410       123  PMPE      O21           -43.6291863128       21.7204668655       15.1071595950  MEMB      123             0.0000000000
     15411       123  PMPE      C21           -44.6524376965       21.6162866602       14.2654098087  MEMB      123             0.0000000000
     15412       123  PMPE      O22           -45.0084247255       22.4048766495       13.4595622534  MEMB      123             0.0000000000
     15413       123  PMPE      C22           -45.3359657075       20.2788743758       14.6489539472  MEMB      123             0.0000000000
     15414       123  PMPE      H2R           -46.1699064294       20.3271490653       15.3814386243  MEMB      123             0.0000000000
     15415       123  PMPE      H2S           -44.5492747943       19.7426198908       15.2215527856  MEMB      123             0.0000000000
     15416       123  PMPE      C3            -41.8769887480       23.1233855385       14.4772373653  MEMB      123             0.0000000000
     15417       123  PMPE      HX            -41.1667411892       22.3090396461       14.7355206108  MEMB      123             0.0000000000
     15418       123  PMPE      HY            -41.3941644034       24.1042343879       14.6750682275  MEMB      123             0.0000000000
     15419       123  PMPE      O31           -42.1624238185       22.7353900166       13.0969118389  MEMB      123             0.0000000000
     15420       123  PMPE      C31           -42.5753920093       23.8386812620       12.3847012934  MEMB      123             0.0000000000
     15421       123  PMPE      O32           -42.8902813226       24.9460124999       12.8184498260  MEMB      123             0.0000000000
     15422       123  PMPE      C32           -42.5056329518       23.4342123983       10.9359446793  MEMB      123             0.0000000000
     15423       123  PMPE      H2X           -43.1175995308       22.5131417326       10.8289552830  MEMB      123             0.0000000000
     15424       123  PMPE      H2Y           -41.4543679668       23.1401085521       10.7293874343  MEMB      123             0.0000000000
     15425       123  PMPE      C23           -45.9000780828       19.6249057222       13.4220749241  MEMB      123             0.0000000000
     15426       123  PMPE      H3R           -46.8640037315       20.0883345119       13.1214053204  MEMB      123             0.0000000000
     15427       123  PMPE      H3S           -46.0723013988       18.6014890896       13.8186585169  MEMB      123             0.0000000000
     15428       123  PMPE      C24           -44.9949547454       19.3454398016       12.2826438060  MEMB      123             0.0000000000
     15429       123  PMPE      H4R           -44.9368101224       18.2623321279       12.0421900532  MEMB      123             0.0000000000
     15430       123  PMPE      H4S           -43.9448183886       19.5304049667       12.5946090789  MEMB      123             0.0000000000
     15431       123  PMPE      C25           -45.2938857984       20.2037898816       11.0321779215  MEMB      123             0.0000000000
     15432       123  PMPE      H5R           -45.3520291058       21.2923695466       11.2465016559  MEMB      123             0.0000000000
     15433       123  PMPE      H5S           -46.2483850513       19.9343658673       10.5315148155  MEMB      123             0.0000000000
     15434       123  PMPE      C26           -44.2835963469       20.0721414966        9.8765895500  MEMB      123             0.0000000000
     15435       123  PMPE      H6R           -44.2958833623       18.9892641930        9.6285031503  MEMB      123             0.0000000000
     15436       123  PMPE      H6S           -43.2832046190       20.2985441013       10.3035313382  MEMB      123             0.0000000000
     15437       123  PMPE      C27           -44.6858467503       20.8838721279        8.6573188624  MEMB      123             0.0000000000
     15438       123  PMPE      H7R           -44.6605782758       21.9894966806        8.7635111731  MEMB      123             0.0000000000
     15439       123  PMPE      H7S           -45.7535579525       20.6188462666        8.5021578946  MEMB      123             0.0000000000
     15440       123  PMPE      C28           -44.0052391676       20.4739462627        7.4206619747  MEMB      123             0.0000000000
     15441       123  PMPE      H8R           -44.4425774938       21.1072470921        6.6194215396  MEMB      123             0.0000000000
     15442       123  PMPE      H8S           -44.1393402554       19.4036658392        7.1545074613  MEMB      123             0.0000000000
     15443       123  PMPE      C29           -42.5237869949       20.8901184144        7.6242026334  MEMB      123             0.0000000000
     15444       123  PMPE      H9R           -42.1436768818       20.4878687837        8.5875467963  MEMB      123             0.0000000000
     15445       123  PMPE      C217          -42.0678923197       22.2490077599        7.2445121760  MEMB      123             0.0000000000
     15446       123  PMPE      H17R          -41.1682147559       22.5851692871        7.7449766316  MEMB      123             0.0000000000
     15447       123  PMPE      H17S          -42.8643347312       22.8652918306        6.8460621566  MEMB      123             0.0000000000
     15448       123  PMPE      C210          -41.7469908864       20.9949742392        6.3883044348  MEMB      123             0.0000000000
     15449       123  PMPE      H10R          -40.6730525014       20.7242409332        6.4759454885  MEMB      123             0.0000000000
     15450       123  PMPE      C211          -42.3762862703       21.0105989822        4.9763110181  MEMB      123             0.0000000000
     15451       123  PMPE      H11R          -41.8606276164       21.7894104564        4.3747543411  MEMB      123             0.0000000000
     15452       123  PMPE      H11S          -43.4735330596       21.1757993161        4.9208216996  MEMB      123             0.0000000000
     15453       123  PMPE      C212          -42.0631379938       19.5975897269        4.2966926413  MEMB      123             0.0000000000
     15454       123  PMPE      H12R          -42.4496618380       18.8064753200        4.9742311620  MEMB      123             0.0000000000
     15455       123  PMPE      H12S          -40.9875123515       19.5467062001        4.0232676400  MEMB      123             0.0000000000
     15456       123  PMPE      C213          -42.6564958953       19.3821097638        2.9483543163  MEMB      123             0.0000000000
     15457       123  PMPE      H13R          -42.1976528836       20.0979857815        2.2332993127  MEMB      123             0.0000000000
     15458       123  PMPE      H13S          -43.7352798752       19.6434715374        2.9010667923  MEMB      123             0.0000000000
     15459       123  PMPE      C214          -42.2716902894       17.9754930829        2.3430186334  MEMB      123             0.0000000000
     15460       123  PMPE      H14R          -42.8715237652       17.3964498153        3.0773411550  MEMB      123             0.0000000000
     15461       123  PMPE      H14S          -41.1637931497       17.8962406403        2.3676148458  MEMB      123             0.0000000000
     15462       123  PMPE      C215          -42.7446147061       17.8296317048        0.9040642247  MEMB      123             0.0000000000
     15463       123  PMPE      H15R          -43.8424367465       17.6611041247        0.9306451934  MEMB      123             0.0000000000
     15464       123  PMPE      H15S          -42.3789051519       16.8571559063        0.5105311649  MEMB      123             0.0000000000
     15465       123  PMPE      C216          -42.4653707101       18.9070733960       -0.1374414947  MEMB      123             0.0000000000
     15466       123  PMPE      H16R          -42.8209657140       18.5274519479       -1.1191551328  MEMB      123             0.0000000000
     15467       123  PMPE      H16S          -43.0053773193       19.8139542157        0.2093734589  MEMB      123             0.0000000000
     15468       123  PMPE      H16T          -41.3677379449       19.0671587581       -0.1998584816  MEMB      123             0.0000000000
     15469       123  PMPE      C33           -42.9034735786       24.5202792796        9.9234089174  MEMB      123             0.0000000000
     15470       123  PMPE      H3X           -43.9246492311       24.8589181567       10.2006174221  MEMB      123             0.0000000000
     15471       123  PMPE      H3Y           -43.0252652851       23.9924287481        8.9534284477  MEMB      123             0.0000000000
     15472       123  PMPE      C34           -41.8422846851       25.7260559916        9.7033528804  MEMB      123             0.0000000000
     15473       123  PMPE      H4X           -41.0338374759       25.4956006834       10.4297301110  MEMB      123             0.0000000000
     15474       123  PMPE      H4Y           -42.3032855062       26.6854233793       10.0218055556  MEMB      123             0.0000000000
     15475       123  PMPE      C35           -41.1699756091       25.8138843159        8.3433846194  MEMB      123             0.0000000000
     15476       123  PMPE      H5X           -40.7239840754       24.8145252839        8.1518284525  MEMB      123             0.0000000000
     15477       123  PMPE      H5Y           -40.3713972009       26.5856285908        8.3116916912  MEMB      123             0.0000000000
     15478       123  PMPE      C36           -42.2072274479       26.4873833044        7.3760043796  MEMB      123             0.0000000000
     15479       123  PMPE      H6X           -42.0234678638       27.5820193095        7.3277856688  MEMB      123             0.0000000000
     15480       123  PMPE      H6Y           -43.2361439285       26.3888480516        7.7833645603  MEMB      123             0.0000000000
     15481       123  PMPE      C37           -42.3774124981       25.9044546621        5.9705953083  MEMB      123             0.0000000000
     15482       123  PMPE      H7X           -43.1173762041       26.4414891980        5.3394317375  MEMB      123             0.0000000000
     15483       123  PMPE      H7Y           -42.5664506632       24.8187817458        6.1116645073  MEMB      123             0.0000000000
     15484       123  PMPE      C38           -41.0138853662       25.7938421673        5.1867705000  MEMB      123             0.0000000000
     15485       123  PMPE      H8X           -40.1532500622       25.4845876402        5.8176340866  MEMB      123             0.0000000000
     15486       123  PMPE      H8Y           -40.8165389670       26.8402858905        4.8700188863  MEMB      123             0.0000000000
     15487       123  PMPE      C39           -41.1834700358       24.9307518369        3.9142907662  MEMB      123             0.0000000000
     15488       123  PMPE      H9X           -41.8448377786       25.4352362666        3.1778062622  MEMB      123             0.0000000000
     15489       123  PMPE      H9Y           -41.7778393157       24.0176951997        4.1319468939  MEMB      123             0.0000000000
     15490       123  PMPE      C310          -39.9757967747       24.4141176505        3.1019818897  MEMB      123             0.0000000000
     15491       123  PMPE      H10X          -39.1588001225       23.9480221092        3.6932444053  MEMB      123             0.0000000000
     15492       123  PMPE      H10Y          -39.3810001023       25.2158715190        2.6144057997  MEMB      123             0.0000000000
     15493       123  PMPE      C311          -40.3373149636       23.6134133758        1.8101038902  MEMB      123             0.0000000000
     15494       123  PMPE      H11X          -40.8993810084       22.7648376368        2.2554381358  MEMB      123             0.0000000000
     15495       123  PMPE      H11Y          -39.4537257280       23.1422333922        1.3288761772  MEMB      123             0.0000000000
     15496       123  PMPE      C312          -41.0005973287       24.5811116234        0.8320974123  MEMB      123             0.0000000000
     15497       123  PMPE      H12X          -40.1570162283       25.2374466214        0.5289206204  MEMB      123             0.0000000000
     15498       123  PMPE      H12Y          -41.8441715944       25.2047400819        1.1978704042  MEMB      123             0.0000000000
     15499       123  PMPE      C313          -41.4616994273       23.8127172055       -0.4460165077  MEMB      123             0.0000000000
     15500       123  PMPE      H13X          -40.5935948348       23.3800338466       -0.9877752229  MEMB      123             0.0000000000
     15501       123  PMPE      H13Y          -41.8059222867       24.6388853659       -1.1042560837  MEMB      123             0.0000000000
     15502       123  PMPE      C314          -42.6505121195       22.7738820591       -0.2386390963  MEMB      123             0.0000000000
     15503       123  PMPE      H14X          -42.3258968357       21.8672261998        0.3153646380  MEMB      123             0.0000000000
     15504       123  PMPE      H14Y          -42.9038834600       22.5089850377       -1.2874262507  MEMB      123             0.0000000000
     15505       123  PMPE      C315          -43.8914470536       23.3826431111        0.3795583740  MEMB      123             0.0000000000
     15506       123  PMPE      H15X          -44.1140968651       24.2723992167       -0.2474052754  MEMB      123             0.0000000000
     15507       123  PMPE      H15Y          -43.7421612924       23.7589349372        1.4141779744  MEMB      123             0.0000000000
     15508       123  PMPE      C316          -45.1336931599       22.4467394192        0.3567008766  MEMB      123             0.0000000000
     15509       123  PMPE      H16X          -45.1164176165       21.5484905035        1.0102846843  MEMB      123             0.0000000000
     15510       123  PMPE      H16Y          -45.3214519540       22.0760929536       -0.6736825247  MEMB      123             0.0000000000
     15511       123  PMPE      H16Z          -45.9829083968       23.0285572569        0.7746033491  MEMB      123             0.0000000000
     15512       124  PMPG      C13           -47.4119418898       16.3807021594       21.3260293197  MEMB      124             0.0000000000
     15513       124  PMPG      H13A          -46.3728843016       15.9975476241       21.4147588507  MEMB      124             0.0000000000
     15514       124  PMPG      H13B          -47.3455560529       17.4386846181       20.9934829343  MEMB      124             0.0000000000
     15515       124  PMPG      OC3           -47.9887280992       16.2603846100       22.6051914966  MEMB      124             0.0000000000
     15516       124  PMPG      HO3           -48.0437787177       15.3191594416       22.7859253094  MEMB      124             0.0000000000
     15517       124  PMPG      C12           -48.1898345422       15.6162839191       20.2122290464  MEMB      124             0.0000000000
     15518       124  PMPG      H12A          -48.9157109531       16.3335597220       19.7634552742  MEMB      124             0.0000000000
     15519       124  PMPG      OC2           -48.9318231360       14.5372146381       20.7824073550  MEMB      124             0.0000000000
     15520       124  PMPG      HO2           -49.2623227160       14.0549745162       19.9931473645  MEMB      124             0.0000000000
     15521       124  PMPG      C11           -47.2773839474       15.0946815457       19.0763157145  MEMB      124             0.0000000000
     15522       124  PMPG      H11A          -47.9112242744       14.4979743580       18.3860201503  MEMB      124             0.0000000000
     15523       124  PMPG      H11B          -46.4907711527       14.4649434063       19.5442806931  MEMB      124             0.0000000000
     15524       124  PMPG      P             -45.6474294219       15.6794352837       17.1888256467  MEMB      124             0.0000000000
     15525       124  PMPG      O13           -46.3625825149       14.6312655393       16.3966633930  MEMB      124             0.0000000000
     15526       124  PMPG      O14           -44.3457158607       15.3550356345       17.6901163353  MEMB      124             0.0000000000
     15527       124  PMPG      O11           -45.4664251583       17.0347725971       16.3393554946  MEMB      124             0.0000000000
     15528       124  PMPG      O12           -46.5922993891       16.1541441392       18.3828661582  MEMB      124             0.0000000000
     15529       124  PMPG      C1            -45.2825519533       18.2384520953       16.9589193917  MEMB      124             0.0000000000
     15530       124  PMPG      HA            -44.3388496959       18.2459254241       17.5451712064  MEMB      124             0.0000000000
     15531       124  PMPG      HB            -46.1059284660       18.3291767521       17.6992849290  MEMB      124             0.0000000000
     15532       124  PMPG      C2            -45.2743659497       19.4515990201       16.0099522558  MEMB      124             0.0000000000
     15533       124  PMPG      HS            -45.3782207435       20.4348189708       16.5167202537  MEMB      124             0.0000000000
     15534       124  PMPG      O21           -46.3581896217       19.3444870032       15.1064203462  MEMB      124             0.0000000000
     15535       124  PMPG      C21           -47.6048376021       19.5026413961       15.4717572097  MEMB      124             0.0000000000
     15536       124  PMPG      O22           -47.9148849401       19.7468725018       16.6228514861  MEMB      124             0.0000000000
     15537       124  PMPG      C22           -48.5483798435       19.1107107195       14.3565876055  MEMB      124             0.0000000000
     15538       124  PMPG      H2R           -48.0693847486       19.3666600236       13.3873744237  MEMB      124             0.0000000000
     15539       124  PMPG      H2S           -49.4218437246       19.7969590070       14.3776889737  MEMB      124             0.0000000000
     15540       124  PMPG      C3            -44.0058433355       19.6550212492       15.2095676770  MEMB      124             0.0000000000
     15541       124  PMPG      HX            -43.1795045225       19.9490277975       15.8915098396  MEMB      124             0.0000000000
     15542       124  PMPG      HY            -44.0759009179       20.4266002715       14.4132772394  MEMB      124             0.0000000000
     15543       124  PMPG      O31           -43.4701291827       18.4986450056       14.5073563612  MEMB      124             0.0000000000
     15544       124  PMPG      C31           -44.2261491528       18.1956987767       13.4512611101  MEMB      124             0.0000000000
     15545       124  PMPG      O32           -44.8676087041       18.9692855272       12.7737246206  MEMB      124             0.0000000000
     15546       124  PMPG      C32           -43.9769384329       16.7267463615       13.0338912888  MEMB      124             0.0000000000
     15547       124  PMPG      H2X           -44.8648988640       16.1965048672       13.4397131156  MEMB      124             0.0000000000
     15548       124  PMPG      H2Y           -43.0796953332       16.2471181710       13.4802459143  MEMB      124             0.0000000000
     15549       124  PMPG      C23           -49.0049627094       17.6917207243       14.5428935001  MEMB      124             0.0000000000
     15550       124  PMPG      H3R           -49.9690183291       17.4839202082       14.0312918100  MEMB      124             0.0000000000
     15551       124  PMPG      H3S           -49.1804360855       17.3726700304       15.5925301006  MEMB      124             0.0000000000
     15552       124  PMPG      C24           -48.0031037163       16.7303648985       13.9675331419  MEMB      124             0.0000000000
     15553       124  PMPG      H4R           -47.0258247556       16.8344099854       14.4856270906  MEMB      124             0.0000000000
     15554       124  PMPG      H4S           -47.7390881884       16.8579932905       12.8959324123  MEMB      124             0.0000000000
     15555       124  PMPG      C25           -48.4828377589       15.2571855436       14.0180156751  MEMB      124             0.0000000000
     15556       124  PMPG      H5R           -49.4905857380       15.1700751655       13.5584761990  MEMB      124             0.0000000000
     15557       124  PMPG      H5S           -48.6894021203       14.9052008600       15.0513400938  MEMB      124             0.0000000000
     15558       124  PMPG      C26           -47.6526737777       14.3891108687       13.1206654211  MEMB      124             0.0000000000
     15559       124  PMPG      H6R           -46.5946451745       14.5654482713       13.4101506923  MEMB      124             0.0000000000
     15560       124  PMPG      H6S           -47.5896994525       14.7571407391       12.0742863084  MEMB      124             0.0000000000
     15561       124  PMPG      C27           -47.9505223645       12.9492199669       13.2202464485  MEMB      124             0.0000000000
     15562       124  PMPG      H7R           -48.9543255241       12.8468862236       12.7552434954  MEMB      124             0.0000000000
     15563       124  PMPG      H7S           -48.1936035934       12.6191019069       14.2528427943  MEMB      124             0.0000000000
     15564       124  PMPG      C28           -46.9104887314       11.9709318435       12.6038163737  MEMB      124             0.0000000000
     15565       124  PMPG      H8R           -47.4452429347       11.0635302644       12.2502894892  MEMB      124             0.0000000000
     15566       124  PMPG      H8S           -46.2632609079       11.6301689852       13.4400567606  MEMB      124             0.0000000000
     15567       124  PMPG      C29           -46.0152762594       12.7268192446       11.5672932599  MEMB      124             0.0000000000
     15568       124  PMPG      H9R           -45.1949289913       13.3512106043       11.9814030230  MEMB      124             0.0000000000
     15569       124  PMPG      C217          -45.6476311178       11.8775678550       10.3402026858  MEMB      124             0.0000000000
     15570       124  PMPG      H17R          -44.5917675270       11.9848908621       10.1245107706  MEMB      124             0.0000000000
     15571       124  PMPG      H17S          -46.1961308849       10.9439412563       10.3207479652  MEMB      124             0.0000000000
     15572       124  PMPG      C210          -46.4791899191       13.1314942896       10.1577463093  MEMB      124             0.0000000000
     15573       124  PMPG      H10R          -46.0212153122       13.9777002701        9.6023048291  MEMB      124             0.0000000000
     15574       124  PMPG      C211          -47.9961987402       12.8785639738        9.7453451201  MEMB      124             0.0000000000
     15575       124  PMPG      H11R          -48.3462203438       12.1041903817       10.4609923814  MEMB      124             0.0000000000
     15576       124  PMPG      H11S          -48.6033047447       13.7973622270        9.8921546366  MEMB      124             0.0000000000
     15577       124  PMPG      C212          -48.3327905012       12.3738279128        8.3532267939  MEMB      124             0.0000000000
     15578       124  PMPG      H12R          -49.4225553588       12.3067960909        8.1477016915  MEMB      124             0.0000000000
     15579       124  PMPG      H12S          -47.8055520268       11.4261453514        8.1119002859  MEMB      124             0.0000000000
     15580       124  PMPG      C213          -47.8746924240       13.5396161810        7.3772872516  MEMB      124             0.0000000000
     15581       124  PMPG      H13R          -46.7950656400       13.3788169514        7.1702348892  MEMB      124             0.0000000000
     15582       124  PMPG      H13S          -48.0966692968       14.5200755138        7.8503055992  MEMB      124             0.0000000000
     15583       124  PMPG      C214          -48.5606715471       13.4827102837        5.9633361597  MEMB      124             0.0000000000
     15584       124  PMPG      H14R          -49.6360923124       13.7556947640        6.0205256201  MEMB      124             0.0000000000
     15585       124  PMPG      H14S          -48.5000745841       12.4163763141        5.6574258782  MEMB      124             0.0000000000
     15586       124  PMPG      C215          -47.8194917082       14.2584433276        4.8582407767  MEMB      124             0.0000000000
     15587       124  PMPG      H15R          -46.7768441099       13.9423256852        5.0756728817  MEMB      124             0.0000000000
     15588       124  PMPG      H15S          -47.6526610456       15.3139813009        5.1620956022  MEMB      124             0.0000000000
     15589       124  PMPG      C216          -48.1624443271       13.8433905158        3.4518241191  MEMB      124             0.0000000000
     15590       124  PMPG      H16R          -49.0878909297       14.3094274897        3.0509757023  MEMB      124             0.0000000000
     15591       124  PMPG      H16S          -48.1559738386       12.7555663801        3.2261739869  MEMB      124             0.0000000000
     15592       124  PMPG      H16T          -47.3465853329       14.2989865481        2.8508844774  MEMB      124             0.0000000000
     15593       124  PMPG      C33           -44.1057143651       16.5653983667       11.5493754643  MEMB      124             0.0000000000
     15594       124  PMPG      H3X           -45.1349985822       16.7858289846       11.1939809826  MEMB      124             0.0000000000
     15595       124  PMPG      H3Y           -43.8893476493       15.4862796653       11.3976881140  MEMB      124             0.0000000000
     15596       124  PMPG      C34           -42.9968182394       17.3053328594       10.7578355507  MEMB      124             0.0000000000
     15597       124  PMPG      H4X           -42.0417194996       16.8977357061       11.1527686177  MEMB      124             0.0000000000
     15598       124  PMPG      H4Y           -43.0369702466       18.4150990694       10.7914216084  MEMB      124             0.0000000000
     15599       124  PMPG      C35           -43.0202665406       17.1003245753        9.2401873728  MEMB      124             0.0000000000
     15600       124  PMPG      H5X           -42.2682772613       16.3239901834        8.9830134627  MEMB      124             0.0000000000
     15601       124  PMPG      H5Y           -42.6459676177       18.0283789566        8.7575533663  MEMB      124             0.0000000000
     15602       124  PMPG      C36           -44.3660377129       16.6127818366        8.6758227091  MEMB      124             0.0000000000
     15603       124  PMPG      H6X           -45.1740602003       16.8813397406        9.3894732738  MEMB      124             0.0000000000
     15604       124  PMPG      H6Y           -44.3231098834       15.5031657606        8.6407421606  MEMB      124             0.0000000000
     15605       124  PMPG      C37           -44.8712513788       17.1776251413        7.3346754230  MEMB      124             0.0000000000
     15606       124  PMPG      H7X           -45.8283888518       16.6346271853        7.1818271993  MEMB      124             0.0000000000
     15607       124  PMPG      H7Y           -44.0991582069       17.0990224554        6.5396817470  MEMB      124             0.0000000000
     15608       124  PMPG      C38           -45.2532453656       18.6717675490        7.3668436912  MEMB      124             0.0000000000
     15609       124  PMPG      H8X           -44.3677910979       19.2906595745        7.1074912661  MEMB      124             0.0000000000
     15610       124  PMPG      H8Y           -45.5570197683       18.9222309510        8.4057416865  MEMB      124             0.0000000000
     15611       124  PMPG      C39           -46.4645908126       19.1074103754        6.4870896968  MEMB      124             0.0000000000
     15612       124  PMPG      H9X           -46.7354133098       20.1475944053        6.7681458242  MEMB      124             0.0000000000
     15613       124  PMPG      H9Y           -47.2955728229       18.4184573769        6.7500235802  MEMB      124             0.0000000000
     15614       124  PMPG      C310          -46.0723222640       19.0785901051        5.0142328873  MEMB      124             0.0000000000
     15615       124  PMPG      H10X          -45.0512055510       19.5145137625        5.0543866441  MEMB      124             0.0000000000
     15616       124  PMPG      H10Y          -46.8003288537       19.7620989397        4.5272592965  MEMB      124             0.0000000000
     15617       124  PMPG      C311          -46.3024493969       17.7330340914        4.3654548615  MEMB      124             0.0000000000
     15618       124  PMPG      H11X          -47.3436201503       17.3949734236        4.5551888240  MEMB      124             0.0000000000
     15619       124  PMPG      H11Y          -45.7390645682       16.9262806695        4.8812715973  MEMB      124             0.0000000000
     15620       124  PMPG      C312          -46.0382219444       17.6786688060        2.8601363030  MEMB      124             0.0000000000
     15621       124  PMPG      H12X          -45.4337861899       16.8261239697        2.4831142422  MEMB      124             0.0000000000
     15622       124  PMPG      H12Y          -45.5047565469       18.5630705772        2.4507841398  MEMB      124             0.0000000000
     15623       124  PMPG      C313          -47.2769404665       17.5591425793        2.0312941468  MEMB      124             0.0000000000
     15624       124  PMPG      H13X          -47.8637202567       18.4636024702        2.2995550967  MEMB      124             0.0000000000
     15625       124  PMPG      H13Y          -47.7469247453       16.5889833132        2.3000439532  MEMB      124             0.0000000000
     15626       124  PMPG      C314          -47.1511262365       17.6882986907        0.4958972860  MEMB      124             0.0000000000
     15627       124  PMPG      H14X          -46.7251460757       18.6740843841        0.2111378810  MEMB      124             0.0000000000
     15628       124  PMPG      H14Y          -48.1316250331       17.6755624778       -0.0263862954  MEMB      124             0.0000000000
     15629       124  PMPG      C315          -46.3647657950       16.6128065083       -0.2213016409  MEMB      124             0.0000000000
     15630       124  PMPG      H15X          -46.7864373751       15.6101119776        0.0047907437  MEMB      124             0.0000000000
     15631       124  PMPG      H15Y          -45.3588638090       16.4840042009        0.2324520328  MEMB      124             0.0000000000
     15632       124  PMPG      C316          -46.3843909378       16.8148876145       -1.6866939413  MEMB      124             0.0000000000
     15633       124  PMPG      H16X          -47.4228612069       16.7307867089       -2.0724754902  MEMB      124             0.0000000000
     15634       124  PMPG      H16Y          -45.7176849683       15.9923262274       -2.0231703727  MEMB      124             0.0000000000
     15635       124  PMPG      H16Z          -46.2029505601       17.8670237774       -1.9939559520  MEMB      124             0.0000000000
     15636       125  PMPE      N             -43.0614404033      -22.9156546716       20.0559866654  MEMB      125             0.0000000000
     15637       125  PMPE      HN1           -42.3400683882      -22.7161582027       20.7780832188  MEMB      125             0.0000000000
     15638       125  PMPE      HN2           -43.8724394419      -23.4443267007       20.4359685634  MEMB      125             0.0000000000
     15639       125  PMPE      HN3           -42.6641849037      -23.5670601902       19.3492624158  MEMB      125             0.0000000000
     15640       125  PMPE      C12           -43.4715390914      -21.7760326575       19.2571241644  MEMB      125             0.0000000000
     15641       125  PMPE      H12A          -42.6502006018      -21.4910596312       18.5653767259  MEMB      125             0.0000000000
     15642       125  PMPE      H12B          -43.5492446820      -20.9661522537       20.0136800085  MEMB      125             0.0000000000
     15643       125  PMPE      C11           -44.6828765155      -22.0257078092       18.4382605958  MEMB      125             0.0000000000
     15644       125  PMPE      H11A          -44.4351551681      -22.9139882841       17.8186535068  MEMB      125             0.0000000000
     15645       125  PMPE      H11B          -44.8430484752      -21.1668200387       17.7519824049  MEMB      125             0.0000000000
     15646       125  PMPE      P             -47.2386376809      -21.6170571471       18.9065986561  MEMB      125             0.0000000000
     15647       125  PMPE      O13           -47.0278452502      -20.2300537967       19.3149210913  MEMB      125             0.0000000000
     15648       125  PMPE      O14           -48.3551720402      -22.3673893376       19.6006617465  MEMB      125             0.0000000000
     15649       125  PMPE      O11           -47.6447027563      -21.7404959910       17.2876361310  MEMB      125             0.0000000000
     15650       125  PMPE      O12           -45.8802937320      -22.4438983658       19.1388109461  MEMB      125             0.0000000000
     15651       125  PMPE      C1            -48.2165058487      -23.0231897720       17.0060670496  MEMB      125             0.0000000000
     15652       125  PMPE      HA            -49.2888256483      -23.1038301385       17.2852595301  MEMB      125             0.0000000000
     15653       125  PMPE      HB            -47.5693190457      -23.8181141834       17.4345121459  MEMB      125             0.0000000000
     15654       125  PMPE      C2            -48.1667456982      -23.4641280772       15.5296780363  MEMB      125             0.0000000000
     15655       125  PMPE      HS            -47.1091279607      -23.5934864061       15.2149845058  MEMB      125             0.0000000000
     15656       125  PMPE      O21           -48.8031798472      -22.5252633336       14.6367223441  MEMB      125             0.0000000000
     15657       125  PMPE      C21           -48.0292857966      -21.4634779684       14.2302558606  MEMB      125             0.0000000000
     15658       125  PMPE      O22           -46.9280775752      -21.1915370387       14.6513483948  MEMB      125             0.0000000000
     15659       125  PMPE      C22           -48.8912246340      -20.7479761702       13.2261835294  MEMB      125             0.0000000000
     15660       125  PMPE      H2R           -49.7177449746      -20.2712347868       13.7953080662  MEMB      125             0.0000000000
     15661       125  PMPE      H2S           -49.2698258288      -21.5015377387       12.5029082526  MEMB      125             0.0000000000
     15662       125  PMPE      C3            -48.8169935381      -24.8684009808       15.3128372334  MEMB      125             0.0000000000
     15663       125  PMPE      HX            -49.9058964758      -24.8289212595       15.5297532918  MEMB      125             0.0000000000
     15664       125  PMPE      HY            -48.4336237118      -25.5019322745       16.1410805805  MEMB      125             0.0000000000
     15665       125  PMPE      O31           -48.5691445390      -25.4156826079       14.0069651948  MEMB      125             0.0000000000
     15666       125  PMPE      C31           -47.4091090683      -25.9931671251       13.8316932805  MEMB      125             0.0000000000
     15667       125  PMPE      O32           -46.5112722083      -26.0666543520       14.6503619342  MEMB      125             0.0000000000
     15668       125  PMPE      C32           -47.2758550467      -26.4843400448       12.3941605994  MEMB      125             0.0000000000
     15669       125  PMPE      H2X           -48.2419830750      -26.3488141075       11.8626059242  MEMB      125             0.0000000000
     15670       125  PMPE      H2Y           -47.0216753118      -27.5641018772       12.4560286546  MEMB      125             0.0000000000
     15671       125  PMPE      C23           -48.0973620749      -19.6616406179       12.3923159433  MEMB      125             0.0000000000
     15672       125  PMPE      H3R           -47.3813101176      -20.1685110332       11.7106467931  MEMB      125             0.0000000000
     15673       125  PMPE      H3S           -47.4810818387      -19.1113023827       13.1350457726  MEMB      125             0.0000000000
     15674       125  PMPE      C24           -49.0983727582      -18.8145771972       11.6469660645  MEMB      125             0.0000000000
     15675       125  PMPE      H4R           -49.8748573841      -18.4567885078       12.3564588104  MEMB      125             0.0000000000
     15676       125  PMPE      H4S           -49.6081678838      -19.4830292861       10.9206043322  MEMB      125             0.0000000000
     15677       125  PMPE      C25           -48.5322384213      -17.6963043070       10.6871360358  MEMB      125             0.0000000000
     15678       125  PMPE      H5R           -47.9552257711      -17.0854469185       11.4139307170  MEMB      125             0.0000000000
     15679       125  PMPE      H5S           -49.3604380909      -17.1324510035       10.2070569041  MEMB      125             0.0000000000
     15680       125  PMPE      C26           -47.7366837214      -18.3667429903        9.4604553024  MEMB      125             0.0000000000
     15681       125  PMPE      H6R           -48.4357013379      -18.9139941781        8.7924642678  MEMB      125             0.0000000000
     15682       125  PMPE      H6S           -46.9545870821      -19.0073079272        9.9212401271  MEMB      125             0.0000000000
     15683       125  PMPE      C27           -47.0556525857      -17.3683900840        8.5674300403  MEMB      125             0.0000000000
     15684       125  PMPE      H7R           -46.0622823849      -17.0302010026        8.9323475653  MEMB      125             0.0000000000
     15685       125  PMPE      H7S           -47.7379661841      -16.5001030175        8.6892767409  MEMB      125             0.0000000000
     15686       125  PMPE      C28           -46.9523399565      -17.6350999222        7.0947326549  MEMB      125             0.0000000000
     15687       125  PMPE      H8R           -46.5095416499      -16.6981303242        6.6943092707  MEMB      125             0.0000000000
     15688       125  PMPE      H8S           -47.9343266337      -17.8589034327        6.6257594448  MEMB      125             0.0000000000
     15689       125  PMPE      C29           -46.0758320636      -18.8482930827        6.8287615133  MEMB      125             0.0000000000
     15690       125  PMPE      H9R           -46.2104499343      -19.7788996699        7.4205130279  MEMB      125             0.0000000000
     15691       125  PMPE      C217          -44.6390695682      -18.4771180780        6.7982039140  MEMB      125             0.0000000000
     15692       125  PMPE      H17R          -44.0001060472      -19.1927361245        7.3007034276  MEMB      125             0.0000000000
     15693       125  PMPE      H17S          -44.5149083092      -17.4073924089        6.6834877435  MEMB      125             0.0000000000
     15694       125  PMPE      C210          -45.3165022009      -19.0845108156        5.5684083971  MEMB      125             0.0000000000
     15695       125  PMPE      H10R          -45.2390734796      -20.1925041143        5.5423953220  MEMB      125             0.0000000000
     15696       125  PMPE      C211          -45.5130309252      -18.1932165655        4.3457406101  MEMB      125             0.0000000000
     15697       125  PMPE      H11R          -44.6155018497      -18.3394143034        3.7074704895  MEMB      125             0.0000000000
     15698       125  PMPE      H11S          -45.7106034862      -17.1126532416        4.5120803457  MEMB      125             0.0000000000
     15699       125  PMPE      C212          -46.7077985983      -18.7578116082        3.4843576656  MEMB      125             0.0000000000
     15700       125  PMPE      H12R          -47.5603747877      -18.8540723277        4.1901684684  MEMB      125             0.0000000000
     15701       125  PMPE      H12S          -46.3607758356      -19.7501275620        3.1249067146  MEMB      125             0.0000000000
     15702       125  PMPE      C213          -47.3047552724      -17.8499881299        2.3141313758  MEMB      125             0.0000000000
     15703       125  PMPE      H13R          -46.5308326543      -17.0833045027        2.0960475572  MEMB      125             0.0000000000
     15704       125  PMPE      H13S          -48.1207546254      -17.2355623666        2.7511058610  MEMB      125             0.0000000000
     15705       125  PMPE      C214          -47.6093861791      -18.4654551912        0.9143747424  MEMB      125             0.0000000000
     15706       125  PMPE      H14R          -48.6695399776      -18.7675290627        1.0527441657  MEMB      125             0.0000000000
     15707       125  PMPE      H14S          -46.9728724419      -19.3756206804        0.8866274528  MEMB      125             0.0000000000
     15708       125  PMPE      C215          -47.3492555331      -17.5589973523       -0.3147419154  MEMB      125             0.0000000000
     15709       125  PMPE      H15R          -46.2622144142      -17.3449208420       -0.2320762194  MEMB      125             0.0000000000
     15710       125  PMPE      H15S          -47.9003129516      -16.5951401684       -0.2742966129  MEMB      125             0.0000000000
     15711       125  PMPE      C216          -47.5720143923      -18.1763804162       -1.7118949034  MEMB      125             0.0000000000
     15712       125  PMPE      H16R          -48.5904764970      -18.6016982618       -1.8390195504  MEMB      125             0.0000000000
     15713       125  PMPE      H16S          -47.3490780026      -17.4611000849       -2.5322575511  MEMB      125             0.0000000000
     15714       125  PMPE      H16T          -46.9007911483      -19.0401321031       -1.9060941031  MEMB      125             0.0000000000
     15715       125  PMPE      C33           -46.0594756727      -25.8318015663       11.6336826042  MEMB      125             0.0000000000
     15716       125  PMPE      H3X           -46.0311616715      -26.3842011330       10.6701609713  MEMB      125             0.0000000000
     15717       125  PMPE      H3Y           -45.1756140956      -25.8943846471       12.3039014320  MEMB      125             0.0000000000
     15718       125  PMPE      C34           -46.4558418013      -24.4190395452       11.1361180718  MEMB      125             0.0000000000
     15719       125  PMPE      H4X           -45.5424921161      -24.0191568975       10.6460090357  MEMB      125             0.0000000000
     15720       125  PMPE      H4Y           -46.8349420122      -23.7632852155       11.9488851585  MEMB      125             0.0000000000
     15721       125  PMPE      C35           -47.5547514167      -24.4553034510        9.9934066468  MEMB      125             0.0000000000
     15722       125  PMPE      H5X           -48.4012339954      -25.0872171710       10.3376060475  MEMB      125             0.0000000000
     15723       125  PMPE      H5Y           -47.1892905578      -24.9271716583        9.0563364650  MEMB      125             0.0000000000
     15724       125  PMPE      C36           -48.2526164824      -23.0701544993        9.9305477254  MEMB      125             0.0000000000
     15725       125  PMPE      H6X           -47.5135146055      -22.2602315959        9.7514543840  MEMB      125             0.0000000000
     15726       125  PMPE      H6Y           -48.7271229372      -22.8677586312       10.9145199166  MEMB      125             0.0000000000
     15727       125  PMPE      C37           -49.5135240820      -22.9585420913        9.0692315877  MEMB      125             0.0000000000
     15728       125  PMPE      H7X           -50.0990451608      -22.0345545176        9.2634815363  MEMB      125             0.0000000000
     15729       125  PMPE      H7Y           -50.1666111175      -23.7700256977        9.4556159393  MEMB      125             0.0000000000
     15730       125  PMPE      C38           -49.3315771322      -23.1071722367        7.5921508426  MEMB      125             0.0000000000
     15731       125  PMPE      H8X           -50.3094820284      -23.2630841999        7.0884508531  MEMB      125             0.0000000000
     15732       125  PMPE      H8Y           -48.6628503248      -23.9535072997        7.3259882282  MEMB      125             0.0000000000
     15733       125  PMPE      C39           -48.8001678516      -21.7983286685        7.0430030903  MEMB      125             0.0000000000
     15734       125  PMPE      H9X           -47.8120544080      -21.6175626922        7.5176360947  MEMB      125             0.0000000000
     15735       125  PMPE      H9Y           -49.5324791773      -20.9747313644        7.1834619307  MEMB      125             0.0000000000
     15736       125  PMPE      C310          -48.6699021345      -21.6976776865        5.4748688662  MEMB      125             0.0000000000
     15737       125  PMPE      H10X          -48.2723397847      -20.6970422716        5.2010188582  MEMB      125             0.0000000000
     15738       125  PMPE      H10Y          -49.6760993859      -21.9293741162        5.0647407651  MEMB      125             0.0000000000
     15739       125  PMPE      C311          -47.6483884550      -22.6987824257        4.9616267794  MEMB      125             0.0000000000
     15740       125  PMPE      H11X          -48.0689798559      -23.6790812991        5.2721707536  MEMB      125             0.0000000000
     15741       125  PMPE      H11Y          -46.7149084637      -22.3810314905        5.4734576960  MEMB      125             0.0000000000
     15742       125  PMPE      C312          -47.3171110458      -22.8421608362        3.4656161196  MEMB      125             0.0000000000
     15743       125  PMPE      H12X          -46.4783027955      -23.5374352960        3.2480965272  MEMB      125             0.0000000000
     15744       125  PMPE      H12Y          -46.8856724561      -21.8548577703        3.1946652746  MEMB      125             0.0000000000
     15745       125  PMPE      C313          -48.4825257722      -23.2020520149        2.5088594055  MEMB      125             0.0000000000
     15746       125  PMPE      H13X          -49.2357546130      -22.4070294426        2.6956921219  MEMB      125             0.0000000000
     15747       125  PMPE      H13Y          -48.8940185804      -24.1694119584        2.8683155182  MEMB      125             0.0000000000
     15748       125  PMPE      C314          -48.1454206907      -23.2668658787        1.0267135407  MEMB      125             0.0000000000
     15749       125  PMPE      H14X          -48.9322985291      -23.7137596526        0.3821757863  MEMB      125             0.0000000000
     15750       125  PMPE      H14Y          -47.3226189560      -23.9966507022        0.8694474605  MEMB      125             0.0000000000
     15751       125  PMPE      C315          -47.9172173465      -21.9381712121        0.3634971903  MEMB      125             0.0000000000
     15752       125  PMPE      H15X          -47.3087190805      -21.3352322655        1.0709670423  MEMB      125             0.0000000000
     15753       125  PMPE      H15Y          -48.8745574149      -21.3800828612        0.2837538991  MEMB      125             0.0000000000
     15754       125  PMPE      C316          -47.2222610531      -21.9444016901       -1.0400607274  MEMB      125             0.0000000000
     15755       125  PMPE      H16X          -47.2708121317      -20.9685919982       -1.5689837418  MEMB      125             0.0000000000
     15756       125  PMPE      H16Y          -47.5732506271      -22.7478948600       -1.7223555700  MEMB      125             0.0000000000
     15757       125  PMPE      H16Z          -46.1268770858      -22.0732190251       -0.9064169425  MEMB      125             0.0000000000
     15758       126  QMPE      N             -17.9327029385      -46.3477135683       20.5832342224  MEMB      126             0.0000000000
     15759       126  QMPE      HN1           -17.7750226401      -45.4322965313       21.0509397988  MEMB      126             0.0000000000
     15760       126  QMPE      HN2           -17.1860913644      -46.8597113092       21.0951223721  MEMB      126             0.0000000000
     15761       126  QMPE      HN3           -17.7723835157      -46.2478879388       19.5605257581  MEMB      126             0.0000000000
     15762       126  QMPE      C12           -19.3279299997      -47.0056151822       20.7395897576  MEMB      126             0.0000000000
     15763       126  QMPE      H12A          -19.7332741998      -46.5194206566       21.6526241156  MEMB      126             0.0000000000
     15764       126  QMPE      H12B          -19.1072269438      -48.0796555626       20.9186111301  MEMB      126             0.0000000000
     15765       126  QMPE      C11           -20.3434855864      -46.7695572066       19.6082174534  MEMB      126             0.0000000000
     15766       126  QMPE      H11A          -21.2393180449      -47.4023376315       19.7854013850  MEMB      126             0.0000000000
     15767       126  QMPE      H11B          -19.7298709346      -47.0659240606       18.7307410652  MEMB      126             0.0000000000
     15768       126  QMPE      P             -21.7516728081      -45.0332322736       18.2069707732  MEMB      126             0.0000000000
     15769       126  QMPE      O13           -20.9772800871      -44.1968221757       17.2798467660  MEMB      126             0.0000000000
     15770       126  QMPE      O14           -23.0462630572      -44.5581809271       18.6547292422  MEMB      126             0.0000000000
     15771       126  QMPE      O11           -21.9367418209      -46.4603976653       17.5155473769  MEMB      126             0.0000000000
     15772       126  QMPE      O12           -20.8665517009      -45.4398793983       19.4118644106  MEMB      126             0.0000000000
     15773       126  QMPE      C1            -23.1032501887      -46.8185067880       16.8176775434  MEMB      126             0.0000000000
     15774       126  QMPE      HA            -23.2800432112      -46.0856157127       16.0016285595  MEMB      126             0.0000000000
     15775       126  QMPE      HB            -24.0829136660      -46.8692971795       17.3392145059  MEMB      126             0.0000000000
     15776       126  QMPE      C2            -23.1232385622      -48.1876256247       16.1087761663  MEMB      126             0.0000000000
     15777       126  QMPE      HS            -23.1680697937      -49.0035417331       16.8614994603  MEMB      126             0.0000000000
     15778       126  QMPE      O21           -21.8885155691      -48.2827497287       15.3396408962  MEMB      126             0.0000000000
     15779       126  QMPE      C21           -20.7471939712      -48.6464695343       15.8946407604  MEMB      126             0.0000000000
     15780       126  QMPE      O22           -20.6430898758      -48.9636761876       17.0536652614  MEMB      126             0.0000000000
     15781       126  QMPE      C22           -19.6084732532      -48.7271944617       14.8975086457  MEMB      126             0.0000000000
     15782       126  QMPE      H2R           -20.0512706449      -48.7151197477       13.8786340056  MEMB      126             0.0000000000
     15783       126  QMPE      H2S           -18.9997558361      -49.6329492865       15.1058162643  MEMB      126             0.0000000000
     15784       126  QMPE      C3            -24.4136257862      -48.2579746336       15.2340211347  MEMB      126             0.0000000000
     15785       126  QMPE      HX            -25.3087637792      -48.1557577940       15.8840982003  MEMB      126             0.0000000000
     15786       126  QMPE      HY            -24.4319029595      -49.2227419982       14.6833749424  MEMB      126             0.0000000000
     15787       126  QMPE      O31           -24.5363587272      -47.1078088810       14.3769757232  MEMB      126             0.0000000000
     15788       126  QMPE      C31           -23.8720388826      -47.2252441957       13.1745729733  MEMB      126             0.0000000000
     15789       126  QMPE      O32           -23.1114580980      -48.0973040108       12.8557781450  MEMB      126             0.0000000000
     15790       126  QMPE      C32           -24.2202847078      -45.9686203220       12.2946223208  MEMB      126             0.0000000000
     15791       126  QMPE      H2X           -25.3108973069      -45.7862078166       12.1868692493  MEMB      126             0.0000000000
     15792       126  QMPE      H2Y           -23.7431936601      -45.1932930907       12.9314683575  MEMB      126             0.0000000000
     15793       126  QMPE      C23           -18.6607236925      -47.5255677183       15.0620908173  MEMB      126             0.0000000000
     15794       126  QMPE      H3R           -17.7422139249      -47.9237017356       15.5439103194  MEMB      126             0.0000000000
     15795       126  QMPE      H3S           -19.0889104481      -46.7283254442       15.7065918608  MEMB      126             0.0000000000
     15796       126  QMPE      C24           -18.2862087305      -46.8583453331       13.6526542740  MEMB      126             0.0000000000
     15797       126  QMPE      H4R           -18.0144967652      -47.6716893718       12.9462798257  MEMB      126             0.0000000000
     15798       126  QMPE      H4S           -17.3624042151      -46.3067661202       13.9295413120  MEMB      126             0.0000000000
     15799       126  QMPE      C25           -19.3692852952      -46.0317360607       12.9729490303  MEMB      126             0.0000000000
     15800       126  QMPE      H5R           -19.8914926321      -45.3265403675       13.6543591648  MEMB      126             0.0000000000
     15801       126  QMPE      H5S           -20.1500521937      -46.7788451130       12.7149720196  MEMB      126             0.0000000000
     15802       126  QMPE      C26           -18.9561395838      -45.2179328370       11.7039156239  MEMB      126             0.0000000000
     15803       126  QMPE      H6R           -18.2189379464      -44.4569700923       12.0382662643  MEMB      126             0.0000000000
     15804       126  QMPE      H6S           -19.8604252030      -44.6569044336       11.3847985997  MEMB      126             0.0000000000
     15805       126  QMPE      C27           -18.3362530740      -46.1002253900       10.5185378264  MEMB      126             0.0000000000
     15806       126  QMPE      H7R           -19.0690554955      -46.9140969891       10.3316296083  MEMB      126             0.0000000000
     15807       126  QMPE      H7S           -17.4621640003      -46.6954062473       10.8591974794  MEMB      126             0.0000000000
     15808       126  QMPE      C28           -17.9080115370      -45.3103178913        9.2968411798  MEMB      126             0.0000000000
     15809       126  QMPE      H8R           -17.3579501583      -44.3734596859        9.5293282520  MEMB      126             0.0000000000
     15810       126  QMPE      H8S           -18.8382006882      -44.9671523702        8.7955361830  MEMB      126             0.0000000000
     15811       126  QMPE      C29           -16.9028550077      -46.0524159894        8.4328705978  MEMB      126             0.0000000000
     15812       126  QMPE      H9R           -15.8371571885      -45.9136685773        8.7145766331  MEMB      126             0.0000000000
     15813       126  QMPE      C217          -17.0364969181      -45.8910266055        6.8820546545  MEMB      126             0.0000000000
     15814       126  QMPE      H17R          -17.9904422570      -45.5090327159        6.5400635374  MEMB      126             0.0000000000
     15815       126  QMPE      H17S          -16.0450088262      -45.8096289672        6.4540188049  MEMB      126             0.0000000000
     15816       126  QMPE      C210          -17.2073650840      -47.2342342303        7.5778797112  MEMB      126             0.0000000000
     15817       126  QMPE      H10R          -16.4452275289      -47.9979282726        7.3128534513  MEMB      126             0.0000000000
     15818       126  QMPE      C211          -18.5966328754      -47.8734267171        7.6386075487  MEMB      126             0.0000000000
     15819       126  QMPE      H11R          -18.6387071436      -48.4747854379        8.5718376340  MEMB      126             0.0000000000
     15820       126  QMPE      H11S          -19.3447678649      -47.0536684559        7.5875075968  MEMB      126             0.0000000000
     15821       126  QMPE      C212          -18.7219680442      -48.8962236474        6.4641325432  MEMB      126             0.0000000000
     15822       126  QMPE      H12R          -19.5797679974      -49.5814266156        6.6344191141  MEMB      126             0.0000000000
     15823       126  QMPE      H12S          -17.8146771576      -49.5351888029        6.4105836877  MEMB      126             0.0000000000
     15824       126  QMPE      C213          -18.9213898745      -48.1935466149        5.1609147199  MEMB      126             0.0000000000
     15825       126  QMPE      H13R          -18.0387968509      -47.5650598209        4.9152430752  MEMB      126             0.0000000000
     15826       126  QMPE      H13S          -19.7152090858      -47.4186245428        5.1003511431  MEMB      126             0.0000000000
     15827       126  QMPE      C214          -19.0707494382      -49.0927373554        3.9375137494  MEMB      126             0.0000000000
     15828       126  QMPE      H14R          -18.6854011652      -50.0849310918        4.2559151967  MEMB      126             0.0000000000
     15829       126  QMPE      H14S          -18.2718940975      -48.7636388399        3.2390546910  MEMB      126             0.0000000000
     15830       126  QMPE      C215          -20.4840311428      -49.2605132143        3.2241886269  MEMB      126             0.0000000000
     15831       126  QMPE      H15R          -20.7376845508      -48.2237180458        2.9159082204  MEMB      126             0.0000000000
     15832       126  QMPE      H15S          -21.1252723631      -49.7584650098        3.9825911415  MEMB      126             0.0000000000
     15833       126  QMPE      C216          -20.4263201110      -50.2417895009        2.0159239681  MEMB      126             0.0000000000
     15834       126  QMPE      H16R          -19.5574847069      -49.9839520516        1.3732994047  MEMB      126             0.0000000000
     15835       126  QMPE      H16S          -21.3623757082      -50.2962636340        1.4199774037  MEMB      126             0.0000000000
     15836       126  QMPE      H16T          -20.4645112013      -51.2723069394        2.4293199597  MEMB      126             0.0000000000
     15837       126  QMPE      C33           -23.8063060852      -46.0581909153       10.8324109370  MEMB      126             0.0000000000
     15838       126  QMPE      H3X           -24.3283689691      -45.2713680965       10.2470208545  MEMB      126             0.0000000000
     15839       126  QMPE      H3Y           -24.1355852874      -47.0702891940       10.5137363766  MEMB      126             0.0000000000
     15840       126  QMPE      C34           -22.2802223186      -45.7782282681       10.6145220385  MEMB      126             0.0000000000
     15841       126  QMPE      H4X           -21.7111770540      -46.7289633319       10.5332122624  MEMB      126             0.0000000000
     15842       126  QMPE      H4Y           -21.9303743420      -45.0616593575       11.3881220246  MEMB      126             0.0000000000
     15843       126  QMPE      C35           -21.8793064465      -45.0758658773        9.3144665230  MEMB      126             0.0000000000
     15844       126  QMPE      H5X           -20.7981452096      -44.8391075652        9.4111963871  MEMB      126             0.0000000000
     15845       126  QMPE      H5Y           -22.3580147716      -44.0733005044        9.3191464883  MEMB      126             0.0000000000
     15846       126  QMPE      C36           -22.2991707647      -45.8660447600        8.0340721761  MEMB      126             0.0000000000
     15847       126  QMPE      H6X           -23.3950535656      -46.0373371239        8.0974805172  MEMB      126             0.0000000000
     15848       126  QMPE      H6Y           -21.8370870526      -46.8760241642        8.0068422732  MEMB      126             0.0000000000
     15849       126  QMPE      C37           -22.1670728358      -45.0025852036        6.7559235411  MEMB      126             0.0000000000
     15850       126  QMPE      H7X           -22.9492308584      -44.2426849448        6.9682955774  MEMB      126             0.0000000000
     15851       126  QMPE      H7Y           -21.1365361580      -44.5936733018        6.8273807225  MEMB      126             0.0000000000
     15852       126  QMPE      C38           -22.3664367206      -45.6996445964        5.4320197470  MEMB      126             0.0000000000
     15853       126  QMPE      H8X           -21.7515459482      -46.6249709001        5.4330849807  MEMB      126             0.0000000000
     15854       126  QMPE      H8Y           -23.4630810323      -45.8769371021        5.4158989254  MEMB      126             0.0000000000
     15855       126  QMPE      C39           -22.0575491405      -44.9467235313        4.0823502268  MEMB      126             0.0000000000
     15856       126  QMPE      H9X           -22.2051580713      -43.8726609468        4.3250882792  MEMB      126             0.0000000000
     15857       126  QMPE      H9Y           -22.8891977242      -45.1205138913        3.3664743333  MEMB      126             0.0000000000
     15858       126  QMPE      C310          -20.5988568003      -45.2468295971        3.5603114294  MEMB      126             0.0000000000
     15859       126  QMPE      H10X          -20.5990934128      -46.1705702718        2.9430393867  MEMB      126             0.0000000000
     15860       126  QMPE      H10Y          -19.7826495987      -45.3455689214        4.3075577610  MEMB      126             0.0000000000
     15861       126  QMPE      C311          -19.9798333131      -44.0647289818        2.7141088608  MEMB      126             0.0000000000
     15862       126  QMPE      H11X          -19.3959046370      -43.3593116022        3.3431835773  MEMB      126             0.0000000000
     15863       126  QMPE      H11Y          -20.8005747423      -43.4406650159        2.3002871100  MEMB      126             0.0000000000
     15864       126  QMPE      C312          -19.1194799792      -44.5883270730        1.5975523973  MEMB      126             0.0000000000
     15865       126  QMPE      H12X          -18.6946220655      -43.7543064869        0.9990333438  MEMB      126             0.0000000000
     15866       126  QMPE      H12Y          -19.7850018834      -45.1191243864        0.8836512649  MEMB      126             0.0000000000
     15867       126  QMPE      C313          -18.0106893262      -45.5238369524        1.9412853803  MEMB      126             0.0000000000
     15868       126  QMPE      H13X          -18.3776691566      -46.5177458909        2.2756380673  MEMB      126             0.0000000000
     15869       126  QMPE      H13Y          -17.4293358908      -45.6629292163        1.0047996797  MEMB      126             0.0000000000
     15870       126  QMPE      C314          -17.0844369868      -44.9863920912        3.0925967664  MEMB      126             0.0000000000
     15871       126  QMPE      H14X          -16.4579957093      -45.8457080165        3.4142619080  MEMB      126             0.0000000000
     15872       126  QMPE      H14Y          -17.7177243923      -44.8065328444        3.9875371385  MEMB      126             0.0000000000
     15873       126  QMPE      C315          -16.2589203842      -43.8185134017        2.6977279459  MEMB      126             0.0000000000
     15874       126  QMPE      H15X          -16.8676147492      -42.8890993376        2.6988878722  MEMB      126             0.0000000000
     15875       126  QMPE      H15Y          -15.4743989829      -43.5739750173        3.4454225716  MEMB      126             0.0000000000
     15876       126  QMPE      H15Z          -15.7521841087      -44.0602568865        1.7390301691  MEMB      126             0.0000000000
     15877       127  PYPG      C13           -41.2395838869       27.5906845855       19.0236586442  MEMB      127             0.0000000000
     15878       127  PYPG      H13A          -41.0516306752       26.7709963594       19.7496792931  MEMB      127             0.0000000000
     15879       127  PYPG      H13B          -42.2087494562       28.0463704263       19.3192759619  MEMB      127             0.0000000000
     15880       127  PYPG      OC3           -41.3020883692       26.8645227005       17.7717044299  MEMB      127             0.0000000000
     15881       127  PYPG      HO3           -40.7248761844       26.1048114588       17.8778390385  MEMB      127             0.0000000000
     15882       127  PYPG      C12           -40.2350272929       28.7793390931       19.0860563659  MEMB      127             0.0000000000
     15883       127  PYPG      H12A          -39.3259649936       28.4748444699       18.5171382693  MEMB      127             0.0000000000
     15884       127  PYPG      OC2           -39.8468051136       29.0249625066       20.4384592527  MEMB      127             0.0000000000
     15885       127  PYPG      HO2           -39.3348016605       29.8606013906       20.3730607841  MEMB      127             0.0000000000
     15886       127  PYPG      C11           -40.7785816130       30.1472638190       18.4232697970  MEMB      127             0.0000000000
     15887       127  PYPG      H11A          -41.7505328948       30.4109798067       18.8924026353  MEMB      127             0.0000000000
     15888       127  PYPG      H11B          -40.9693806074       30.0457545013       17.3334933395  MEMB      127             0.0000000000
     15889       127  PYPG      P             -40.1737714320       32.6044868077       19.1165350396  MEMB      127             0.0000000000
     15890       127  PYPG      O13           -39.0026050358       33.4619484818       19.3058565346  MEMB      127             0.0000000000
     15891       127  PYPG      O14           -41.0008853943       32.4282098670       20.2808771657  MEMB      127             0.0000000000
     15892       127  PYPG      O11           -41.0229312913       33.1860035997       17.9023298543  MEMB      127             0.0000000000
     15893       127  PYPG      O12           -39.8005365697       31.1065155394       18.6512529059  MEMB      127             0.0000000000
     15894       127  PYPG      C1            -40.3085978495       33.2334291834       16.6566902494  MEMB      127             0.0000000000
     15895       127  PYPG      HA            -39.5048783941       32.4821370324       16.5020424693  MEMB      127             0.0000000000
     15896       127  PYPG      HB            -39.7728658543       34.2067288956       16.6570145126  MEMB      127             0.0000000000
     15897       127  PYPG      C2            -41.2556306415       33.0840218339       15.4757552453  MEMB      127             0.0000000000
     15898       127  PYPG      HS            -41.9112709607       33.9750863916       15.3734785350  MEMB      127             0.0000000000
     15899       127  PYPG      O21           -42.1004127096       31.9427413858       15.7538843035  MEMB      127             0.0000000000
     15900       127  PYPG      C21           -43.2369231366       31.8763770302       15.0570243345  MEMB      127             0.0000000000
     15901       127  PYPG      O22           -43.6635019067       32.6877020788       14.2847876055  MEMB      127             0.0000000000
     15902       127  PYPG      C22           -43.9642144175       30.5825139761       15.3234142553  MEMB      127             0.0000000000
     15903       127  PYPG      H2R           -44.6403741532       30.6681453862       16.2007945203  MEMB      127             0.0000000000
     15904       127  PYPG      H2S           -43.3274345643       29.6969302504       15.5345392327  MEMB      127             0.0000000000
     15905       127  PYPG      C3            -40.4840139776       32.8947154525       14.0966736496  MEMB      127             0.0000000000
     15906       127  PYPG      HX            -39.8838615615       33.8084464845       13.8985988759  MEMB      127             0.0000000000
     15907       127  PYPG      HY            -41.2486355242       32.7523089406       13.3033294102  MEMB      127             0.0000000000
     15908       127  PYPG      O31           -39.5810155942       31.7590609940       14.1407744240  MEMB      127             0.0000000000
     15909       127  PYPG      C31           -38.9201195822       31.5593674424       13.0171602293  MEMB      127             0.0000000000
     15910       127  PYPG      O32           -38.9958716737       32.2196038553       11.9887572729  MEMB      127             0.0000000000
     15911       127  PYPG      C32           -38.1110871152       30.3195076311       13.1918796729  MEMB      127             0.0000000000
     15912       127  PYPG      H2X           -37.0258235282       30.5542953905       13.2292783217  MEMB      127             0.0000000000
     15913       127  PYPG      H2Y           -38.3421259706       29.8190152531       14.1564777031  MEMB      127             0.0000000000
     15914       127  PYPG      C23           -44.8534179891       30.1166028575       14.0627775241  MEMB      127             0.0000000000
     15915       127  PYPG      H3R           -45.4168587652       31.0473302776       13.8378295314  MEMB      127             0.0000000000
     15916       127  PYPG      H3S           -45.5838372678       29.3564611033       14.4134813873  MEMB      127             0.0000000000
     15917       127  PYPG      C24           -44.0409060522       29.6186369066       12.9426631694  MEMB      127             0.0000000000
     15918       127  PYPG      H4R           -43.4802835504       28.8095937294       13.4579033575  MEMB      127             0.0000000000
     15919       127  PYPG      H4S           -43.4136225422       30.4804441166       12.6294148737  MEMB      127             0.0000000000
     15920       127  PYPG      C25           -44.8798003538       29.1989033532       11.7423377653  MEMB      127             0.0000000000
     15921       127  PYPG      H5R           -45.4467719467       30.0748661198       11.3608232395  MEMB      127             0.0000000000
     15922       127  PYPG      H5S           -45.6719658997       28.5066556138       12.0995323670  MEMB      127             0.0000000000
     15923       127  PYPG      C26           -44.1278828835       28.4374141864       10.6845997231  MEMB      127             0.0000000000
     15924       127  PYPG      H6R           -44.6822798121       28.5607092016        9.7297370989  MEMB      127             0.0000000000
     15925       127  PYPG      H6S           -44.3217205765       27.3929514120       11.0099385491  MEMB      127             0.0000000000
     15926       127  PYPG      C27           -42.6011277272       28.6399354857       10.6231883311  MEMB      127             0.0000000000
     15927       127  PYPG      H7R           -42.1794960234       27.8100877210       10.0166412489  MEMB      127             0.0000000000
     15928       127  PYPG      H7S           -42.0573019554       28.5765902859       11.5899163868  MEMB      127             0.0000000000
     15929       127  PYPG      C28           -42.2604736868       29.9722216237        9.9395183768  MEMB      127             0.0000000000
     15930       127  PYPG      H8R           -42.5008981591       30.8058327314       10.6334990656  MEMB      127             0.0000000000
     15931       127  PYPG      H8S           -42.9495123811       30.1195678841        9.0805446816  MEMB      127             0.0000000000
     15932       127  PYPG      C29           -40.7934828967       30.0590444323        9.4650435524  MEMB      127             0.0000000000
     15933       127  PYPG      H9R           -40.1100618302       29.3381786070        9.9375773325  MEMB      127             0.0000000000
     15934       127  PYPG      C210          -40.2373119807       30.7524223297        8.4752301106  MEMB      127             0.0000000000
     15935       127  PYPG      H10R          -39.1496928174       30.7424995124        8.3109561480  MEMB      127             0.0000000000
     15936       127  PYPG      C211          -40.9883086093       31.6935475873        7.5575172654  MEMB      127             0.0000000000
     15937       127  PYPG      H11R          -40.4618726584       32.6685479405        7.6385134670  MEMB      127             0.0000000000
     15938       127  PYPG      H11S          -41.9803445309       31.8428970247        8.0348855149  MEMB      127             0.0000000000
     15939       127  PYPG      C212          -40.9713814852       31.0618005392        6.1878777648  MEMB      127             0.0000000000
     15940       127  PYPG      H12R          -41.5759591678       30.1297288364        6.1948796718  MEMB      127             0.0000000000
     15941       127  PYPG      H12S          -39.9627540272       30.7874613926        5.8114080580  MEMB      127             0.0000000000
     15942       127  PYPG      C213          -41.6640261391       31.9321949165        5.1045105261  MEMB      127             0.0000000000
     15943       127  PYPG      H13R          -41.3573333718       32.9892721179        5.2556654197  MEMB      127             0.0000000000
     15944       127  PYPG      H13S          -42.7234948524       31.9412395669        5.4388236974  MEMB      127             0.0000000000
     15945       127  PYPG      C214          -41.3738235697       31.5039343149        3.6615314685  MEMB      127             0.0000000000
     15946       127  PYPG      H14R          -40.3850025212       30.9979029839        3.6394845266  MEMB      127             0.0000000000
     15947       127  PYPG      H14S          -42.1756777022       30.7581931135        3.4738583448  MEMB      127             0.0000000000
     15948       127  PYPG      C215          -41.4367563454       32.5112106124        2.4999173735  MEMB      127             0.0000000000
     15949       127  PYPG      H15R          -40.9360569167       33.4565566202        2.7998205778  MEMB      127             0.0000000000
     15950       127  PYPG      H15S          -42.4478300466       32.9515969491        2.3653399969  MEMB      127             0.0000000000
     15951       127  PYPG      C216          -40.9287540827       32.0858747446        1.1484788248  MEMB      127             0.0000000000
     15952       127  PYPG      H16R          -40.8157611665       33.0644401127        0.6347047428  MEMB      127             0.0000000000
     15953       127  PYPG      H16S          -41.5981139521       31.4251398002        0.5571181168  MEMB      127             0.0000000000
     15954       127  PYPG      H16T          -40.0469096408       31.4138309456        1.2193900523  MEMB      127             0.0000000000
     15955       127  PYPG      C33           -38.4194605062       29.3530674029       12.0271580130  MEMB      127             0.0000000000
     15956       127  PYPG      H3X           -38.6445916308       29.9711047475       11.1317993599  MEMB      127             0.0000000000
     15957       127  PYPG      H3Y           -39.3529272830       28.7873573563       12.2343605897  MEMB      127             0.0000000000
     15958       127  PYPG      C34           -37.2679669108       28.3625662299       11.5989031665  MEMB      127             0.0000000000
     15959       127  PYPG      H4X           -36.9116093740       27.8553754484       12.5209050626  MEMB      127             0.0000000000
     15960       127  PYPG      H4Y           -36.4461425772       28.9754569353       11.1707785446  MEMB      127             0.0000000000
     15961       127  PYPG      C35           -37.6820818619       27.3208521805       10.5475269962  MEMB      127             0.0000000000
     15962       127  PYPG      H5X           -38.6757657350       26.9715351364       10.9009261728  MEMB      127             0.0000000000
     15963       127  PYPG      H5Y           -36.9489214390       26.5052698905       10.7253548507  MEMB      127             0.0000000000
     15964       127  PYPG      C36           -37.7294379158       27.8346634347        9.0997059987  MEMB      127             0.0000000000
     15965       127  PYPG      H6X           -36.7067408737       28.1964504970        8.8598692432  MEMB      127             0.0000000000
     15966       127  PYPG      H6Y           -38.4258616823       28.7001148493        9.1172738357  MEMB      127             0.0000000000
     15967       127  PYPG      C37           -38.1843110356       26.8274696407        7.9977300752  MEMB      127             0.0000000000
     15968       127  PYPG      H7X           -37.7882150175       25.8343415300        8.2995996953  MEMB      127             0.0000000000
     15969       127  PYPG      H7Y           -39.2902243425       26.9234638980        7.9523230668  MEMB      127             0.0000000000
     15970       127  PYPG      C38           -37.7076807759       27.1951444421        6.5839821326  MEMB      127             0.0000000000
     15971       127  PYPG      H8X           -36.6095057473       27.3268347023        6.6888176596  MEMB      127             0.0000000000
     15972       127  PYPG      H8Y           -38.1202044501       28.1810678252        6.2805021161  MEMB      127             0.0000000000
     15973       127  PYPG      C39           -37.9913030549       26.0369877152        5.5387630952  MEMB      127             0.0000000000
     15974       127  PYPG      H9X           -37.6776528043       25.1238528936        6.0884258950  MEMB      127             0.0000000000
     15975       127  PYPG      H9Y           -37.3462759919       26.1958308240        4.6482406825  MEMB      127             0.0000000000
     15976       127  PYPG      C310          -39.4488966059       25.8340218854        5.1240710519  MEMB      127             0.0000000000
     15977       127  PYPG      H10X          -40.1583978387       25.9698761778        5.9681515074  MEMB      127             0.0000000000
     15978       127  PYPG      H10Y          -39.4707550257       24.8003315730        4.7174667324  MEMB      127             0.0000000000
     15979       127  PYPG      C311          -39.8187012119       26.7122233916        3.9918372162  MEMB      127             0.0000000000
     15980       127  PYPG      H11X          -39.3515567424       26.2069106021        3.1196245430  MEMB      127             0.0000000000
     15981       127  PYPG      H11Y          -39.4412664247       27.7564848136        4.0290160040  MEMB      127             0.0000000000
     15982       127  PYPG      C312          -41.3336936541       26.7439249709        3.7739531234  MEMB      127             0.0000000000
     15983       127  PYPG      H12X          -41.6309836277       25.6749735820        3.8312456700  MEMB      127             0.0000000000
     15984       127  PYPG      H12Y          -41.8394584844       27.3149638872        4.5816900648  MEMB      127             0.0000000000
     15985       127  PYPG      C313          -41.8621833478       27.4838942856        2.5976204587  MEMB      127             0.0000000000
     15986       127  PYPG      H13X          -41.6549780804       28.5555325599        2.8049341174  MEMB      127             0.0000000000
     15987       127  PYPG      H13Y          -41.2081198567       27.3684184031        1.7070105850  MEMB      127             0.0000000000
     15988       127  PYPG      C314          -43.3548581989       27.2330935140        2.3245550925  MEMB      127             0.0000000000
     15989       127  PYPG      H14X          -43.9861593751       27.0119010337        3.2116031585  MEMB      127             0.0000000000
     15990       127  PYPG      H14Y          -43.6382532002       28.1885366602        1.8334989341  MEMB      127             0.0000000000
     15991       127  PYPG      C315          -43.6622240677       26.1804673233        1.2571253731  MEMB      127             0.0000000000
     15992       127  PYPG      H15X          -44.7416435555       26.4249306247        1.1601077290  MEMB      127             0.0000000000
     15993       127  PYPG      H15Y          -43.1592586809       26.3732124820        0.2854289042  MEMB      127             0.0000000000
     15994       127  PYPG      C316          -43.5499395610       24.7651845178        1.7651044239  MEMB      127             0.0000000000
     15995       127  PYPG      H16X          -44.0743778817       24.0553862522        1.0902172946  MEMB      127             0.0000000000
     15996       127  PYPG      H16Y          -43.9301379915       24.7217625056        2.8081202433  MEMB      127             0.0000000000
     15997       127  PYPG      H16Z          -42.4853811803       24.4598225474        1.6768387664  MEMB      127             0.0000000000
     15998       128  PYPG      C13            48.4541477492       12.2976578749       20.1020324060  MEMB      128             0.0000000000
     15999       128  PYPG      H13A           49.4137821387       12.0769340437       19.5875386521  MEMB      128             0.0000000000
     16000       128  PYPG      H13B           48.7409496793       13.0869637915       20.8293986670  MEMB      128             0.0000000000
     16001       128  PYPG      OC3            48.2030367641       11.1420360845       20.8166190747  MEMB      128             0.0000000000
     16002       128  PYPG      HO3            47.8287663377       10.5063734413       20.2022456620  MEMB      128             0.0000000000
     16003       128  PYPG      C12            47.3559066957       12.7885039691       19.1581933274  MEMB      128             0.0000000000
     16004       128  PYPG      H12A           46.5346765998       13.1987730982       19.7906800161  MEMB      128             0.0000000000
     16005       128  PYPG      OC2            46.8284764155       11.6948162243       18.4060594920  MEMB      128             0.0000000000
     16006       128  PYPG      HO2            46.2440701423       12.1375660481       17.7524856695  MEMB      128             0.0000000000
     16007       128  PYPG      C11            47.8179971252       13.9054653882       18.2107953987  MEMB      128             0.0000000000
     16008       128  PYPG      H11A           47.0006567693       14.4252361152       17.6666316396  MEMB      128             0.0000000000
     16009       128  PYPG      H11B           48.4695564670       13.4464571474       17.4367780786  MEMB      128             0.0000000000
     16010       128  PYPG      P              50.0666434122       15.2904361139       18.7137883784  MEMB      128             0.0000000000
     16011       128  PYPG      O13            51.0068386812       14.3909880668       19.3912457076  MEMB      128             0.0000000000
     16012       128  PYPG      O14            50.2330854503       16.6801955593       19.0383411491  MEMB      128             0.0000000000
     16013       128  PYPG      O11            50.1595384570       15.1418099986       17.1806539575  MEMB      128             0.0000000000
     16014       128  PYPG      O12            48.4793272480       14.9112987202       18.9822711500  MEMB      128             0.0000000000
     16015       128  PYPG      C1             51.4369069513       15.1653248562       16.4620094976  MEMB      128             0.0000000000
     16016       128  PYPG      HA             52.2454353487       15.0598915394       17.2166527629  MEMB      128             0.0000000000
     16017       128  PYPG      HB             51.5540564120       16.1409419192       15.9435805769  MEMB      128             0.0000000000
     16018       128  PYPG      C2             51.5429561071       13.9870323294       15.4057162043  MEMB      128             0.0000000000
     16019       128  PYPG      HS             52.5057408158       14.1499781140       14.8757959541  MEMB      128             0.0000000000
     16020       128  PYPG      O21            50.4164649212       14.0037357583       14.4987878003  MEMB      128             0.0000000000
     16021       128  PYPG      C21            50.1316435986       15.0222564568       13.7866249996  MEMB      128             0.0000000000
     16022       128  PYPG      O22            50.8261613192       16.0288782318       13.7608379616  MEMB      128             0.0000000000
     16023       128  PYPG      C22            48.8922604535       14.6377030330       12.9476800549  MEMB      128             0.0000000000
     16024       128  PYPG      H2R            49.0942264622       13.8774667196       12.1630961888  MEMB      128             0.0000000000
     16025       128  PYPG      H2S            48.5228063983       15.5969428152       12.5261542924  MEMB      128             0.0000000000
     16026       128  PYPG      C3             51.5283546987       12.6579375923       16.1917378724  MEMB      128             0.0000000000
     16027       128  PYPG      HX             50.6836068408       12.7669454432       16.9050675704  MEMB      128             0.0000000000
     16028       128  PYPG      HY             52.5168505697       12.6002410082       16.6955912752  MEMB      128             0.0000000000
     16029       128  PYPG      O31            51.3678971863       11.6284989898       15.2629373686  MEMB      128             0.0000000000
     16030       128  PYPG      C31            50.6028132502       10.6114489611       15.6856852668  MEMB      128             0.0000000000
     16031       128  PYPG      O32            49.8359989424       10.5823096035       16.6487759731  MEMB      128             0.0000000000
     16032       128  PYPG      C32            50.7027945790        9.4168262346       14.7549731407  MEMB      128             0.0000000000
     16033       128  PYPG      H2X            51.7755069768        9.1311911173       14.7100105894  MEMB      128             0.0000000000
     16034       128  PYPG      H2Y            50.1805619195        8.5385847092       15.1911913887  MEMB      128             0.0000000000
     16035       128  PYPG      C23            47.9019055664       14.1198920492       13.9457979694  MEMB      128             0.0000000000
     16036       128  PYPG      H3R            47.9286082061       14.7268622664       14.8759568143  MEMB      128             0.0000000000
     16037       128  PYPG      H3S            48.1853274301       13.1141138690       14.3231615564  MEMB      128             0.0000000000
     16038       128  PYPG      C24            46.4984182153       14.0756257906       13.4118498520  MEMB      128             0.0000000000
     16039       128  PYPG      H4R            46.2669211967       15.1257724583       13.1327049391  MEMB      128             0.0000000000
     16040       128  PYPG      H4S            45.7798785218       13.7851870801       14.2078820500  MEMB      128             0.0000000000
     16041       128  PYPG      C25            46.3862251802       13.1291657282       12.2503741050  MEMB      128             0.0000000000
     16042       128  PYPG      H5R            46.8493796264       12.1743247959       12.5791407097  MEMB      128             0.0000000000
     16043       128  PYPG      H5S            47.0545143296       13.4623434729       11.4277543397  MEMB      128             0.0000000000
     16044       128  PYPG      C26            44.9266490268       12.8861212409       11.7522352741  MEMB      128             0.0000000000
     16045       128  PYPG      H6R            44.6998938036       13.8600078652       11.2680371429  MEMB      128             0.0000000000
     16046       128  PYPG      H6S            44.3298907692       12.7247745934       12.6753644080  MEMB      128             0.0000000000
     16047       128  PYPG      C27            44.7236877997       11.6225938083       10.9277515193  MEMB      128             0.0000000000
     16048       128  PYPG      H7R            43.7289354339       11.6948301226       10.4382921567  MEMB      128             0.0000000000
     16049       128  PYPG      H7S            44.6785123156       10.8402129886       11.7152541552  MEMB      128             0.0000000000
     16050       128  PYPG      C28            45.7898602832       11.2489704185       10.0040035375  MEMB      128             0.0000000000
     16051       128  PYPG      H8R            45.5362581990       10.2149325249        9.6865559551  MEMB      128             0.0000000000
     16052       128  PYPG      H8S            46.7887721281       11.0851103264       10.4618741710  MEMB      128             0.0000000000
     16053       128  PYPG      C29            45.9110408794       12.2057334588        8.8829290194  MEMB      128             0.0000000000
     16054       128  PYPG      H9R            46.0931623746       13.2118763677        9.2885249834  MEMB      128             0.0000000000
     16055       128  PYPG      C210           45.7712135088       11.9277159357        7.6097579122  MEMB      128             0.0000000000
     16056       128  PYPG      H10R           46.0210551930       12.7056821319        6.8733151863  MEMB      128             0.0000000000
     16057       128  PYPG      C211           45.4593352399       10.5673025667        7.0045943361  MEMB      128             0.0000000000
     16058       128  PYPG      H11R           44.5325306653       10.2038728961        7.4978216152  MEMB      128             0.0000000000
     16059       128  PYPG      H11S           46.2829841066        9.8415199834        7.1753666784  MEMB      128             0.0000000000
     16060       128  PYPG      C212           45.0190804333       10.6032600601        5.5323213442  MEMB      128             0.0000000000
     16061       128  PYPG      H12R           44.3639188952       11.4817673737        5.3498125634  MEMB      128             0.0000000000
     16062       128  PYPG      H12S           44.4559072832        9.6548015288        5.3997167814  MEMB      128             0.0000000000
     16063       128  PYPG      C213           46.1151140924       10.5904173659        4.4498138371  MEMB      128             0.0000000000
     16064       128  PYPG      H13R           46.9613489338       11.2700665985        4.6870563818  MEMB      128             0.0000000000
     16065       128  PYPG      H13S           45.6244136001       10.9973968965        3.5399233816  MEMB      128             0.0000000000
     16066       128  PYPG      C214           46.6850642649        9.1649626447        4.3376707508  MEMB      128             0.0000000000
     16067       128  PYPG      H14R           47.2514086907        8.8652309076        5.2452704239  MEMB      128             0.0000000000
     16068       128  PYPG      H14S           45.8459870904        8.4564515247        4.1694976121  MEMB      128             0.0000000000
     16069       128  PYPG      C215           47.6526287830        9.1459155044        3.1419295227  MEMB      128             0.0000000000
     16070       128  PYPG      H15R           47.9642699134       10.2080497091        3.0466819903  MEMB      128             0.0000000000
     16071       128  PYPG      H15S           46.9537592256        8.9033655241        2.3130309282  MEMB      128             0.0000000000
     16072       128  PYPG      C216           48.8043485701        8.1344652644        3.1384400045  MEMB      128             0.0000000000
     16073       128  PYPG      H16R           49.6819608762        8.3055933873        2.4790216567  MEMB      128             0.0000000000
     16074       128  PYPG      H16S           48.4657285145        7.1233164711        2.8266142617  MEMB      128             0.0000000000
     16075       128  PYPG      H16T           49.1787281551        8.1700113914        4.1838578392  MEMB      128             0.0000000000
     16076       128  PYPG      C33            50.0703069595        9.8506129648       13.4789573982  MEMB      128             0.0000000000
     16077       128  PYPG      H3X            49.0758611563       10.3316391402       13.5973303498  MEMB      128             0.0000000000
     16078       128  PYPG      H3Y            49.9333213120        8.8537512469       13.0079772911  MEMB      128             0.0000000000
     16079       128  PYPG      C34            50.9728248784       10.6243802349       12.6127687656  MEMB      128             0.0000000000
     16080       128  PYPG      H4X            52.0227881814       10.3637513126       12.8656927354  MEMB      128             0.0000000000
     16081       128  PYPG      H4Y            50.7294742532       11.6724347717       12.8896857837  MEMB      128             0.0000000000
     16082       128  PYPG      C35            50.7705798040       10.4349985435       11.0879776156  MEMB      128             0.0000000000
     16083       128  PYPG      H5X            49.7115008563       10.3917993152       10.7551008714  MEMB      128             0.0000000000
     16084       128  PYPG      H5Y            51.0720399508        9.3986968475       10.8243068460  MEMB      128             0.0000000000
     16085       128  PYPG      C36            51.4213645992       11.4910201328       10.2418848107  MEMB      128             0.0000000000
     16086       128  PYPG      H6X            52.3369579586       11.7923040349       10.7943686514  MEMB      128             0.0000000000
     16087       128  PYPG      H6Y            50.8256606083       12.4287958569       10.2360060569  MEMB      128             0.0000000000
     16088       128  PYPG      C37            51.9166474330       10.9934019258        8.8298290641  MEMB      128             0.0000000000
     16089       128  PYPG      H7X            52.6934352205       11.7543100062        8.6019253836  MEMB      128             0.0000000000
     16090       128  PYPG      H7Y            52.4807942663       10.0489200345        8.9847928738  MEMB      128             0.0000000000
     16091       128  PYPG      C38            50.7981828755       10.6408052411        7.8393861460  MEMB      128             0.0000000000
     16092       128  PYPG      H8X            50.2470504931        9.8146108239        8.3373593885  MEMB      128             0.0000000000
     16093       128  PYPG      H8Y            51.2542287778       10.1562087018        6.9497184471  MEMB      128             0.0000000000
     16094       128  PYPG      C39            50.0686187109       11.8850265886        7.3519491262  MEMB      128             0.0000000000
     16095       128  PYPG      H9X            50.7886552136       12.6934244129        7.6016714205  MEMB      128             0.0000000000
     16096       128  PYPG      H9Y            49.2274916781       12.1306882214        8.0349393338  MEMB      128             0.0000000000
     16097       128  PYPG      C310           49.7868440378       11.8920965226        5.8294239088  MEMB      128             0.0000000000
     16098       128  PYPG      H10X           48.7616422119       11.4769527029        5.7248405329  MEMB      128             0.0000000000
     16099       128  PYPG      H10Y           50.4468368210       11.2438695549        5.2141741440  MEMB      128             0.0000000000
     16100       128  PYPG      C311           49.6320708137       13.2897467899        5.2597741868  MEMB      128             0.0000000000
     16101       128  PYPG      H11X           50.6041866597       13.8252785274        5.3099488947  MEMB      128             0.0000000000
     16102       128  PYPG      H11Y           48.9677860896       13.8897038490        5.9178757779  MEMB      128             0.0000000000
     16103       128  PYPG      C312           49.1148305263       13.2070293327        3.8372332112  MEMB      128             0.0000000000
     16104       128  PYPG      H12X           48.1349863372       12.7827618970        3.5302741873  MEMB      128             0.0000000000
     16105       128  PYPG      H12Y           48.9783306922       14.2746491216        3.5617754777  MEMB      128             0.0000000000
     16106       128  PYPG      C313           50.1760080697       12.7454110685        2.8442905346  MEMB      128             0.0000000000
     16107       128  PYPG      H13X           51.1446372012       13.2410667892        3.0687990735  MEMB      128             0.0000000000
     16108       128  PYPG      H13Y           50.2974682210       11.6417567839        2.8832209409  MEMB      128             0.0000000000
     16109       128  PYPG      C314           49.8533718116       13.3439595074        1.4782440575  MEMB      128             0.0000000000
     16110       128  PYPG      H14X           48.7470929466       13.3046736712        1.3837743092  MEMB      128             0.0000000000
     16111       128  PYPG      H14Y           49.9885016503       14.4420667140        1.3771427779  MEMB      128             0.0000000000
     16112       128  PYPG      C315           50.3775890835       12.5271681304        0.3256633563  MEMB      128             0.0000000000
     16113       128  PYPG      H15X           49.9861996199       13.0330774257       -0.5827366920  MEMB      128             0.0000000000
     16114       128  PYPG      H15Y           51.4706337544       12.7250334001        0.3462444446  MEMB      128             0.0000000000
     16115       128  PYPG      C316           50.1913187976       11.0052002363        0.1422947546  MEMB      128             0.0000000000
     16116       128  PYPG      H16X           49.2741684054       10.6418418886       -0.3687110354  MEMB      128             0.0000000000
     16117       128  PYPG      H16Y           50.2096631038       10.4609210429        1.1106655325  MEMB      128             0.0000000000
     16118       128  PYPG      H16Z           50.9468080139       10.5981284722       -0.5632902106  MEMB      128             0.0000000000
     16119       129  PMPE      N              52.2753343583       -0.8920325164       21.1443500512  MEMB      129             0.0000000000
     16120       129  PMPE      HN1            52.4641921354       -1.3455622213       20.2277019832  MEMB      129             0.0000000000
     16121       129  PMPE      HN2            52.6094995049       -1.6335683841       21.7924689875  MEMB      129             0.0000000000
     16122       129  PMPE      HN3            51.2949887914       -0.7433520301       21.4580643529  MEMB      129             0.0000000000
     16123       129  PMPE      C12            52.9121014701        0.4213023306       21.2698422925  MEMB      129             0.0000000000
     16124       129  PMPE      H12A           53.9558585025        0.3338512628       20.8993769962  MEMB      129             0.0000000000
     16125       129  PMPE      H12B           52.7686818890        0.7973254681       22.3053896926  MEMB      129             0.0000000000
     16126       129  PMPE      C11            52.1714917886        1.4898436039       20.4039295678  MEMB      129             0.0000000000
     16127       129  PMPE      H11A           52.4854851679        2.5234270222       20.6636117125  MEMB      129             0.0000000000
     16128       129  PMPE      H11B           51.0653006613        1.3887792557       20.4250951570  MEMB      129             0.0000000000
     16129       129  PMPE      P              51.6614102771        0.8545173431       17.8290003346  MEMB      129             0.0000000000
     16130       129  PMPE      O13            51.3420435087        2.0896034115       17.1270395478  MEMB      129             0.0000000000
     16131       129  PMPE      O14            50.5483897919       -0.0738473903       18.2046983077  MEMB      129             0.0000000000
     16132       129  PMPE      O11            52.5065283291       -0.0719830184       16.9573359953  MEMB      129             0.0000000000
     16133       129  PMPE      O12            52.6343776874        1.1635622813       19.0638039010  MEMB      129             0.0000000000
     16134       129  PMPE      C1             53.9096458858       -0.1266950115       16.7877829980  MEMB      129             0.0000000000
     16135       129  PMPE      HA             54.4319384846       -0.2688290290       17.7580041420  MEMB      129             0.0000000000
     16136       129  PMPE      HB             54.3362597968        0.8824504026       16.6035352753  MEMB      129             0.0000000000
     16137       129  PMPE      C2             54.3719330308       -1.1293346035       15.6734275031  MEMB      129             0.0000000000
     16138       129  PMPE      HS             55.4817662552       -1.1608028319       15.7134396393  MEMB      129             0.0000000000
     16139       129  PMPE      O21            53.9283493137       -0.7986744949       14.3258489056  MEMB      129             0.0000000000
     16140       129  PMPE      C21            54.6422793109       -1.3886167849       13.3163478118  MEMB      129             0.0000000000
     16141       129  PMPE      O22            55.5599398370       -2.1725639752       13.4712809374  MEMB      129             0.0000000000
     16142       129  PMPE      C22            54.1855930137       -0.9078714301       11.9039981022  MEMB      129             0.0000000000
     16143       129  PMPE      H2R            54.1782605864        0.1922976406       11.7494165746  MEMB      129             0.0000000000
     16144       129  PMPE      H2S            53.1158512611       -1.2072374534       11.8851945133  MEMB      129             0.0000000000
     16145       129  PMPE      C3             53.8567590451       -2.6190112947       16.0086926785  MEMB      129             0.0000000000
     16146       129  PMPE      HX             54.4182247091       -2.8636015260       16.9356516371  MEMB      129             0.0000000000
     16147       129  PMPE      HY             54.3523539627       -3.3079362605       15.2916928949  MEMB      129             0.0000000000
     16148       129  PMPE      O31            52.4234671688       -2.8085570489       16.0387929608  MEMB      129             0.0000000000
     16149       129  PMPE      C31            51.8278736662       -3.2596399533       14.9730007605  MEMB      129             0.0000000000
     16150       129  PMPE      O32            52.3571575194       -3.6536149481       13.9309024141  MEMB      129             0.0000000000
     16151       129  PMPE      C32            50.3563015698       -2.7787624830       15.1806042376  MEMB      129             0.0000000000
     16152       129  PMPE      H2X            50.3047070592       -1.7749866083       15.6539891899  MEMB      129             0.0000000000
     16153       129  PMPE      H2Y            49.7574510278       -3.4288605887       15.8537097565  MEMB      129             0.0000000000
     16154       129  PMPE      C23            55.0875750784       -1.6317321166       10.8843959402  MEMB      129             0.0000000000
     16155       129  PMPE      H3R            54.8115889286       -2.7070260952       10.9279355756  MEMB      129             0.0000000000
     16156       129  PMPE      H3S            56.1464347890       -1.3940810490       11.1224281461  MEMB      129             0.0000000000
     16157       129  PMPE      C24            54.8133010503       -1.2124536162        9.4158955967  MEMB      129             0.0000000000
     16158       129  PMPE      H4R            54.3727163210       -0.1945880046        9.3514324309  MEMB      129             0.0000000000
     16159       129  PMPE      H4S            54.1012635018       -1.8796179190        8.8846561303  MEMB      129             0.0000000000
     16160       129  PMPE      C25            56.1528697482       -1.0988554455        8.5889234406  MEMB      129             0.0000000000
     16161       129  PMPE      H5R            56.5074152649       -2.0876767301        8.2271903421  MEMB      129             0.0000000000
     16162       129  PMPE      H5S            56.9520325748       -0.6623531377        9.2254183509  MEMB      129             0.0000000000
     16163       129  PMPE      C26            56.0098727438       -0.1562112404        7.4253288413  MEMB      129             0.0000000000
     16164       129  PMPE      H6R            55.0862637477       -0.4076204147        6.8613601593  MEMB      129             0.0000000000
     16165       129  PMPE      H6S            56.8274172057       -0.2359919744        6.6772807744  MEMB      129             0.0000000000
     16166       129  PMPE      C27            56.0430000479        1.3230965635        7.8630783106  MEMB      129             0.0000000000
     16167       129  PMPE      H7R            57.0216262353        1.7846657962        8.1152012073  MEMB      129             0.0000000000
     16168       129  PMPE      H7S            55.4287711029        1.3432410544        8.7886254639  MEMB      129             0.0000000000
     16169       129  PMPE      C28            55.3277265644        2.2007676651        6.8154069866  MEMB      129             0.0000000000
     16170       129  PMPE      H8R            54.5535389703        1.5955138548        6.2971191941  MEMB      129             0.0000000000
     16171       129  PMPE      H8S            56.1288816805        2.4223567210        6.0782707793  MEMB      129             0.0000000000
     16172       129  PMPE      C29            54.6828840972        3.5008258113        7.3442344100  MEMB      129             0.0000000000
     16173       129  PMPE      H9R            55.2584703989        4.0788472009        8.0984975620  MEMB      129             0.0000000000
     16174       129  PMPE      C217           53.3050792798        3.3461124522        7.8376920389  MEMB      129             0.0000000000
     16175       129  PMPE      H17R           53.0354667087        4.0105579183        8.6493021685  MEMB      129             0.0000000000
     16176       129  PMPE      H17S           52.7453786709        2.5208846076        7.4150541986  MEMB      129             0.0000000000
     16177       129  PMPE      C210           53.6040836077        4.2009289212        6.6149634239  MEMB      129             0.0000000000
     16178       129  PMPE      H10R           53.6647578624        5.3037673610        6.7349084657  MEMB      129             0.0000000000
     16179       129  PMPE      C211           53.0576542628        3.6433965650        5.2603870641  MEMB      129             0.0000000000
     16180       129  PMPE      H11R           51.9490954930        3.6001995221        5.2007841423  MEMB      129             0.0000000000
     16181       129  PMPE      H11S           53.4752186804        2.6334655214        5.0603858101  MEMB      129             0.0000000000
     16182       129  PMPE      C212           53.5932987744        4.4412489395        4.1040130508  MEMB      129             0.0000000000
     16183       129  PMPE      H12R           53.4293396641        3.8150825828        3.2010431850  MEMB      129             0.0000000000
     16184       129  PMPE      H12S           54.6725033830        4.6178551138        4.3000969261  MEMB      129             0.0000000000
     16185       129  PMPE      C213           52.8888338004        5.7928620907        3.8714554739  MEMB      129             0.0000000000
     16186       129  PMPE      H13R           53.2445531653        6.3937962598        3.0073587796  MEMB      129             0.0000000000
     16187       129  PMPE      H13S           53.1072455909        6.4529677253        4.7379874003  MEMB      129             0.0000000000
     16188       129  PMPE      C214           51.3713743277        5.7422669224        3.6155642026  MEMB      129             0.0000000000
     16189       129  PMPE      H14R           51.0633838814        6.8080362417        3.5555817574  MEMB      129             0.0000000000
     16190       129  PMPE      H14S           50.7711153238        5.3067356682        4.4428028674  MEMB      129             0.0000000000
     16191       129  PMPE      C215           50.9431691636        5.0252523971        2.2598196691  MEMB      129             0.0000000000
     16192       129  PMPE      H15R           51.5628512397        5.3477715773        1.3959357535  MEMB      129             0.0000000000
     16193       129  PMPE      H15S           49.9424798672        5.4935201368        2.1429151690  MEMB      129             0.0000000000
     16194       129  PMPE      C216           50.8449357372        3.4748745381        2.2462294761  MEMB      129             0.0000000000
     16195       129  PMPE      H16R           50.6026418885        3.1320146037        3.2748497999  MEMB      129             0.0000000000
     16196       129  PMPE      H16S           50.0590094672        3.0349731422        1.5957462650  MEMB      129             0.0000000000
     16197       129  PMPE      H16T           51.8175261247        2.9785301996        2.0412121290  MEMB      129             0.0000000000
     16198       129  PMPE      C33            49.6935606310       -2.6056719882       13.7553800653  MEMB      129             0.0000000000
     16199       129  PMPE      H3X            48.6148134424       -2.5109114488       14.0036651808  MEMB      129             0.0000000000
     16200       129  PMPE      H3Y            49.9961494426       -3.4296475257       13.0743324581  MEMB      129             0.0000000000
     16201       129  PMPE      C34            50.0462882488       -1.3224055603       12.9346347074  MEMB      129             0.0000000000
     16202       129  PMPE      H4X            51.1411844103       -1.4369733040       12.7849761622  MEMB      129             0.0000000000
     16203       129  PMPE      H4Y            49.8490222694       -0.3680426448       13.4681125070  MEMB      129             0.0000000000
     16204       129  PMPE      C35            49.3720655680       -1.2477289250       11.5307766275  MEMB      129             0.0000000000
     16205       129  PMPE      H5X            48.2984618929       -1.0577656323       11.7443419712  MEMB      129             0.0000000000
     16206       129  PMPE      H5Y            49.7334212555       -2.0846731991       10.8957429943  MEMB      129             0.0000000000
     16207       129  PMPE      C36            49.9485162757       -0.0849292231       10.7434715982  MEMB      129             0.0000000000
     16208       129  PMPE      H6X            51.0559989854       -0.1583081898       10.7926503374  MEMB      129             0.0000000000
     16209       129  PMPE      H6Y            49.6045564209        0.8648871558       11.2059233150  MEMB      129             0.0000000000
     16210       129  PMPE      C37            49.6373166005       -0.0661343249        9.2577392139  MEMB      129             0.0000000000
     16211       129  PMPE      H7X            48.5411317620       -0.1722134416        9.1112905376  MEMB      129             0.0000000000
     16212       129  PMPE      H7Y            50.1213404846       -1.0070346245        8.9189936112  MEMB      129             0.0000000000
     16213       129  PMPE      C38            50.0956875318        1.2296537072        8.4782972057  MEMB      129             0.0000000000
     16214       129  PMPE      H8X            51.1009854073        1.4797263737        8.8797452849  MEMB      129             0.0000000000
     16215       129  PMPE      H8Y            49.3673271550        2.0501605611        8.6531700497  MEMB      129             0.0000000000
     16216       129  PMPE      C39            50.2634258896        0.9750836869        6.9503672084  MEMB      129             0.0000000000
     16217       129  PMPE      H9X            50.8434004162        1.8488825607        6.5837268771  MEMB      129             0.0000000000
     16218       129  PMPE      H9Y            49.2274210351        0.9384090403        6.5507799890  MEMB      129             0.0000000000
     16219       129  PMPE      C310           51.1769321970       -0.3680826909        6.7366696449  MEMB      129             0.0000000000
     16220       129  PMPE      H10X           50.7180875840       -1.3449117950        7.0004636437  MEMB      129             0.0000000000
     16221       129  PMPE      H10Y           51.9860878384       -0.1871494395        7.4761636223  MEMB      129             0.0000000000
     16222       129  PMPE      C311           51.7277099010       -0.4903355756        5.2586284315  MEMB      129             0.0000000000
     16223       129  PMPE      H11X           52.3785534579        0.4083422305        5.2029329442  MEMB      129             0.0000000000
     16224       129  PMPE      H11Y           50.8382771022       -0.5163925637        4.5933831746  MEMB      129             0.0000000000
     16225       129  PMPE      C312           52.8427311595       -1.6011589996        5.0657688449  MEMB      129             0.0000000000
     16226       129  PMPE      H12X           52.3680321583       -2.5979935952        4.9420652784  MEMB      129             0.0000000000
     16227       129  PMPE      H12Y           53.4683841598       -1.7115025096        5.9771983027  MEMB      129             0.0000000000
     16228       129  PMPE      C313           53.7629291205       -1.3673354094        3.8842122252  MEMB      129             0.0000000000
     16229       129  PMPE      H13X           54.2940690261       -0.3948849451        3.9651514866  MEMB      129             0.0000000000
     16230       129  PMPE      H13Y           53.1562915753       -1.2922613870        2.9564856409  MEMB      129             0.0000000000
     16231       129  PMPE      C314           54.8783312931       -2.4068973935        3.8717501412  MEMB      129             0.0000000000
     16232       129  PMPE      H14X           54.4576704638       -3.4300617992        3.7692816675  MEMB      129             0.0000000000
     16233       129  PMPE      H14Y           55.4424688924       -2.4163365391        4.8288188403  MEMB      129             0.0000000000
     16234       129  PMPE      C315           55.7908146530       -2.1944200389        2.7386243336  MEMB      129             0.0000000000
     16235       129  PMPE      H15X           55.3007624365       -2.1701865002        1.7418373619  MEMB      129             0.0000000000
     16236       129  PMPE      H15Y           56.4513354635       -3.0864186142        2.6899186160  MEMB      129             0.0000000000
     16237       129  PMPE      C316           56.6544066392       -0.9689446135        2.8583116688  MEMB      129             0.0000000000
     16238       129  PMPE      H16X           55.9647399863       -0.1055909859        2.7429787976  MEMB      129             0.0000000000
     16239       129  PMPE      H16Y           57.3735819169       -0.7292864235        2.0461107810  MEMB      129             0.0000000000
     16240       129  PMPE      H16Z           57.1854654701       -0.8743536092        3.8295735781  MEMB      129             0.0000000000
     16241       130  POPE      N             -31.5481597951      -40.4808523012       18.4246812753  MEMB      130             0.0000000000
     16242       130  POPE      HN1           -31.7966141702      -41.3280491804       18.9743429240  MEMB      130             0.0000000000
     16243       130  POPE      HN2           -31.1448653542      -40.5930882985       17.4726536381  MEMB      130             0.0000000000
     16244       130  POPE      HN3           -30.9119782297      -39.9939025217       19.0878199652  MEMB      130             0.0000000000
     16245       130  POPE      C12           -32.8343830244      -39.7233100366       18.2937864352  MEMB      130             0.0000000000
     16246       130  POPE      H12A          -33.6356620365      -40.4176185755       17.9618095978  MEMB      130             0.0000000000
     16247       130  POPE      H12B          -32.6629044041      -38.8887619904       17.5807327078  MEMB      130             0.0000000000
     16248       130  POPE      C11           -33.2268015956      -39.2385905575       19.6903776283  MEMB      130             0.0000000000
     16249       130  POPE      H11A          -32.3782242672      -38.6464305190       20.0948328835  MEMB      130             0.0000000000
     16250       130  POPE      H11B          -33.1799473577      -40.1368637660       20.3424748341  MEMB      130             0.0000000000
     16251       130  POPE      P             -34.5713079611      -37.1066285112       19.1244877691  MEMB      130             0.0000000000
     16252       130  POPE      O13           -35.1806467851      -36.1036687471       20.0676048973  MEMB      130             0.0000000000
     16253       130  POPE      O14           -35.3101253618      -37.3191926708       17.8904767058  MEMB      130             0.0000000000
     16254       130  POPE      O11           -33.1799476134      -36.5780878995       18.6411550732  MEMB      130             0.0000000000
     16255       130  POPE      O12           -34.3738494739      -38.4727220540       19.8674302040  MEMB      130             0.0000000000
     16256       130  POPE      C1            -32.4916100837      -35.6453649153       19.5339414892  MEMB      130             0.0000000000
     16257       130  POPE      HA            -31.9700722215      -36.2057557082       20.3391007378  MEMB      130             0.0000000000
     16258       130  POPE      HB            -33.2502218664      -34.9068892297       19.8708137554  MEMB      130             0.0000000000
     16259       130  POPE      C2            -31.3814916369      -34.8091369341       18.7867942921  MEMB      130             0.0000000000
     16260       130  POPE      HS            -30.9969802838      -33.9913154040       19.4330445751  MEMB      130             0.0000000000
     16261       130  POPE      O21           -31.8104469176      -34.3731047650       17.5035779992  MEMB      130             0.0000000000
     16262       130  POPE      C21           -32.6566391418      -33.3925914567       17.5113305569  MEMB      130             0.0000000000
     16263       130  POPE      O22           -32.9627464873      -32.6591147602       18.4118861518  MEMB      130             0.0000000000
     16264       130  POPE      C22           -33.2192403419      -33.2635188023       16.0691060005  MEMB      130             0.0000000000
     16265       130  POPE      H2R           -33.0305425683      -34.1705486512       15.4559088705  MEMB      130             0.0000000000
     16266       130  POPE      H2S           -32.6446316872      -32.3769021589       15.7255115495  MEMB      130             0.0000000000
     16267       130  POPE      C3            -29.9799023495      -35.5063014342       18.4508069558  MEMB      130             0.0000000000
     16268       130  POPE      HX            -29.6381175591      -35.9534955780       19.4086803668  MEMB      130             0.0000000000
     16269       130  POPE      HY            -29.2462250890      -34.7649107588       18.0682121338  MEMB      130             0.0000000000
     16270       130  POPE      O31           -30.1891397227      -36.7051023041       17.6735331963  MEMB      130             0.0000000000
     16271       130  POPE      C31           -30.2111961608      -36.5782724545       16.3682071764  MEMB      130             0.0000000000
     16272       130  POPE      O32           -30.0121847895      -35.5521888656       15.7289241653  MEMB      130             0.0000000000
     16273       130  POPE      C32           -30.3897291129      -38.0126030824       15.7192299294  MEMB      130             0.0000000000
     16274       130  POPE      H2X           -30.6970091794      -38.7174291135       16.5211775102  MEMB      130             0.0000000000
     16275       130  POPE      H2Y           -29.3689862102      -38.2668552568       15.3617934438  MEMB      130             0.0000000000
     16276       130  POPE      C23           -34.6934647678      -32.7761577934       16.0535662243  MEMB      130             0.0000000000
     16277       130  POPE      H3R           -34.7633702668      -31.6856094327       16.2539122318  MEMB      130             0.0000000000
     16278       130  POPE      H3S           -35.2100527976      -33.3366706119       16.8618258167  MEMB      130             0.0000000000
     16279       130  POPE      C24           -35.5124449634      -33.1032625166       14.7193985471  MEMB      130             0.0000000000
     16280       130  POPE      H4R           -35.0106115388      -32.4407719492       13.9821127938  MEMB      130             0.0000000000
     16281       130  POPE      H4S           -36.5377055561      -32.7087531951       14.8853037377  MEMB      130             0.0000000000
     16282       130  POPE      C25           -35.5407601471      -34.6168810589       14.2399167810  MEMB      130             0.0000000000
     16283       130  POPE      H5R           -35.8265695180      -35.2378170704       15.1157432757  MEMB      130             0.0000000000
     16284       130  POPE      H5S           -34.4686293102      -34.8227932220       14.0338668242  MEMB      130             0.0000000000
     16285       130  POPE      C26           -36.5358328690      -34.8360629814       13.0373578488  MEMB      130             0.0000000000
     16286       130  POPE      H6R           -37.5633278033      -34.4699535677       13.2484008081  MEMB      130             0.0000000000
     16287       130  POPE      H6S           -36.7586742416      -35.9070037319       12.8430671243  MEMB      130             0.0000000000
     16288       130  POPE      C27           -36.1722461104      -34.1651492222       11.7809602986  MEMB      130             0.0000000000
     16289       130  POPE      H7R           -35.2240946000      -34.5136948984       11.3185260513  MEMB      130             0.0000000000
     16290       130  POPE      H7S           -35.9167577067      -33.1453021472       12.1400679723  MEMB      130             0.0000000000
     16291       130  POPE      C28           -37.2356517917      -34.0924540708       10.6241938686  MEMB      130             0.0000000000
     16292       130  POPE      H8R           -36.7559630064      -33.3846955465        9.9147588993  MEMB      130             0.0000000000
     16293       130  POPE      H8S           -38.1994057855      -33.6780275499       10.9899118097  MEMB      130             0.0000000000
     16294       130  POPE      C29           -37.2408024837      -35.4525958347       10.0195691649  MEMB      130             0.0000000000
     16295       130  POPE      H91           -37.8345037138      -36.2427019059       10.5025303436  MEMB      130             0.0000000000
     16296       130  POPE      C210          -36.5846700815      -35.9273142931        8.9528230397  MEMB      130             0.0000000000
     16297       130  POPE      H101          -36.7045942589      -36.9687896900        8.6197358346  MEMB      130             0.0000000000
     16298       130  POPE      C211          -35.6431306338      -35.1236969252        8.1146702462  MEMB      130             0.0000000000
     16299       130  POPE      H11R          -34.7465410142      -34.9061346931        8.7336330779  MEMB      130             0.0000000000
     16300       130  POPE      H11S          -36.1225919283      -34.1327448365        7.9648323013  MEMB      130             0.0000000000
     16301       130  POPE      C212          -35.2632440970      -35.6032744805        6.7339948061  MEMB      130             0.0000000000
     16302       130  POPE      H12R          -35.1667090641      -34.7359391167        6.0464404987  MEMB      130             0.0000000000
     16303       130  POPE      H12S          -36.1874194008      -36.1014855134        6.3706678668  MEMB      130             0.0000000000
     16304       130  POPE      C213          -33.9844253895      -36.4232838278        6.4977823033  MEMB      130             0.0000000000
     16305       130  POPE      H13R          -34.0390104996      -37.2973433376        7.1814203582  MEMB      130             0.0000000000
     16306       130  POPE      H13S          -32.9750204783      -36.0040133895        6.6968669151  MEMB      130             0.0000000000
     16307       130  POPE      C214          -33.9270553375      -36.8357158055        5.0726116835  MEMB      130             0.0000000000
     16308       130  POPE      H14R          -33.9491635655      -35.8538863429        4.5531469314  MEMB      130             0.0000000000
     16309       130  POPE      H14S          -34.7908853823      -37.4750704717        4.7909302608  MEMB      130             0.0000000000
     16310       130  POPE      C215          -32.6208180538      -37.3820275713        4.5341477222  MEMB      130             0.0000000000
     16311       130  POPE      H15R          -32.4961017539      -38.4621095863        4.7625982123  MEMB      130             0.0000000000
     16312       130  POPE      H15S          -31.7022483045      -37.0547468073        5.0665357889  MEMB      130             0.0000000000
     16313       130  POPE      C216          -32.2782264856      -37.2255987655        3.0405586674  MEMB      130             0.0000000000
     16314       130  POPE      H16R          -33.1675979057      -37.4907937467        2.4298128076  MEMB      130             0.0000000000
     16315       130  POPE      H16S          -31.4944521855      -37.9460357093        2.7227708640  MEMB      130             0.0000000000
     16316       130  POPE      C217          -31.8200979014      -35.8840478919        2.5398512693  MEMB      130             0.0000000000
     16317       130  POPE      H17R          -30.8141998151      -35.6192950935        2.9302301127  MEMB      130             0.0000000000
     16318       130  POPE      H17S          -32.5677977879      -35.1622801266        2.9326837699  MEMB      130             0.0000000000
     16319       130  POPE      C218          -31.8902386886      -35.7171029890        0.9920495586  MEMB      130             0.0000000000
     16320       130  POPE      H18R          -32.8805879671      -36.1468568445        0.7296769670  MEMB      130             0.0000000000
     16321       130  POPE      H18S          -31.0989817422      -36.3121012632        0.4878568519  MEMB      130             0.0000000000
     16322       130  POPE      H18T          -31.8667835718      -34.6439086598        0.7056496498  MEMB      130             0.0000000000
     16323       130  POPE      C33           -31.4607103435      -37.8702069054       14.6093933197  MEMB      130             0.0000000000
     16324       130  POPE      H3X           -32.4241547899      -37.3858471496       14.8767719546  MEMB      130             0.0000000000
     16325       130  POPE      H3Y           -31.7679505367      -38.9144408555       14.3869076023  MEMB      130             0.0000000000
     16326       130  POPE      C34           -30.9721414415      -37.3390631883       13.2722920719  MEMB      130             0.0000000000
     16327       130  POPE      H4X           -30.0809454271      -37.9686313374       13.0631633628  MEMB      130             0.0000000000
     16328       130  POPE      H4Y           -30.6078228622      -36.2917361177       13.3408386516  MEMB      130             0.0000000000
     16329       130  POPE      C35           -31.9703528490      -37.3163833947       12.1212875031  MEMB      130             0.0000000000
     16330       130  POPE      H5X           -31.6068266058      -36.5257351184       11.4306029704  MEMB      130             0.0000000000
     16331       130  POPE      H5Y           -33.0126754683      -37.1170341436       12.4501408480  MEMB      130             0.0000000000
     16332       130  POPE      C36           -32.1267280162      -38.5378285528       11.3186175272  MEMB      130             0.0000000000
     16333       130  POPE      H6X           -32.6149732524      -39.2843972863       11.9808656307  MEMB      130             0.0000000000
     16334       130  POPE      H6Y           -31.1339734522      -38.8816573593       10.9573127614  MEMB      130             0.0000000000
     16335       130  POPE      C37           -32.9841681725      -38.1407653815       10.1369770754  MEMB      130             0.0000000000
     16336       130  POPE      H7X           -32.4863455099      -37.3586979993        9.5247160468  MEMB      130             0.0000000000
     16337       130  POPE      H7Y           -33.9418523723      -37.6489031685       10.4112642384  MEMB      130             0.0000000000
     16338       130  POPE      C38           -33.4566600978      -39.2852904266        9.2475360868  MEMB      130             0.0000000000
     16339       130  POPE      H8X           -32.5600144642      -39.8982308917        9.0137587048  MEMB      130             0.0000000000
     16340       130  POPE      H8Y           -33.6362953159      -38.8477388352        8.2422503706  MEMB      130             0.0000000000
     16341       130  POPE      C39           -34.6387248487      -40.1349843797        9.7227540462  MEMB      130             0.0000000000
     16342       130  POPE      H9X           -35.5903325392      -39.5657252500        9.6541378382  MEMB      130             0.0000000000
     16343       130  POPE      H9Y           -34.5481039609      -40.3880828579       10.8007376947  MEMB      130             0.0000000000
     16344       130  POPE      C310          -34.8634460790      -41.4550742591        8.9376038691  MEMB      130             0.0000000000
     16345       130  POPE      H10X          -35.8927781551      -41.8575718730        9.0507065600  MEMB      130             0.0000000000
     16346       130  POPE      H10Y          -34.1519926291      -42.2383767408        9.2761189685  MEMB      130             0.0000000000
     16347       130  POPE      C311          -34.7242105124      -41.2879233162        7.4208077611  MEMB      130             0.0000000000
     16348       130  POPE      H11X          -33.7590635653      -40.8788256009        7.0527703249  MEMB      130             0.0000000000
     16349       130  POPE      H11Y          -35.4311566666      -40.5091825603        7.0628820888  MEMB      130             0.0000000000
     16350       130  POPE      C312          -35.0093191281      -42.6238414300        6.7413534686  MEMB      130             0.0000000000
     16351       130  POPE      H12X          -35.9729095798      -43.0957606260        7.0296344177  MEMB      130             0.0000000000
     16352       130  POPE      H12Y          -34.2447743549      -43.3689724924        7.0488792506  MEMB      130             0.0000000000
     16353       130  POPE      C313          -34.7345871874      -42.6703070887        5.1971202609  MEMB      130             0.0000000000
     16354       130  POPE      H13X          -35.1292894168      -43.6560962223        4.8703916028  MEMB      130             0.0000000000
     16355       130  POPE      H13Y          -33.6772709611      -42.5799414021        4.8681256104  MEMB      130             0.0000000000
     16356       130  POPE      C314          -35.5635922121      -41.5637736700        4.4731344712  MEMB      130             0.0000000000
     16357       130  POPE      H14X          -35.1207134174      -40.5966489638        4.7938355891  MEMB      130             0.0000000000
     16358       130  POPE      H14Y          -36.5917057059      -41.5935132419        4.8931571810  MEMB      130             0.0000000000
     16359       130  POPE      C315          -35.4753892383      -41.7916361991        2.9779377920  MEMB      130             0.0000000000
     16360       130  POPE      H15X          -35.5768929968      -42.8663700373        2.7153251152  MEMB      130             0.0000000000
     16361       130  POPE      H15Y          -34.4038193463      -41.5632414164        2.7938317041  MEMB      130             0.0000000000
     16362       130  POPE      C316          -36.4483830030      -40.9549478149        2.1689365807  MEMB      130             0.0000000000
     16363       130  POPE      H16X          -36.2143713507      -40.8577943249        1.0872150933  MEMB      130             0.0000000000
     16364       130  POPE      H16Y          -36.3879303449      -39.9248945723        2.5808318046  MEMB      130             0.0000000000
     16365       130  POPE      H16Z          -37.5334145027      -41.1898852287        2.2117354429  MEMB      130             0.0000000000
     16366       131  POPE      N              41.9981582830      -33.1176388916       17.8544865205  MEMB      131             0.0000000000
     16367       131  POPE      HN1            42.9228198374      -32.7193235346       18.1151507251  MEMB      131             0.0000000000
     16368       131  POPE      HN2            42.0743843267      -33.9903309693       17.2939526312  MEMB      131             0.0000000000
     16369       131  POPE      HN3            41.4202114605      -32.4094261443       17.3584904976  MEMB      131             0.0000000000
     16370       131  POPE      C12            41.2659686742      -33.4534823391       19.1760889686  MEMB      131             0.0000000000
     16371       131  POPE      H12A           41.3064173394      -32.4980946079       19.7417028966  MEMB      131             0.0000000000
     16372       131  POPE      H12B           41.8237684299      -34.2876750632       19.6528519147  MEMB      131             0.0000000000
     16373       131  POPE      C11            39.8367743051      -34.0262657829       18.9257285865  MEMB      131             0.0000000000
     16374       131  POPE      H11A           39.3443618501      -34.4078726583       19.8456346788  MEMB      131             0.0000000000
     16375       131  POPE      H11B           39.8463173230      -34.9362262318       18.2883888119  MEMB      131             0.0000000000
     16376       131  POPE      P              38.3859386625      -31.8102063439       19.2685958791  MEMB      131             0.0000000000
     16377       131  POPE      O13            38.5780951224      -32.0628340039       20.6917796412  MEMB      131             0.0000000000
     16378       131  POPE      O14            37.0107056879      -31.7232916425       18.8636112237  MEMB      131             0.0000000000
     16379       131  POPE      O11            39.0374670985      -30.3837464263       18.8680407191  MEMB      131             0.0000000000
     16380       131  POPE      O12            39.0776369682      -32.9277113548       18.3516684590  MEMB      131             0.0000000000
     16381       131  POPE      C1             38.4921458254      -29.4518120349       17.9942264139  MEMB      131             0.0000000000
     16382       131  POPE      HA             39.1487074807      -28.5555771510       17.9909458743  MEMB      131             0.0000000000
     16383       131  POPE      HB             37.5013514665      -29.1510477291       18.3969524860  MEMB      131             0.0000000000
     16384       131  POPE      C2             38.5275770569      -29.8690217190       16.4665996705  MEMB      131             0.0000000000
     16385       131  POPE      HS             37.8515250320      -30.7445654297       16.3631685998  MEMB      131             0.0000000000
     16386       131  POPE      O21            39.8974391842      -30.2327288645       16.1657423305  MEMB      131             0.0000000000
     16387       131  POPE      C21            40.0398359575      -31.1799675696       15.2695728178  MEMB      131             0.0000000000
     16388       131  POPE      O22            39.1952496379      -31.8777656937       14.7723426001  MEMB      131             0.0000000000
     16389       131  POPE      C22            41.4777894996      -31.1689112864       14.8416888096  MEMB      131             0.0000000000
     16390       131  POPE      H2R            42.2366225037      -31.1742710134       15.6531473894  MEMB      131             0.0000000000
     16391       131  POPE      H2S            41.5241978312      -30.2717077620       14.1880887585  MEMB      131             0.0000000000
     16392       131  POPE      C3             37.9862086220      -28.7025451841       15.5438207722  MEMB      131             0.0000000000
     16393       131  POPE      HX             38.5921089052      -27.7853161234       15.7047450747  MEMB      131             0.0000000000
     16394       131  POPE      HY             36.9995152222      -28.4376154855       15.9803636069  MEMB      131             0.0000000000
     16395       131  POPE      O31            37.8233747006      -29.0041993025       14.1757058058  MEMB      131             0.0000000000
     16396       131  POPE      C31            38.8482808724      -28.9164923385       13.3729814507  MEMB      131             0.0000000000
     16397       131  POPE      O32            39.9171736347      -28.4210087246       13.6362056559  MEMB      131             0.0000000000
     16398       131  POPE      C32            38.4993663709      -29.3170671197       11.8842190470  MEMB      131             0.0000000000
     16399       131  POPE      H2X            37.6927199901      -28.5860981024       11.6621224393  MEMB      131             0.0000000000
     16400       131  POPE      H2Y            38.0581784294      -30.3364907008       11.8630072602  MEMB      131             0.0000000000
     16401       131  POPE      C23            41.6752810715      -32.3270118292       13.8854948301  MEMB      131             0.0000000000
     16402       131  POPE      H3R            41.1149093818      -32.2598861193       12.9285208753  MEMB      131             0.0000000000
     16403       131  POPE      H3S            41.3119369434      -33.2492549073       14.3872612397  MEMB      131             0.0000000000
     16404       131  POPE      C24            43.1880768645      -32.3656975855       13.3450972719  MEMB      131             0.0000000000
     16405       131  POPE      H4R            43.9552284867      -32.2224483537       14.1358433395  MEMB      131             0.0000000000
     16406       131  POPE      H4S            43.2896549416      -31.4349326829       12.7470342787  MEMB      131             0.0000000000
     16407       131  POPE      C25            43.4490340499      -33.6706470372       12.5189846305  MEMB      131             0.0000000000
     16408       131  POPE      H5R            43.4011542823      -34.6129098556       13.1056442800  MEMB      131             0.0000000000
     16409       131  POPE      H5S            44.4396818858      -33.4497063101       12.0671847396  MEMB      131             0.0000000000
     16410       131  POPE      C26            42.5313730252      -33.9851830585       11.2918635851  MEMB      131             0.0000000000
     16411       131  POPE      H6R            41.4404232333      -34.0009233048       11.5013920046  MEMB      131             0.0000000000
     16412       131  POPE      H6S            42.8701893382      -34.9145494423       10.7860948018  MEMB      131             0.0000000000
     16413       131  POPE      C27            42.6921619582      -32.8399313514       10.1907369347  MEMB      131             0.0000000000
     16414       131  POPE      H7R            43.7129772456      -32.8053010138        9.7536360804  MEMB      131             0.0000000000
     16415       131  POPE      H7S            42.7962838652      -31.8043992668       10.5795209947  MEMB      131             0.0000000000
     16416       131  POPE      C28            41.6445703408      -32.9152821024        9.1685601660  MEMB      131             0.0000000000
     16417       131  POPE      H8R            41.6151350475      -32.1254515782        8.3877771596  MEMB      131             0.0000000000
     16418       131  POPE      H8S            40.7163022627      -32.7049770216        9.7416321797  MEMB      131             0.0000000000
     16419       131  POPE      C29            41.5418960548      -34.2573661768        8.5443225676  MEMB      131             0.0000000000
     16420       131  POPE      H91            40.7542989991      -34.9206288760        8.9313272842  MEMB      131             0.0000000000
     16421       131  POPE      C210           42.1789746528      -34.5788686716        7.4583215078  MEMB      131             0.0000000000
     16422       131  POPE      H101           41.9666408340      -35.5582617044        7.0047759959  MEMB      131             0.0000000000
     16423       131  POPE      C211           43.1569449268      -33.7393268797        6.5619851248  MEMB      131             0.0000000000
     16424       131  POPE      H11R           44.0857180220      -34.2774037905        6.2753245634  MEMB      131             0.0000000000
     16425       131  POPE      H11S           43.5397073267      -32.8330010382        7.0781129413  MEMB      131             0.0000000000
     16426       131  POPE      C212           42.3883980520      -33.2948895985        5.3010719563  MEMB      131             0.0000000000
     16427       131  POPE      H12R           42.2823428472      -34.2333575584        4.7159640287  MEMB      131             0.0000000000
     16428       131  POPE      H12S           43.0055916819      -32.5955008136        4.6975414050  MEMB      131             0.0000000000
     16429       131  POPE      C213           41.0551397356      -32.5469458379        5.5678133754  MEMB      131             0.0000000000
     16430       131  POPE      H13R           41.4345226583      -31.6975279311        6.1751675419  MEMB      131             0.0000000000
     16431       131  POPE      H13S           40.3417412901      -33.1753572413        6.1426896578  MEMB      131             0.0000000000
     16432       131  POPE      C214           40.2347606773      -31.8633005248        4.4198426551  MEMB      131             0.0000000000
     16433       131  POPE      H14R           39.6574699162      -31.0831513004        4.9606046053  MEMB      131             0.0000000000
     16434       131  POPE      H14S           39.4890787994      -32.6068007942        4.0656016366  MEMB      131             0.0000000000
     16435       131  POPE      C215           41.1010700310      -31.3215080064        3.3055247807  MEMB      131             0.0000000000
     16436       131  POPE      H15R           41.6196914045      -32.1819295954        2.8311532932  MEMB      131             0.0000000000
     16437       131  POPE      H15S           41.8659792456      -30.6130068106        3.6892706920  MEMB      131             0.0000000000
     16438       131  POPE      C216           40.3935986507      -30.4505342857        2.3384017152  MEMB      131             0.0000000000
     16439       131  POPE      H16R           39.4380420962      -30.9415843994        2.0553776731  MEMB      131             0.0000000000
     16440       131  POPE      H16S           41.0081133767      -30.3276603295        1.4210174391  MEMB      131             0.0000000000
     16441       131  POPE      C217           40.0715423124      -29.0377665017        3.0067500633  MEMB      131             0.0000000000
     16442       131  POPE      H17R           40.9915852048      -28.6074661279        3.4569538167  MEMB      131             0.0000000000
     16443       131  POPE      H17S           39.1708106390      -29.0565528325        3.6568653077  MEMB      131             0.0000000000
     16444       131  POPE      C218           39.5264213248      -28.0625215542        1.9279804925  MEMB      131             0.0000000000
     16445       131  POPE      H18R           40.3565737592      -27.8128455529        1.2331199313  MEMB      131             0.0000000000
     16446       131  POPE      H18S           38.9930689161      -27.2129794247        2.4056147235  MEMB      131             0.0000000000
     16447       131  POPE      H18T           38.7684108257      -28.5247692987        1.2600974728  MEMB      131             0.0000000000
     16448       131  POPE      C33            39.6220459889      -29.1869298736       10.8196187271  MEMB      131             0.0000000000
     16449       131  POPE      H3X            40.4624414140      -29.8822162058       11.0308856476  MEMB      131             0.0000000000
     16450       131  POPE      H3Y            40.0494776280      -28.1705886679       10.9562702205  MEMB      131             0.0000000000
     16451       131  POPE      C34            39.0474064764      -29.3735949204        9.4391994439  MEMB      131             0.0000000000
     16452       131  POPE      H4X            38.3761916724      -28.5251151141        9.1864666518  MEMB      131             0.0000000000
     16453       131  POPE      H4Y            38.4735319873      -30.3239870248        9.3974399130  MEMB      131             0.0000000000
     16454       131  POPE      C35            40.1477562804      -29.5195178843        8.4300445136  MEMB      131             0.0000000000
     16455       131  POPE      H5X            39.7128041294      -29.8776038143        7.4724886444  MEMB      131             0.0000000000
     16456       131  POPE      H5Y            40.8567633949      -30.3175306135        8.7379491517  MEMB      131             0.0000000000
     16457       131  POPE      C36            40.8667949083      -28.1495816642        8.2367192223  MEMB      131             0.0000000000
     16458       131  POPE      H6X            41.3445085625      -27.7618878838        9.1618162200  MEMB      131             0.0000000000
     16459       131  POPE      H6Y            40.1439187053      -27.4155236034        7.8208711220  MEMB      131             0.0000000000
     16460       131  POPE      C37            41.8757639400      -28.3693056280        7.1219683635  MEMB      131             0.0000000000
     16461       131  POPE      H7X            42.0735865805      -27.3319384609        6.7769227948  MEMB      131             0.0000000000
     16462       131  POPE      H7Y            41.4181234650      -28.9954192229        6.3264384062  MEMB      131             0.0000000000
     16463       131  POPE      C38            43.1510435510      -29.0248597459        7.6142229677  MEMB      131             0.0000000000
     16464       131  POPE      H8X            42.9180359927      -30.0821212764        7.8636755818  MEMB      131             0.0000000000
     16465       131  POPE      H8Y            43.4746556145      -28.5110716163        8.5446090014  MEMB      131             0.0000000000
     16466       131  POPE      C39            44.3931677315      -28.9282099244        6.6344155638  MEMB      131             0.0000000000
     16467       131  POPE      H9X            45.3227042269      -29.3039283520        7.1130793071  MEMB      131             0.0000000000
     16468       131  POPE      H9Y            44.5459360648      -27.8442493891        6.4446450042  MEMB      131             0.0000000000
     16469       131  POPE      C310           44.1947591535      -29.7048443412        5.3002881618  MEMB      131             0.0000000000
     16470       131  POPE      H10X           43.3058537380      -29.2875638716        4.7806292238  MEMB      131             0.0000000000
     16471       131  POPE      H10Y           43.9406070619      -30.7708794962        5.4827621570  MEMB      131             0.0000000000
     16472       131  POPE      C311           45.4859050412      -29.6151174731        4.4678930009  MEMB      131             0.0000000000
     16473       131  POPE      H11X           46.2897600096      -30.2209130171        4.9381589986  MEMB      131             0.0000000000
     16474       131  POPE      H11Y           45.9402946326      -28.6111492394        4.3268274197  MEMB      131             0.0000000000
     16475       131  POPE      C312           45.3205375063      -30.0818998719        2.9852354930  MEMB      131             0.0000000000
     16476       131  POPE      H12X           45.0451983009      -31.1566668135        3.0434266577  MEMB      131             0.0000000000
     16477       131  POPE      H12Y           46.3203301263      -30.0713070190        2.5008567617  MEMB      131             0.0000000000
     16478       131  POPE      C313           44.2768342644      -29.3155604947        2.1641057094  MEMB      131             0.0000000000
     16479       131  POPE      H13X           44.8313782750      -28.3533210526        2.1341433982  MEMB      131             0.0000000000
     16480       131  POPE      H13Y           43.3049049774      -29.0735862981        2.6448568275  MEMB      131             0.0000000000
     16481       131  POPE      C314           44.1198570298      -30.0038173989        0.7661098325  MEMB      131             0.0000000000
     16482       131  POPE      H14X           43.3583541504      -30.7818107511        0.9878316071  MEMB      131             0.0000000000
     16483       131  POPE      H14Y           45.1464090792      -30.3638719025        0.5405607489  MEMB      131             0.0000000000
     16484       131  POPE      C315           43.5362756371      -29.0921812777       -0.3141454503  MEMB      131             0.0000000000
     16485       131  POPE      H15X           43.8806977268      -28.0419943653       -0.2010000525  MEMB      131             0.0000000000
     16486       131  POPE      H15Y           42.4259728632      -29.0619757121       -0.2889167483  MEMB      131             0.0000000000
     16487       131  POPE      C316           43.9949814932      -29.5132505460       -1.7454681323  MEMB      131             0.0000000000
     16488       131  POPE      H16X           43.8090501020      -30.5560270953       -2.0806807889  MEMB      131             0.0000000000
     16489       131  POPE      H16Y           45.0959741374      -29.4023058932       -1.8446005885  MEMB      131             0.0000000000
     16490       131  POPE      H16Z           43.5070342841      -28.8514431217       -2.4926216985  MEMB      131             0.0000000000
     16491       132  OYPE      N             -50.3016398053        6.9067477008       16.7431764167  MEMB      132             0.0000000000
     16492       132  OYPE      HN1           -51.3287768409        6.9938850782       16.8810043823  MEMB      132             0.0000000000
     16493       132  OYPE      HN2           -49.9799750543        7.8930242527       16.8165946836  MEMB      132             0.0000000000
     16494       132  OYPE      HN3           -50.0736135192        6.4812303952       15.8220146282  MEMB      132             0.0000000000
     16495       132  OYPE      C12           -49.9057334754        6.0695767341       17.9018135907  MEMB      132             0.0000000000
     16496       132  OYPE      H12A          -48.9311738794        5.6194658135       17.6155359687  MEMB      132             0.0000000000
     16497       132  OYPE      H12B          -50.6923794162        5.2922553841       18.0080243749  MEMB      132             0.0000000000
     16498       132  OYPE      C11           -49.8573649960        6.8472362199       19.2290307671  MEMB      132             0.0000000000
     16499       132  OYPE      H11A          -49.1508578935        7.7021623907       19.2943747372  MEMB      132             0.0000000000
     16500       132  OYPE      H11B          -49.4933539280        6.0472051112       19.9085653853  MEMB      132             0.0000000000
     16501       132  OYPE      P             -51.6574569726        8.7488502408       19.7074118942  MEMB      132             0.0000000000
     16502       132  OYPE      O13           -50.6123652938        9.7152983895       19.3891203884  MEMB      132             0.0000000000
     16503       132  OYPE      O14           -52.3224765069        8.8450613681       21.0028421067  MEMB      132             0.0000000000
     16504       132  OYPE      O11           -52.6438789346        8.8895822165       18.4713694451  MEMB      132             0.0000000000
     16505       132  OYPE      O12           -51.1737264187        7.2238254510       19.5552353855  MEMB      132             0.0000000000
     16506       132  OYPE      C1            -53.6962709847        7.9533899675       18.3072857757  MEMB      132             0.0000000000
     16507       132  OYPE      HA            -54.2518360797        7.6889338312       19.2323432162  MEMB      132             0.0000000000
     16508       132  OYPE      HB            -53.4520133778        7.0298604919       17.7400533828  MEMB      132             0.0000000000
     16509       132  OYPE      C2            -54.7481655427        8.6503206686       17.3639462289  MEMB      132             0.0000000000
     16510       132  OYPE      HS            -55.6135520970        7.9717436953       17.2059589427  MEMB      132             0.0000000000
     16511       132  OYPE      O21           -54.1620119587        8.9398075305       16.0608188737  MEMB      132             0.0000000000
     16512       132  OYPE      C21           -53.9478233940        7.8417186775       15.2530403844  MEMB      132             0.0000000000
     16513       132  OYPE      O22           -54.5594959160        6.8105368495       15.4312601459  MEMB      132             0.0000000000
     16514       132  OYPE      C22           -53.0347459678        8.2416207617       14.1331830343  MEMB      132             0.0000000000
     16515       132  OYPE      H2R           -52.1163290464        8.4391200809       14.7263317673  MEMB      132             0.0000000000
     16516       132  OYPE      H2S           -53.2601383871        9.2559439147       13.7399043562  MEMB      132             0.0000000000
     16517       132  OYPE      C3            -55.2593743782        9.9811237206       18.0293298152  MEMB      132             0.0000000000
     16518       132  OYPE      HX            -55.5255997144        9.7596331063       19.0849751007  MEMB      132             0.0000000000
     16519       132  OYPE      HY            -56.1151642412       10.3308798268       17.4132000651  MEMB      132             0.0000000000
     16520       132  OYPE      O31           -54.2119744318       10.9610764147       18.1501286412  MEMB      132             0.0000000000
     16521       132  OYPE      C31           -53.7930109154       11.6551895466       17.0540670088  MEMB      132             0.0000000000
     16522       132  OYPE      O32           -54.3375310492       11.6456583442       15.9630335771  MEMB      132             0.0000000000
     16523       132  OYPE      C32           -52.7036374755       12.6310670900       17.4626264520  MEMB      132             0.0000000000
     16524       132  OYPE      H2X           -53.1550372681       13.5965353885       17.7763615690  MEMB      132             0.0000000000
     16525       132  OYPE      H2Y           -52.0069326304       12.2282957202       18.2285890846  MEMB      132             0.0000000000
     16526       132  OYPE      C23           -52.8158499633        7.3540988713       12.9357855429  MEMB      132             0.0000000000
     16527       132  OYPE      H3R           -53.6659060533        7.3667338602       12.2205471960  MEMB      132             0.0000000000
     16528       132  OYPE      H3S           -52.5159651217        6.3039888782       13.1398918568  MEMB      132             0.0000000000
     16529       132  OYPE      C24           -51.7148721213        8.0123986130       12.0216560461  MEMB      132             0.0000000000
     16530       132  OYPE      H4R           -50.8572704420        8.1765141327       12.7086104824  MEMB      132             0.0000000000
     16531       132  OYPE      H4S           -52.1662086784        9.0041302442       11.8046658685  MEMB      132             0.0000000000
     16532       132  OYPE      C25           -51.1888204781        7.0550116702       10.9033908457  MEMB      132             0.0000000000
     16533       132  OYPE      H5R           -51.8533294461        6.6905943405       10.0910188408  MEMB      132             0.0000000000
     16534       132  OYPE      H5S           -50.9264774043        6.1080286502       11.4217740824  MEMB      132             0.0000000000
     16535       132  OYPE      C26           -49.8948845402        7.6270340417       10.1675013104  MEMB      132             0.0000000000
     16536       132  OYPE      H6R           -49.2296819524        7.8845449001       11.0192730138  MEMB      132             0.0000000000
     16537       132  OYPE      H6S           -50.2640951488        8.4719304532        9.5476992372  MEMB      132             0.0000000000
     16538       132  OYPE      C27           -49.1338088271        6.6276629285        9.1744355046  MEMB      132             0.0000000000
     16539       132  OYPE      H7R           -49.7864714566        5.8651866272        8.6980085600  MEMB      132             0.0000000000
     16540       132  OYPE      H7S           -48.4712261939        6.0935764970        9.8886183059  MEMB      132             0.0000000000
     16541       132  OYPE      C28           -48.3381792457        7.4184305431        8.1179414278  MEMB      132             0.0000000000
     16542       132  OYPE      H8R           -49.1178994807        7.9766633170        7.5569298113  MEMB      132             0.0000000000
     16543       132  OYPE      H8S           -47.9713212707        6.7228297549        7.3331640358  MEMB      132             0.0000000000
     16544       132  OYPE      C29           -47.1562398390        8.2435921564        8.6140995381  MEMB      132             0.0000000000
     16545       132  OYPE      H9R           -46.3375723101        7.5889683039        8.9476423725  MEMB      132             0.0000000000
     16546       132  OYPE      C210          -47.0720951848        9.5513339378        8.7300342741  MEMB      132             0.0000000000
     16547       132  OYPE      H10R          -46.1034913699        9.8947243758        9.1223219230  MEMB      132             0.0000000000
     16548       132  OYPE      C211          -48.0138852937       10.6770652284        8.4844368155  MEMB      132             0.0000000000
     16549       132  OYPE      H11R          -47.5007039329       11.6357610750        8.7121819709  MEMB      132             0.0000000000
     16550       132  OYPE      H11S          -48.8070143836       10.5617808554        9.2538377355  MEMB      132             0.0000000000
     16551       132  OYPE      C212          -48.7514516946       10.8255809416        7.1203329799  MEMB      132             0.0000000000
     16552       132  OYPE      H12R          -49.5634446678       11.5546582065        7.3287438475  MEMB      132             0.0000000000
     16553       132  OYPE      H12S          -49.1224561060        9.8621083272        6.7099707329  MEMB      132             0.0000000000
     16554       132  OYPE      C213          -47.7825686311       11.4115033501        6.0413789432  MEMB      132             0.0000000000
     16555       132  OYPE      H13R          -47.0311273894       10.6336913027        5.7870847351  MEMB      132             0.0000000000
     16556       132  OYPE      H13S          -47.3730888306       12.3893776956        6.3736575534  MEMB      132             0.0000000000
     16557       132  OYPE      C214          -48.5705678586       11.6496326118        4.7005453575  MEMB      132             0.0000000000
     16558       132  OYPE      H14R          -49.1732235579       12.5778680103        4.7980441760  MEMB      132             0.0000000000
     16559       132  OYPE      H14S          -49.2045312176       10.8226663234        4.3151386863  MEMB      132             0.0000000000
     16560       132  OYPE      C215          -47.5907893307       11.9006511428        3.5652973342  MEMB      132             0.0000000000
     16561       132  OYPE      H15R          -46.8596908706       12.7131378926        3.7644986249  MEMB      132             0.0000000000
     16562       132  OYPE      H15S          -48.2546583964       12.2617954888        2.7509414263  MEMB      132             0.0000000000
     16563       132  OYPE      C216          -46.7997992503       10.7223646418        2.9592350792  MEMB      132             0.0000000000
     16564       132  OYPE      H16R          -47.5564232215        9.9380458519        2.7431669990  MEMB      132             0.0000000000
     16565       132  OYPE      H16S          -46.1141591377       10.2074216799        3.6656718776  MEMB      132             0.0000000000
     16566       132  OYPE      H16T          -46.1353822987       11.0011920692        2.1135842446  MEMB      132             0.0000000000
     16567       132  OYPE      C33           -51.7506914463       13.0046184203       16.3340208723  MEMB      132             0.0000000000
     16568       132  OYPE      H3X           -51.0132694550       13.7293146630       16.7406478704  MEMB      132             0.0000000000
     16569       132  OYPE      H3Y           -52.4422729916       13.4468877592       15.5853994503  MEMB      132             0.0000000000
     16570       132  OYPE      C34           -50.9136607884       11.9851478958       15.6140469838  MEMB      132             0.0000000000
     16571       132  OYPE      H4X           -49.9486164519       11.9391662541       16.1625868983  MEMB      132             0.0000000000
     16572       132  OYPE      H4Y           -51.3497877427       10.9638581884       15.6469385915  MEMB      132             0.0000000000
     16573       132  OYPE      C35           -50.7162878259       12.1395835042       14.1038504041  MEMB      132             0.0000000000
     16574       132  OYPE      H5X           -50.0224545605       11.3905790842       13.6657761783  MEMB      132             0.0000000000
     16575       132  OYPE      H5Y           -50.3998016040       13.1937589761       13.9526193616  MEMB      132             0.0000000000
     16576       132  OYPE      C36           -52.0392474845       11.9357581456       13.3777376589  MEMB      132             0.0000000000
     16577       132  OYPE      H6X           -52.5215818532       11.0085524523       13.7545190199  MEMB      132             0.0000000000
     16578       132  OYPE      H6Y           -52.7994153415       12.7054979373       13.6306531430  MEMB      132             0.0000000000
     16579       132  OYPE      C37           -51.9313705704       12.0018797183       11.8632873653  MEMB      132             0.0000000000
     16580       132  OYPE      H7X           -51.4851804916       12.9399091040       11.4691597823  MEMB      132             0.0000000000
     16581       132  OYPE      H7Y           -51.3640697684       11.0930719952       11.5690774959  MEMB      132             0.0000000000
     16582       132  OYPE      C38           -53.1933360463       11.8387558255       11.0255326854  MEMB      132             0.0000000000
     16583       132  OYPE      H8X           -53.8101143743       11.0327645007       11.4775101758  MEMB      132             0.0000000000
     16584       132  OYPE      H8Y           -53.6585371048       12.8326752185       11.1988332153  MEMB      132             0.0000000000
     16585       132  OYPE      C39           -53.2428346097       11.7905295916        9.5092478525  MEMB      132             0.0000000000
     16586       132  OYPE      H9X           -53.0015762115       12.7977234116        9.1386328551  MEMB      132             0.0000000000
     16587       132  OYPE      C310          -53.5472090861       10.8564362865        8.6224374012  MEMB      132             0.0000000000
     16588       132  OYPE      H10X          -53.6147409970       11.1572456458        7.5665240864  MEMB      132             0.0000000000
     16589       132  OYPE      C311          -53.9526536386        9.4018984358        8.9630556396  MEMB      132             0.0000000000
     16590       132  OYPE      H11X          -53.0252957258        8.8167257147        9.1416633428  MEMB      132             0.0000000000
     16591       132  OYPE      H11Y          -54.4734856721        9.4215646816        9.9442123287  MEMB      132             0.0000000000
     16592       132  OYPE      C312          -54.8198759872        8.7598697825        7.8983366314  MEMB      132             0.0000000000
     16593       132  OYPE      H12X          -55.4517660397        9.5553218024        7.4485669739  MEMB      132             0.0000000000
     16594       132  OYPE      H12Y          -55.3004080727        7.9006394674        8.4132472343  MEMB      132             0.0000000000
     16595       132  OYPE      C313          -53.9486523669        8.2217398353        6.7501356993  MEMB      132             0.0000000000
     16596       132  OYPE      H13X          -53.2241669573        9.0088996518        6.4504338597  MEMB      132             0.0000000000
     16597       132  OYPE      H13Y          -53.3874571058        7.3643130543        7.1793211583  MEMB      132             0.0000000000
     16598       132  OYPE      C314          -54.8845203267        7.7101494101        5.6553472661  MEMB      132             0.0000000000
     16599       132  OYPE      H14X          -55.2929624473        8.5958732790        5.1233793495  MEMB      132             0.0000000000
     16600       132  OYPE      H14Y          -55.6494170536        7.0467492332        6.1126811638  MEMB      132             0.0000000000
     16601       132  OYPE      C315          -54.1484567462        6.8002171320        4.6198378256  MEMB      132             0.0000000000
     16602       132  OYPE      H15X          -54.8917181802        6.4575315685        3.8685383103  MEMB      132             0.0000000000
     16603       132  OYPE      H15Y          -53.7674048344        5.9534174221        5.2297976229  MEMB      132             0.0000000000
     16604       132  OYPE      C316          -52.9991839975        7.4511717904        3.8144220960  MEMB      132             0.0000000000
     16605       132  OYPE      H16X          -52.4066138823        6.7190220369        3.2252384054  MEMB      132             0.0000000000
     16606       132  OYPE      H16Y          -52.2838031011        7.8817137638        4.5473512513  MEMB      132             0.0000000000
     16607       132  OYPE      C317          -53.4224424018        8.5157901895        2.8026018033  MEMB      132             0.0000000000
     16608       132  OYPE      H17X          -53.9268038801        9.3129644086        3.3895030946  MEMB      132             0.0000000000
     16609       132  OYPE      H17Y          -54.1011683701        7.9780901627        2.1065186208  MEMB      132             0.0000000000
     16610       132  OYPE      C318          -52.2959673883        9.2793662002        2.1515166715  MEMB      132             0.0000000000
     16611       132  OYPE      H18X          -51.7806096465        8.5710919111        1.4680885200  MEMB      132             0.0000000000
     16612       132  OYPE      H18Y          -52.6525461823       10.0960028492        1.4879826090  MEMB      132             0.0000000000
     16613       132  OYPE      H18Z          -51.5114762578        9.6475868039        2.8467210057  MEMB      132             0.0000000000
     16614       133  PMPE      N             -22.8400473394       43.2686413156       19.5871383572  MEMB      133             0.0000000000
     16615       133  PMPE      HN1           -23.6469205411       43.0424261714       20.2030787633  MEMB      133             0.0000000000
     16616       133  PMPE      HN2           -22.6079482806       42.3314536033       19.2006034216  MEMB      133             0.0000000000
     16617       133  PMPE      HN3           -22.0927560516       43.8242086836       20.0502801176  MEMB      133             0.0000000000
     16618       133  PMPE      C12           -23.0916528176       43.9729169422       18.2975220533  MEMB      133             0.0000000000
     16619       133  PMPE      H12A          -23.8383201556       43.3380073905       17.7743596466  MEMB      133             0.0000000000
     16620       133  PMPE      H12B          -22.0938382582       43.9688105125       17.8089831760  MEMB      133             0.0000000000
     16621       133  PMPE      C11           -23.5746516369       45.4267145029       18.5954956632  MEMB      133             0.0000000000
     16622       133  PMPE      H11A          -23.5872674209       46.0144782260       17.6527890438  MEMB      133             0.0000000000
     16623       133  PMPE      H11B          -22.7227016027       45.8971783598       19.1313743779  MEMB      133             0.0000000000
     16624       133  PMPE      P             -25.7963191144       46.5218466021       19.1652607291  MEMB      133             0.0000000000
     16625       133  PMPE      O13           -25.2005162227       47.8814649135       19.2547393993  MEMB      133             0.0000000000
     16626       133  PMPE      O14           -26.9685914562       46.1210653079       20.0535420984  MEMB      133             0.0000000000
     16627       133  PMPE      O11           -26.1576931668       46.3747650194       17.5672015979  MEMB      133             0.0000000000
     16628       133  PMPE      O12           -24.6743658339       45.4411957807       19.4791000998  MEMB      133             0.0000000000
     16629       133  PMPE      C1            -26.4632501884       45.0861451553       17.0335005292  MEMB      133             0.0000000000
     16630       133  PMPE      HA            -27.5556777615       44.9459793326       17.1793646056  MEMB      133             0.0000000000
     16631       133  PMPE      HB            -25.9021758976       44.2738597576       17.5431171390  MEMB      133             0.0000000000
     16632       133  PMPE      C2            -26.0926115848       45.0803307017       15.5432455457  MEMB      133             0.0000000000
     16633       133  PMPE      HS            -26.3644727246       44.0811578966       15.1406711703  MEMB      133             0.0000000000
     16634       133  PMPE      O21           -24.6636257813       45.3142282227       15.3446320356  MEMB      133             0.0000000000
     16635       133  PMPE      C21           -24.0088914104       44.5557653513       14.4958845581  MEMB      133             0.0000000000
     16636       133  PMPE      O22           -24.4744943496       43.5921014005       13.9193704450  MEMB      133             0.0000000000
     16637       133  PMPE      C22           -22.5442435686       44.9939731777       14.3953865599  MEMB      133             0.0000000000
     16638       133  PMPE      H2R           -21.9411564953       44.3612925610       15.0811871951  MEMB      133             0.0000000000
     16639       133  PMPE      H2S           -22.4235390542       46.0212620410       14.8008852724  MEMB      133             0.0000000000
     16640       133  PMPE      C3            -26.8960521684       46.1161404499       14.6855573472  MEMB      133             0.0000000000
     16641       133  PMPE      HX            -26.9577678566       47.1021902681       15.1937087318  MEMB      133             0.0000000000
     16642       133  PMPE      HY            -27.9040696238       45.6502332582       14.7194986392  MEMB      133             0.0000000000
     16643       133  PMPE      O31           -26.3099158182       46.4479894281       13.3887811602  MEMB      133             0.0000000000
     16644       133  PMPE      C31           -26.5010939123       45.6577092998       12.3698440091  MEMB      133             0.0000000000
     16645       133  PMPE      O32           -27.1392073724       44.6161108165       12.3891642031  MEMB      133             0.0000000000
     16646       133  PMPE      C32           -25.8081822766       46.2299355749       11.0559898272  MEMB      133             0.0000000000
     16647       133  PMPE      H2X           -24.7354217476       46.1644034941       11.3374348358  MEMB      133             0.0000000000
     16648       133  PMPE      H2Y           -26.2878759029       47.2213805169       10.9102097215  MEMB      133             0.0000000000
     16649       133  PMPE      C23           -21.8619057458       44.9042456373       13.0153095757  MEMB      133             0.0000000000
     16650       133  PMPE      H3R           -20.9225586056       45.4769693105       13.1700221843  MEMB      133             0.0000000000
     16651       133  PMPE      H3S           -22.3520429467       45.5535458940       12.2586756149  MEMB      133             0.0000000000
     16652       133  PMPE      C24           -21.5436741539       43.4891082084       12.5074267072  MEMB      133             0.0000000000
     16653       133  PMPE      H4R           -22.4567340312       42.8882838419       12.3082957977  MEMB      133             0.0000000000
     16654       133  PMPE      H4S           -21.0854410871       42.9720798408       13.3774985934  MEMB      133             0.0000000000
     16655       133  PMPE      C25           -20.6920368801       43.6393666531       11.2441495951  MEMB      133             0.0000000000
     16656       133  PMPE      H5R           -20.2732013887       42.6409417692       10.9950597706  MEMB      133             0.0000000000
     16657       133  PMPE      H5S           -20.0108270984       44.4863576777       11.4741065448  MEMB      133             0.0000000000
     16658       133  PMPE      C26           -21.5513840928       43.9765732878       10.0161685535  MEMB      133             0.0000000000
     16659       133  PMPE      H6R           -22.2152808793       44.8662675018       10.0609581052  MEMB      133             0.0000000000
     16660       133  PMPE      H6S           -22.2777398496       43.1359944181       10.0036960193  MEMB      133             0.0000000000
     16661       133  PMPE      C27           -20.7403168967       43.7777812521        8.7161573284  MEMB      133             0.0000000000
     16662       133  PMPE      H7R           -20.7094336659       42.6707833583        8.6271467829  MEMB      133             0.0000000000
     16663       133  PMPE      H7S           -19.7215196536       44.1805348836        8.9009895263  MEMB      133             0.0000000000
     16664       133  PMPE      C28           -21.2172732850       44.5213806662        7.4267891327  MEMB      133             0.0000000000
     16665       133  PMPE      H8R           -22.2994536402       44.3033382781        7.3016352404  MEMB      133             0.0000000000
     16666       133  PMPE      H8S           -20.8190001858       44.0368280190        6.5097787037  MEMB      133             0.0000000000
     16667       133  PMPE      C29           -20.8440849550       46.0082092510        7.4520309839  MEMB      133             0.0000000000
     16668       133  PMPE      H9R           -19.7501060271       46.0120865593        7.6457220570  MEMB      133             0.0000000000
     16669       133  PMPE      C217          -21.7842299584       47.0656742437        8.0041637941  MEMB      133             0.0000000000
     16670       133  PMPE      H17R          -21.2978794236       47.9257066209        8.4476693401  MEMB      133             0.0000000000
     16671       133  PMPE      H17S          -22.6495513937       46.5599920421        8.4145216313  MEMB      133             0.0000000000
     16672       133  PMPE      C210          -21.4454518263       46.9953834732        6.5759310502  MEMB      133             0.0000000000
     16673       133  PMPE      H10R          -20.6893326100       47.5543021791        5.9841417027  MEMB      133             0.0000000000
     16674       133  PMPE      C211          -22.5874991758       46.6261698074        5.7188975497  MEMB      133             0.0000000000
     16675       133  PMPE      H11R          -23.3881933918       46.1198627258        6.2992965208  MEMB      133             0.0000000000
     16676       133  PMPE      H11S          -22.4059372301       45.9308812982        4.8715896354  MEMB      133             0.0000000000
     16677       133  PMPE      C212          -23.1499642372       47.8773721267        4.9970909667  MEMB      133             0.0000000000
     16678       133  PMPE      H12R          -22.3137709982       48.1051265661        4.3019434230  MEMB      133             0.0000000000
     16679       133  PMPE      H12S          -23.1626494502       48.7398387080        5.6973133190  MEMB      133             0.0000000000
     16680       133  PMPE      C213          -24.5342694808       47.8597930215        4.2856697025  MEMB      133             0.0000000000
     16681       133  PMPE      H13R          -24.7383513741       48.8729339777        3.8779723892  MEMB      133             0.0000000000
     16682       133  PMPE      H13S          -25.3871204241       47.6635612906        4.9701102723  MEMB      133             0.0000000000
     16683       133  PMPE      C214          -24.4785288115       46.6638007752        3.2254712310  MEMB      133             0.0000000000
     16684       133  PMPE      H14R          -24.3802150644       45.6759083086        3.7241931877  MEMB      133             0.0000000000
     16685       133  PMPE      H14S          -23.5704118839       46.6724808008        2.5854950199  MEMB      133             0.0000000000
     16686       133  PMPE      C215          -25.6672840413       46.7072256057        2.2813346730  MEMB      133             0.0000000000
     16687       133  PMPE      H15R          -26.5477837198       47.1764034393        2.7701225142  MEMB      133             0.0000000000
     16688       133  PMPE      H15S          -25.9082269658       45.6421426916        2.0767219035  MEMB      133             0.0000000000
     16689       133  PMPE      C216          -25.3329486036       47.3934379950        1.0130811406  MEMB      133             0.0000000000
     16690       133  PMPE      H16R          -25.0101317392       48.4526634174        1.1033638451  MEMB      133             0.0000000000
     16691       133  PMPE      H16S          -24.5389988873       46.7986265178        0.5129158010  MEMB      133             0.0000000000
     16692       133  PMPE      H16T          -26.1834813198       47.4721545940        0.3026454119  MEMB      133             0.0000000000
     16693       133  PMPE      C33           -26.1513717495       45.2234516871        9.9289986404  MEMB      133             0.0000000000
     16694       133  PMPE      H3X           -27.2354464150       45.4627203783        9.9720521070  MEMB      133             0.0000000000
     16695       133  PMPE      H3Y           -25.9141827209       44.1533259494       10.1103635529  MEMB      133             0.0000000000
     16696       133  PMPE      C34           -25.5324987510       45.7073536093        8.6350490335  MEMB      133             0.0000000000
     16697       133  PMPE      H4X           -24.4658542123       45.4025217917        8.6956129782  MEMB      133             0.0000000000
     16698       133  PMPE      H4Y           -25.6148745668       46.8148472526        8.6035346828  MEMB      133             0.0000000000
     16699       133  PMPE      C35           -26.0385905680       45.0496637843        7.3537707084  MEMB      133             0.0000000000
     16700       133  PMPE      H5X           -25.4237923620       45.5363661823        6.5667097805  MEMB      133             0.0000000000
     16701       133  PMPE      H5Y           -27.0755739218       45.4427603786        7.2869766247  MEMB      133             0.0000000000
     16702       133  PMPE      C36           -26.0888758259       43.4954046238        7.2697905893  MEMB      133             0.0000000000
     16703       133  PMPE      H6X           -26.9182490657       43.2969530125        6.5576963606  MEMB      133             0.0000000000
     16704       133  PMPE      H6Y           -26.5719989265       43.1735962790        8.2170776944  MEMB      133             0.0000000000
     16705       133  PMPE      C37           -24.8518893252       42.6738085313        6.8195275167  MEMB      133             0.0000000000
     16706       133  PMPE      H7X           -25.1291821652       41.6035564020        6.7100288915  MEMB      133             0.0000000000
     16707       133  PMPE      H7Y           -24.0299243707       42.6165461719        7.5647894121  MEMB      133             0.0000000000
     16708       133  PMPE      C38           -24.1208353334       43.1925474825        5.4919873886  MEMB      133             0.0000000000
     16709       133  PMPE      H8X           -23.8141751421       44.2519509259        5.6259458309  MEMB      133             0.0000000000
     16710       133  PMPE      H8Y           -24.9514261979       43.1215936548        4.7575447917  MEMB      133             0.0000000000
     16711       133  PMPE      C39           -22.9072925551       42.3918866572        5.0816320137  MEMB      133             0.0000000000
     16712       133  PMPE      H9X           -23.1606643800       41.3197907137        5.2256247877  MEMB      133             0.0000000000
     16713       133  PMPE      H9Y           -21.9516547501       42.6965019904        5.5594255489  MEMB      133             0.0000000000
     16714       133  PMPE      C310          -22.7574201787       42.4089750544        3.5730927260  MEMB      133             0.0000000000
     16715       133  PMPE      H10X          -23.7327833709       42.4054001147        3.0411388012  MEMB      133             0.0000000000
     16716       133  PMPE      H10Y          -22.1425997273       41.4989945692        3.4050097685  MEMB      133             0.0000000000
     16717       133  PMPE      C311          -22.0404193523       43.6780897777        3.0906799065  MEMB      133             0.0000000000
     16718       133  PMPE      H11X          -21.1950110587       43.8100396569        3.7993372748  MEMB      133             0.0000000000
     16719       133  PMPE      H11Y          -22.6510213259       44.5995423234        3.2020861574  MEMB      133             0.0000000000
     16720       133  PMPE      C312          -21.1923298960       43.5529496348        1.8004888678  MEMB      133             0.0000000000
     16721       133  PMPE      H12X          -20.2491066064       42.9730847103        1.8921791080  MEMB      133             0.0000000000
     16722       133  PMPE      H12Y          -20.8421173317       44.5852301599        1.5858526652  MEMB      133             0.0000000000
     16723       133  PMPE      C313          -21.9987676454       43.0154397384        0.5606082560  MEMB      133             0.0000000000
     16724       133  PMPE      H13X          -22.2075741680       41.9296966664        0.6696160099  MEMB      133             0.0000000000
     16725       133  PMPE      H13Y          -21.3601270726       43.0102373853       -0.3484760116  MEMB      133             0.0000000000
     16726       133  PMPE      C314          -23.2118013623       43.7631480702        0.2170588877  MEMB      133             0.0000000000
     16727       133  PMPE      H14X          -23.1089739587       44.8054306206       -0.1536089014  MEMB      133             0.0000000000
     16728       133  PMPE      H14Y          -24.0367700381       43.8252185841        0.9586093036  MEMB      133             0.0000000000
     16729       133  PMPE      C315          -24.0333394868       43.1999923144       -0.9622931845  MEMB      133             0.0000000000
     16730       133  PMPE      H15X          -24.8555977027       43.8903855054       -1.2478966243  MEMB      133             0.0000000000
     16731       133  PMPE      H15Y          -24.4952072818       42.2365710725       -0.6576310210  MEMB      133             0.0000000000
     16732       133  PMPE      C316          -23.2419571615       42.8187232066       -2.1649133319  MEMB      133             0.0000000000
     16733       133  PMPE      H16X          -22.5256895359       41.9858182964       -1.9989283303  MEMB      133             0.0000000000
     16734       133  PMPE      H16Y          -22.7868347141       43.7493140330       -2.5663921416  MEMB      133             0.0000000000
     16735       133  PMPE      H16Z          -23.8256274131       42.4829742013       -3.0486125424  MEMB      133             0.0000000000
     16736       134  PMPE      N               7.6587709722       52.1058898620       17.9686791220  MEMB      134             0.0000000000
     16737       134  PMPE      HN1             7.5718991012       51.2810847923       17.3411841740  MEMB      134             0.0000000000
     16738       134  PMPE      HN2             8.6052262377       52.5352068363       18.0075333756  MEMB      134             0.0000000000
     16739       134  PMPE      HN3             7.5504819083       51.7321232957       18.9331333224  MEMB      134             0.0000000000
     16740       134  PMPE      C12             6.5783255415       53.0460027711       17.7140320794  MEMB      134             0.0000000000
     16741       134  PMPE      H12A            6.6236624487       53.2420049809       16.6213981827  MEMB      134             0.0000000000
     16742       134  PMPE      H12B            6.7527818504       53.9820127155       18.2865451220  MEMB      134             0.0000000000
     16743       134  PMPE      C11             5.2340752736       52.4538955533       17.9454712380  MEMB      134             0.0000000000
     16744       134  PMPE      H11A            5.2030683627       51.5832008613       17.2560873354  MEMB      134             0.0000000000
     16745       134  PMPE      H11B            4.5050463585       53.2125247817       17.5886524288  MEMB      134             0.0000000000
     16746       134  PMPE      P               3.8506574068       51.1977740345       19.7400868950  MEMB      134             0.0000000000
     16747       134  PMPE      O13             2.7500489950       51.9651216839       20.3385987184  MEMB      134             0.0000000000
     16748       134  PMPE      O14             4.4803009887       50.1618499513       20.6045885826  MEMB      134             0.0000000000
     16749       134  PMPE      O11             3.4147641484       50.5662697397       18.3541514796  MEMB      134             0.0000000000
     16750       134  PMPE      O12             5.0598083535       52.2841092061       19.3343919225  MEMB      134             0.0000000000
     16751       134  PMPE      C1              3.7274176003       49.1449235868       18.0934331091  MEMB      134             0.0000000000
     16752       134  PMPE      HA              3.3275847954       48.4346571532       18.8484008555  MEMB      134             0.0000000000
     16753       134  PMPE      HB              4.8207924464       48.9484496505       18.1092621891  MEMB      134             0.0000000000
     16754       134  PMPE      C2              3.0382379205       48.6825453583       16.7708626573  MEMB      134             0.0000000000
     16755       134  PMPE      HS              3.3343244974       47.6162912264       16.6720892244  MEMB      134             0.0000000000
     16756       134  PMPE      O21             3.4713168900       49.5710457333       15.7046380592  MEMB      134             0.0000000000
     16757       134  PMPE      C21             4.7351030186       49.3062459492       15.2819628974  MEMB      134             0.0000000000
     16758       134  PMPE      O22             5.4294183808       48.3512273511       15.5947171072  MEMB      134             0.0000000000
     16759       134  PMPE      C22             5.2164866222       50.4577372518       14.3266131403  MEMB      134             0.0000000000
     16760       134  PMPE      H2R             4.8687559358       51.4050440660       14.7913862115  MEMB      134             0.0000000000
     16761       134  PMPE      H2S             4.9334576085       50.2049825128       13.2824239929  MEMB      134             0.0000000000
     16762       134  PMPE      C3              1.4756657154       48.6450454513       16.7755314898  MEMB      134             0.0000000000
     16763       134  PMPE      HX              1.2279399481       47.9176007995       17.5778885825  MEMB      134             0.0000000000
     16764       134  PMPE      HY              1.0840096535       48.1989320926       15.8364312008  MEMB      134             0.0000000000
     16765       134  PMPE      O31             0.9617571096       49.9784421689       17.0586810794  MEMB      134             0.0000000000
     16766       134  PMPE      C31             0.7131791580       50.6953365280       15.9752260109  MEMB      134             0.0000000000
     16767       134  PMPE      O32             0.6819432771       50.3554810949       14.7948150857  MEMB      134             0.0000000000
     16768       134  PMPE      C32             0.5003538080       52.2317010863       16.3525538572  MEMB      134             0.0000000000
     16769       134  PMPE      H2X             0.3698849279       52.2978861749       17.4538795760  MEMB      134             0.0000000000
     16770       134  PMPE      H2Y            -0.4323912129       52.4695389032       15.7978098676  MEMB      134             0.0000000000
     16771       134  PMPE      C23             6.8251752982       50.5449741155       14.3007704828  MEMB      134             0.0000000000
     16772       134  PMPE      H3R             7.3828270090       50.0462073029       15.1220971419  MEMB      134             0.0000000000
     16773       134  PMPE      H3S             7.0512848951       51.6316090725       14.3499615219  MEMB      134             0.0000000000
     16774       134  PMPE      C24             7.3901385695       50.0753618109       12.9608102823  MEMB      134             0.0000000000
     16775       134  PMPE      H4R             6.8454837272       50.5708617024       12.1288536179  MEMB      134             0.0000000000
     16776       134  PMPE      H4S             7.1901966385       48.9962692752       12.7878840157  MEMB      134             0.0000000000
     16777       134  PMPE      C25             8.8756503835       50.4307181524       12.8839132318  MEMB      134             0.0000000000
     16778       134  PMPE      H5R             9.2819520865       49.7749944962       12.0843720296  MEMB      134             0.0000000000
     16779       134  PMPE      H5S             9.4711292377       50.1842918991       13.7888993625  MEMB      134             0.0000000000
     16780       134  PMPE      C26             9.0534302406       51.8759823016       12.4996954348  MEMB      134             0.0000000000
     16781       134  PMPE      H6R            10.1238825265       52.1028787226       12.3074178148  MEMB      134             0.0000000000
     16782       134  PMPE      H6S             8.6194782682       52.4691608092       13.3328498525  MEMB      134             0.0000000000
     16783       134  PMPE      C27             8.4852286888       52.5764257596       11.2527085245  MEMB      134             0.0000000000
     16784       134  PMPE      H7R             9.1463914994       53.4504562012       11.0703474617  MEMB      134             0.0000000000
     16785       134  PMPE      H7S             7.4245363026       52.8990877497       11.3244150206  MEMB      134             0.0000000000
     16786       134  PMPE      C28             8.4295596856       51.6352471841        9.9404115235  MEMB      134             0.0000000000
     16787       134  PMPE      H8R             7.7103122353       50.8619383948       10.2853720330  MEMB      134             0.0000000000
     16788       134  PMPE      H8S             9.4515411448       51.2903686753        9.6740774092  MEMB      134             0.0000000000
     16789       134  PMPE      C29             7.9969434434       52.4008723852        8.7402098766  MEMB      134             0.0000000000
     16790       134  PMPE      H9R             8.4662455166       53.3969486227        8.5921949487  MEMB      134             0.0000000000
     16791       134  PMPE      C217            6.4819615086       52.6873841564        8.9678838707  MEMB      134             0.0000000000
     16792       134  PMPE      H17R            6.0791338957       53.6532026150        8.6889325921  MEMB      134             0.0000000000
     16793       134  PMPE      H17S            6.0946641013       52.0393859607        9.7444071023  MEMB      134             0.0000000000
     16794       134  PMPE      C210            6.9302807423       51.9955784475        7.7367108479  MEMB      134             0.0000000000
     16795       134  PMPE      H10R            6.9679559650       52.5218505909        6.7589891687  MEMB      134             0.0000000000
     16796       134  PMPE      C211            6.6916106159       50.4500223371        7.6478789320  MEMB      134             0.0000000000
     16797       134  PMPE      H11R            5.7599611152       50.3170974005        7.0573862342  MEMB      134             0.0000000000
     16798       134  PMPE      H11S            6.4879322325       50.0776288924        8.6746017343  MEMB      134             0.0000000000
     16799       134  PMPE      C212            7.8668510221       49.5677616582        7.2989747356  MEMB      134             0.0000000000
     16800       134  PMPE      H12R            7.7626558509       48.5809902649        7.7987209402  MEMB      134             0.0000000000
     16801       134  PMPE      H12S            8.7696809723       49.9020064180        7.8535014925  MEMB      134             0.0000000000
     16802       134  PMPE      C213            8.1536629656       49.5748419816        5.7630400735  MEMB      134             0.0000000000
     16803       134  PMPE      H13R            7.1915522605       49.5903567934        5.2076815398  MEMB      134             0.0000000000
     16804       134  PMPE      H13S            8.7520480844       48.6525352153        5.6030209936  MEMB      134             0.0000000000
     16805       134  PMPE      C214            9.0825286258       50.7136506916        5.2889522933  MEMB      134             0.0000000000
     16806       134  PMPE      H14R           10.0497250283       50.6415734732        5.8308526219  MEMB      134             0.0000000000
     16807       134  PMPE      H14S            8.7195978534       51.7241840413        5.5743007988  MEMB      134             0.0000000000
     16808       134  PMPE      C215            9.2538543684       50.7084423815        3.7287550049  MEMB      134             0.0000000000
     16809       134  PMPE      H15R            8.2974991295       50.5093525715        3.1995385946  MEMB      134             0.0000000000
     16810       134  PMPE      H15S            9.8431445913       49.7810410598        3.5644831511  MEMB      134             0.0000000000
     16811       134  PMPE      C216            9.9697083611       51.8819752950        3.1293142282  MEMB      134             0.0000000000
     16812       134  PMPE      H16R           10.7324794321       52.3266534193        3.8036747350  MEMB      134             0.0000000000
     16813       134  PMPE      H16S           10.3500183768       51.5907901595        2.1268683532  MEMB      134             0.0000000000
     16814       134  PMPE      H16T            9.1346648052       52.6075072249        3.0262286579  MEMB      134             0.0000000000
     16815       134  PMPE      C33             1.5719106882       53.0973705867       15.7128236042  MEMB      134             0.0000000000
     16816       134  PMPE      H3X             2.6147912618       52.7576140890       15.8897037085  MEMB      134             0.0000000000
     16817       134  PMPE      H3Y             1.4209000675       54.0752960624       16.2179756853  MEMB      134             0.0000000000
     16818       134  PMPE      C34             1.3791693998       53.2997484604       14.2186139059  MEMB      134             0.0000000000
     16819       134  PMPE      H4X             1.3347229200       54.3599272383       13.8894231561  MEMB      134             0.0000000000
     16820       134  PMPE      H4Y             0.4184519662       52.7933498321       13.9842989971  MEMB      134             0.0000000000
     16821       134  PMPE      C35             2.3679074921       52.5758458645       13.3633380990  MEMB      134             0.0000000000
     16822       134  PMPE      H5X             2.6858498297       51.6137578696       13.8189915043  MEMB      134             0.0000000000
     16823       134  PMPE      H5Y             3.3691573426       53.0520729448       13.4342421305  MEMB      134             0.0000000000
     16824       134  PMPE      C36             1.8329925564       52.1876938448       11.9719318295  MEMB      134             0.0000000000
     16825       134  PMPE      H6X             0.8480496479       51.7012714309       12.1380692004  MEMB      134             0.0000000000
     16826       134  PMPE      H6Y             2.4568121246       51.4329826973       11.4469737810  MEMB      134             0.0000000000
     16827       134  PMPE      C37             1.5126593093       53.3580412765       11.0852341516  MEMB      134             0.0000000000
     16828       134  PMPE      H7X             2.4478679682       53.9572404429       11.0594263422  MEMB      134             0.0000000000
     16829       134  PMPE      H7Y             0.8015722447       54.0170057271       11.6278588934  MEMB      134             0.0000000000
     16830       134  PMPE      C38             1.0425577323       53.1040006086        9.6490655851  MEMB      134             0.0000000000
     16831       134  PMPE      H8X             0.3781221133       53.9641524104        9.4188785727  MEMB      134             0.0000000000
     16832       134  PMPE      H8Y             0.3459934136       52.2446860657        9.5456356997  MEMB      134             0.0000000000
     16833       134  PMPE      C39             2.1415364014       53.0803874931        8.5695846850  MEMB      134             0.0000000000
     16834       134  PMPE      H9X             2.7610442617       52.1717851268        8.7276121753  MEMB      134             0.0000000000
     16835       134  PMPE      H9Y             2.8150276307       53.9309124386        8.8090379689  MEMB      134             0.0000000000
     16836       134  PMPE      C310            1.5733215808       53.3195071597        7.1863684393  MEMB      134             0.0000000000
     16837       134  PMPE      H10X            0.9589665390       54.2447316261        7.2154946817  MEMB      134             0.0000000000
     16838       134  PMPE      H10Y            0.8351251697       52.5283727135        6.9343889043  MEMB      134             0.0000000000
     16839       134  PMPE      C311            2.7078833696       53.2024143137        6.1042327988  MEMB      134             0.0000000000
     16840       134  PMPE      H11X            3.4767520597       53.9892268075        6.2594359302  MEMB      134             0.0000000000
     16841       134  PMPE      H11Y            2.1752677481       53.4385949203        5.1582621018  MEMB      134             0.0000000000
     16842       134  PMPE      C312            3.2954605889       51.7547498224        5.9458305655  MEMB      134             0.0000000000
     16843       134  PMPE      H12X            2.4193536097       51.0752128488        6.0164503326  MEMB      134             0.0000000000
     16844       134  PMPE      H12Y            3.9807213759       51.3937334710        6.7423271608  MEMB      134             0.0000000000
     16845       134  PMPE      C313            3.9826587426       51.4750795926        4.6249945461  MEMB      134             0.0000000000
     16846       134  PMPE      H13X            3.1732751902       51.4457189337        3.8644963787  MEMB      134             0.0000000000
     16847       134  PMPE      H13Y            4.2928986918       50.4215648007        4.7928592096  MEMB      134             0.0000000000
     16848       134  PMPE      C314            5.1762020308       52.4022343534        4.2620367807  MEMB      134             0.0000000000
     16849       134  PMPE      H14X            6.0996570698       52.2302904327        4.8553214584  MEMB      134             0.0000000000
     16850       134  PMPE      H14Y            4.7464272964       53.4205764197        4.1498127305  MEMB      134             0.0000000000
     16851       134  PMPE      C315            5.7710298730       52.2381739019        2.8011960988  MEMB      134             0.0000000000
     16852       134  PMPE      H15X            5.9279081484       51.1509795932        2.6347054246  MEMB      134             0.0000000000
     16853       134  PMPE      H15Y            6.8414397636       52.5356076304        2.7924362287  MEMB      134             0.0000000000
     16854       134  PMPE      C316            5.0113040223       52.8042745466        1.5904577704  MEMB      134             0.0000000000
     16855       134  PMPE      H16X            5.4033348837       52.4199318595        0.6245829292  MEMB      134             0.0000000000
     16856       134  PMPE      H16Y            5.2402097983       53.8910598291        1.5618058237  MEMB      134             0.0000000000
     16857       134  PMPE      H16Z            3.9203288630       52.5944186676        1.5830575021  MEMB      134             0.0000000000
     16858       135  QMPE      N              -3.1462528165       53.4671307941       21.6733712468  MEMB      135             0.0000000000
     16859       135  QMPE      HN1            -3.4850117540       53.9183451792       20.7997304285  MEMB      135             0.0000000000
     16860       135  QMPE      HN2            -3.8290673391       53.5358130437       22.4548102893  MEMB      135             0.0000000000
     16861       135  QMPE      HN3            -2.3194356192       54.0298306149       21.9585768834  MEMB      135             0.0000000000
     16862       135  QMPE      C12            -2.8840869708       52.0167352745       21.3624151566  MEMB      135             0.0000000000
     16863       135  QMPE      H12A           -3.1954397517       51.4834709289       22.2860004441  MEMB      135             0.0000000000
     16864       135  QMPE      H12B           -1.7733215440       52.0393611030       21.3654703487  MEMB      135             0.0000000000
     16865       135  QMPE      C11            -3.7858132295       51.4435584636       20.2219604314  MEMB      135             0.0000000000
     16866       135  QMPE      H11A           -4.8325356108       51.7775383398       20.3867349700  MEMB      135             0.0000000000
     16867       135  QMPE      H11B           -3.7312524589       50.3506088591       20.0301133887  MEMB      135             0.0000000000
     16868       135  QMPE      P              -3.9557088566       51.5577150748       17.7017414170  MEMB      135             0.0000000000
     16869       135  QMPE      O13            -4.0002200116       52.6111601965       16.6665751306  MEMB      135             0.0000000000
     16870       135  QMPE      O14            -5.1643263029       50.7910507897       17.8960719872  MEMB      135             0.0000000000
     16871       135  QMPE      O11            -2.7281892405       50.5751774532       17.4019331952  MEMB      135             0.0000000000
     16872       135  QMPE      O12            -3.4080798491       52.1715895520       19.0759314745  MEMB      135             0.0000000000
     16873       135  QMPE      C1             -2.6313881036       49.6797513779       16.2914639797  MEMB      135             0.0000000000
     16874       135  QMPE      HA             -3.5756661987       49.4222059703       15.7657929129  MEMB      135             0.0000000000
     16875       135  QMPE      HB             -2.0969219282       48.7951456877       16.6990665337  MEMB      135             0.0000000000
     16876       135  QMPE      C2             -1.4824781040       50.2622690065       15.3524083589  MEMB      135             0.0000000000
     16877       135  QMPE      HS             -0.6141755401       50.4501621982       16.0195425126  MEMB      135             0.0000000000
     16878       135  QMPE      O21            -2.0707154679       51.4209979200       14.7941975071  MEMB      135             0.0000000000
     16879       135  QMPE      C21            -1.4402017184       52.4189039450       14.2308309427  MEMB      135             0.0000000000
     16880       135  QMPE      O22            -0.2409103143       52.5688673352       13.9663622300  MEMB      135             0.0000000000
     16881       135  QMPE      C22            -2.5043903886       53.4837612777       13.6932127312  MEMB      135             0.0000000000
     16882       135  QMPE      H2R            -2.1130169575       53.8718132302       12.7285555036  MEMB      135             0.0000000000
     16883       135  QMPE      H2S            -2.7356526171       54.2849734109       14.4273094162  MEMB      135             0.0000000000
     16884       135  QMPE      C3             -1.0238131503       49.3140013620       14.1975729723  MEMB      135             0.0000000000
     16885       135  QMPE      HX             -0.6690076591       48.3836524686       14.6904060618  MEMB      135             0.0000000000
     16886       135  QMPE      HY             -0.1769631753       49.7741943075       13.6449530854  MEMB      135             0.0000000000
     16887       135  QMPE      O31            -1.9933896744       49.0422434423       13.2287652604  MEMB      135             0.0000000000
     16888       135  QMPE      C31            -2.0860207757       49.7032213282       12.1317396324  MEMB      135             0.0000000000
     16889       135  QMPE      O32            -1.3912022178       50.6636820607       11.8408020568  MEMB      135             0.0000000000
     16890       135  QMPE      C32            -3.3422064749       49.2531398874       11.3572979220  MEMB      135             0.0000000000
     16891       135  QMPE      H2X            -3.2670504157       48.1768877818       11.0920547010  MEMB      135             0.0000000000
     16892       135  QMPE      H2Y            -4.2169879951       49.4333142822       12.0180669796  MEMB      135             0.0000000000
     16893       135  QMPE      C23            -3.8534220694       52.9133235667       13.2509501985  MEMB      135             0.0000000000
     16894       135  QMPE      H3R            -4.3903211393       52.3309247834       14.0299699138  MEMB      135             0.0000000000
     16895       135  QMPE      H3S            -3.5787894783       52.1980822274       12.4463833604  MEMB      135             0.0000000000
     16896       135  QMPE      C24            -4.9281396731       53.8816225735       12.6205329447  MEMB      135             0.0000000000
     16897       135  QMPE      H4R            -4.5346832875       54.4565592273       11.7551075115  MEMB      135             0.0000000000
     16898       135  QMPE      H4S            -5.3066913956       54.5327954821       13.4372293930  MEMB      135             0.0000000000
     16899       135  QMPE      C25            -6.1721671086       53.1359203017       12.1548180444  MEMB      135             0.0000000000
     16900       135  QMPE      H5R            -7.0109054501       53.8630145105       12.2014323130  MEMB      135             0.0000000000
     16901       135  QMPE      H5S            -6.4403783449       52.2983055928       12.8336298929  MEMB      135             0.0000000000
     16902       135  QMPE      C26            -6.0734001636       52.4337797034       10.7402377226  MEMB      135             0.0000000000
     16903       135  QMPE      H6R            -5.5193388556       51.4878118914       10.9204652364  MEMB      135             0.0000000000
     16904       135  QMPE      H6S            -5.5486130394       53.1820889694       10.1086108132  MEMB      135             0.0000000000
     16905       135  QMPE      C27            -7.3957207221       51.9571829481       10.1777736694  MEMB      135             0.0000000000
     16906       135  QMPE      H7R            -8.1229034662       52.7971319299       10.1812303109  MEMB      135             0.0000000000
     16907       135  QMPE      H7S            -7.7086991298       51.1942495506       10.9222859526  MEMB      135             0.0000000000
     16908       135  QMPE      C28            -7.3388110363       51.1191256592        8.8095178394  MEMB      135             0.0000000000
     16909       135  QMPE      H8R            -8.2359266773       50.6454721433        8.3565760885  MEMB      135             0.0000000000
     16910       135  QMPE      H8S            -6.6525354777       50.2763016436        9.0397238699  MEMB      135             0.0000000000
     16911       135  QMPE      C29            -6.5942073613       51.8397514396        7.6529314569  MEMB      135             0.0000000000
     16912       135  QMPE      H9R            -5.7183690565       52.4089268422        8.0314381500  MEMB      135             0.0000000000
     16913       135  QMPE      C217           -7.5325792017       52.5791578465        6.7292781526  MEMB      135             0.0000000000
     16914       135  QMPE      H17R           -8.5534184775       52.2255331107        6.8049415820  MEMB      135             0.0000000000
     16915       135  QMPE      H17S           -7.3550290796       53.5800200899        6.3555936666  MEMB      135             0.0000000000
     16916       135  QMPE      C210           -6.6717913372       51.4820353452        6.1657860937  MEMB      135             0.0000000000
     16917       135  QMPE      H10R           -5.6707075489       51.6510328028        5.7145742694  MEMB      135             0.0000000000
     16918       135  QMPE      C211           -7.2319311643       50.0355625936        6.0382355349  MEMB      135             0.0000000000
     16919       135  QMPE      H11R           -6.7338762491       49.4968387680        6.8725252237  MEMB      135             0.0000000000
     16920       135  QMPE      H11S           -8.3143210282       49.9988715252        6.2860399127  MEMB      135             0.0000000000
     16921       135  QMPE      C212           -6.9086854779       49.3485137840        4.7283964225  MEMB      135             0.0000000000
     16922       135  QMPE      H12R           -7.2027976860       48.2833698457        4.8436676259  MEMB      135             0.0000000000
     16923       135  QMPE      H12S           -5.8013146414       49.4033967985        4.6574118155  MEMB      135             0.0000000000
     16924       135  QMPE      C213           -7.5435223969       49.9852933177        3.4874227266  MEMB      135             0.0000000000
     16925       135  QMPE      H13R           -7.8657750423       51.0289647714        3.6904593141  MEMB      135             0.0000000000
     16926       135  QMPE      H13S           -8.4532946822       49.4954976448        3.0790909659  MEMB      135             0.0000000000
     16927       135  QMPE      C214           -6.5299677490       49.9539196612        2.3190801485  MEMB      135             0.0000000000
     16928       135  QMPE      H14R           -6.1910178783       48.9386640223        2.0212715061  MEMB      135             0.0000000000
     16929       135  QMPE      H14S           -5.6856655702       50.3871373818        2.8968314764  MEMB      135             0.0000000000
     16930       135  QMPE      C215           -6.9187192648       50.8490646347        1.1109358932  MEMB      135             0.0000000000
     16931       135  QMPE      H15R           -6.8197123044       51.9083628836        1.4309445024  MEMB      135             0.0000000000
     16932       135  QMPE      H15S           -7.9995624946       50.6133722047        1.0082296059  MEMB      135             0.0000000000
     16933       135  QMPE      C216           -6.1630409693       50.5835473110       -0.1358814809  MEMB      135             0.0000000000
     16934       135  QMPE      H16R           -6.3993386100       51.4452118386       -0.7961981422  MEMB      135             0.0000000000
     16935       135  QMPE      H16S           -6.4330437521       49.6900291474       -0.7384137491  MEMB      135             0.0000000000
     16936       135  QMPE      H16T           -5.0802439130       50.6354310754        0.1073865521  MEMB      135             0.0000000000
     16937       135  QMPE      C33            -3.4635848239       50.0058512536        9.9958445382  MEMB      135             0.0000000000
     16938       135  QMPE      H3X            -3.4138577998       51.0866194256       10.2484085110  MEMB      135             0.0000000000
     16939       135  QMPE      H3Y            -4.4352724140       49.8164392435        9.4915960285  MEMB      135             0.0000000000
     16940       135  QMPE      C34            -2.3142813318       49.7408955125        8.9428314636  MEMB      135             0.0000000000
     16941       135  QMPE      H4X            -2.3383180446       48.6671534443        8.6585407095  MEMB      135             0.0000000000
     16942       135  QMPE      H4Y            -1.2591035591       49.7773730265        9.2886498593  MEMB      135             0.0000000000
     16943       135  QMPE      C35            -2.6715225693       50.6148180269        7.6304529002  MEMB      135             0.0000000000
     16944       135  QMPE      H5X            -2.3006675067       51.6400937154        7.8439888438  MEMB      135             0.0000000000
     16945       135  QMPE      H5Y            -3.7573727073       50.7594982811        7.4452021028  MEMB      135             0.0000000000
     16946       135  QMPE      C36            -2.1569148163       50.1739844862        6.2723786574  MEMB      135             0.0000000000
     16947       135  QMPE      H6X            -2.5991112318       49.1664545558        6.1185373472  MEMB      135             0.0000000000
     16948       135  QMPE      H6Y            -1.0470643893       50.2061386860        6.2334029677  MEMB      135             0.0000000000
     16949       135  QMPE      C37            -2.6269521373       51.1226529426        5.0575713758  MEMB      135             0.0000000000
     16950       135  QMPE      H7X            -3.5676369345       51.5752720964        5.4377935038  MEMB      135             0.0000000000
     16951       135  QMPE      H7Y            -1.8354577055       51.8991887187        4.9879325020  MEMB      135             0.0000000000
     16952       135  QMPE      C38            -2.7992979830       50.2628577557        3.8221480254  MEMB      135             0.0000000000
     16953       135  QMPE      H8X            -1.9870610684       49.5048634886        3.8160361275  MEMB      135             0.0000000000
     16954       135  QMPE      H8Y            -3.7943993346       49.7802896930        3.9280845820  MEMB      135             0.0000000000
     16955       135  QMPE      C39            -2.7910888559       50.8804949609        2.4974852744  MEMB      135             0.0000000000
     16956       135  QMPE      H9X            -3.1801406582       50.1520815269        1.7542668657  MEMB      135             0.0000000000
     16957       135  QMPE      H9Y            -1.7648391894       51.2114112191        2.2298532134  MEMB      135             0.0000000000
     16958       135  QMPE      C310           -3.6254381916       52.1970702907        2.4478045907  MEMB      135             0.0000000000
     16959       135  QMPE      H10X           -3.2867049208       52.8667292439        3.2670341043  MEMB      135             0.0000000000
     16960       135  QMPE      H10Y           -4.7019576712       52.0907022971        2.7010092945  MEMB      135             0.0000000000
     16961       135  QMPE      C311           -3.6026314109       53.0229235520        1.1228529917  MEMB      135             0.0000000000
     16962       135  QMPE      H11X           -4.1607124987       52.4662754193        0.3399036797  MEMB      135             0.0000000000
     16963       135  QMPE      H11Y           -2.5502556565       53.0482233889        0.7676249860  MEMB      135             0.0000000000
     16964       135  QMPE      C312           -4.1704286584       54.4481006309        1.2232567195  MEMB      135             0.0000000000
     16965       135  QMPE      H12X           -3.3950195193       55.0720979554        1.7169054067  MEMB      135             0.0000000000
     16966       135  QMPE      H12Y           -5.0470424322       54.3665972774        1.9009196153  MEMB      135             0.0000000000
     16967       135  QMPE      C313           -4.6390876668       54.9607007082       -0.1564580882  MEMB      135             0.0000000000
     16968       135  QMPE      H13X           -5.4646129197       54.3344544685       -0.5572631403  MEMB      135             0.0000000000
     16969       135  QMPE      H13Y           -4.9178429467       55.9837640624        0.1751409947  MEMB      135             0.0000000000
     16970       135  QMPE      C314           -3.4884266474       54.9497433300       -1.2438521538  MEMB      135             0.0000000000
     16971       135  QMPE      H14X           -3.1944515336       53.8869887145       -1.3796912548  MEMB      135             0.0000000000
     16972       135  QMPE      H14Y           -2.7007866824       55.5248031627       -0.7116380608  MEMB      135             0.0000000000
     16973       135  QMPE      C315           -3.9112934835       55.5923074372       -2.5315868971  MEMB      135             0.0000000000
     16974       135  QMPE      H15X           -2.9590513796       55.7374134929       -3.0852104514  MEMB      135             0.0000000000
     16975       135  QMPE      H15Y           -4.6641356872       55.0229705465       -3.1175938842  MEMB      135             0.0000000000
     16976       135  QMPE      H15Z           -4.3094033870       56.6086792919       -2.3246626438  MEMB      135             0.0000000000
     16977       136  PMPG      C13            20.3964261921      -47.6018494724       16.9632217128  MEMB      136             0.0000000000
     16978       136  PMPG      H13A           21.1037470701      -47.9418309797       16.1768177641  MEMB      136             0.0000000000
     16979       136  PMPG      H13B           19.4236216614      -48.1256002489       16.8463572557  MEMB      136             0.0000000000
     16980       136  PMPG      OC3            20.2017798182      -46.1834743633       16.8449735599  MEMB      136             0.0000000000
     16981       136  PMPG      HO3            19.2940092738      -46.0151903133       17.1080952543  MEMB      136             0.0000000000
     16982       136  PMPG      C12            21.1712751415      -47.9228717310       18.2709989863  MEMB      136             0.0000000000
     16983       136  PMPG      H12A           21.3355095872      -49.0252130380       18.2964887846  MEMB      136             0.0000000000
     16984       136  PMPG      OC2            20.3842488082      -47.5681474975       19.4088922848  MEMB      136             0.0000000000
     16985       136  PMPG      HO2            21.0116805396      -47.6825548614       20.1558576237  MEMB      136             0.0000000000
     16986       136  PMPG      C11            22.5555238409      -47.3016597768       18.4610323140  MEMB      136             0.0000000000
     16987       136  PMPG      H11A           22.4254123633      -46.2244329650       18.2223390521  MEMB      136             0.0000000000
     16988       136  PMPG      H11B           23.1870934671      -47.8468909856       17.7274359777  MEMB      136             0.0000000000
     16989       136  PMPG      P              24.5123898919      -47.1032811022       20.1027212050  MEMB      136             0.0000000000
     16990       136  PMPG      O13            24.9925426578      -47.9802678398       21.1853066707  MEMB      136             0.0000000000
     16991       136  PMPG      O14            24.5477723924      -45.6414047999       20.3054944274  MEMB      136             0.0000000000
     16992       136  PMPG      O11            25.2713632706      -47.4872523564       18.7029135562  MEMB      136             0.0000000000
     16993       136  PMPG      O12            22.9871889931      -47.5876610754       19.7544452698  MEMB      136             0.0000000000
     16994       136  PMPG      C1             26.6943926408      -47.5509307531       18.8107523499  MEMB      136             0.0000000000
     16995       136  PMPG      HA             26.9349299863      -48.1707836110       19.7008339556  MEMB      136             0.0000000000
     16996       136  PMPG      HB             27.1690824915      -46.5469659483       18.7784239925  MEMB      136             0.0000000000
     16997       136  PMPG      C2             27.2683786827      -48.3074068834       17.6097734584  MEMB      136             0.0000000000
     16998       136  PMPG      HS             28.3787040844      -48.3456492685       17.6037784070  MEMB      136             0.0000000000
     16999       136  PMPG      O21            26.8476516386      -47.6973993503       16.3736617342  MEMB      136             0.0000000000
     17000       136  PMPG      C21            27.1565804423      -46.4835090818       15.9716190392  MEMB      136             0.0000000000
     17001       136  PMPG      O22            27.7482532957      -45.5821863920       16.5503800190  MEMB      136             0.0000000000
     17002       136  PMPG      C22            26.5336720284      -46.3685936677       14.5357403150  MEMB      136             0.0000000000
     17003       136  PMPG      H2R            26.5599642626      -45.3365983387       14.1251122375  MEMB      136             0.0000000000
     17004       136  PMPG      H2S            25.4435478109      -46.5344174896       14.6715815885  MEMB      136             0.0000000000
     17005       136  PMPG      C3             26.8767539489      -49.8440549752       17.4475001494  MEMB      136             0.0000000000
     17006       136  PMPG      HX             26.8566782029      -50.3882230606       18.4159005010  MEMB      136             0.0000000000
     17007       136  PMPG      HY             27.5995686973      -50.2942735122       16.7339433659  MEMB      136             0.0000000000
     17008       136  PMPG      O31            25.5139477851      -50.0383407113       17.0126356956  MEMB      136             0.0000000000
     17009       136  PMPG      C31            25.3543815544      -50.5203995535       15.7678714564  MEMB      136             0.0000000000
     17010       136  PMPG      O32            26.2246381624      -50.6908334595       14.9095577050  MEMB      136             0.0000000000
     17011       136  PMPG      C32            23.7628534965      -50.5439328129       15.5172505896  MEMB      136             0.0000000000
     17012       136  PMPG      H2X            23.3327605218      -49.5201086049       15.5507931175  MEMB      136             0.0000000000
     17013       136  PMPG      H2Y            23.2652047924      -51.1810610403       16.2793099148  MEMB      136             0.0000000000
     17014       136  PMPG      C23            26.9704081134      -47.3507926163       13.4318495992  MEMB      136             0.0000000000
     17015       136  PMPG      H3R            26.7710945670      -48.4027794545       13.7283608398  MEMB      136             0.0000000000
     17016       136  PMPG      H3S            28.0667477157      -47.2567267458       13.2785135879  MEMB      136             0.0000000000
     17017       136  PMPG      C24            26.4553119531      -46.8803570949       12.0552703453  MEMB      136             0.0000000000
     17018       136  PMPG      H4R            27.0713307366      -46.0094946888       11.7447219346  MEMB      136             0.0000000000
     17019       136  PMPG      H4S            25.4171828011      -46.4893689861       12.1164027907  MEMB      136             0.0000000000
     17020       136  PMPG      C25            26.6072463790      -47.9920486588       11.0600885106  MEMB      136             0.0000000000
     17021       136  PMPG      H5R            26.2271346821      -48.9742659581       11.4137629390  MEMB      136             0.0000000000
     17022       136  PMPG      H5S            27.6916138611      -48.1889909943       10.9197971326  MEMB      136             0.0000000000
     17023       136  PMPG      C26            25.9529523425      -47.7239407797        9.6946182844  MEMB      136             0.0000000000
     17024       136  PMPG      H6R            24.8945902278      -47.4363860633        9.8721089767  MEMB      136             0.0000000000
     17025       136  PMPG      H6S            26.0962107882      -48.6795212478        9.1462905476  MEMB      136             0.0000000000
     17026       136  PMPG      C27            26.6504686465      -46.7054281904        8.7856715492  MEMB      136             0.0000000000
     17027       136  PMPG      H7R            26.8534582887      -46.9988636896        7.7335251832  MEMB      136             0.0000000000
     17028       136  PMPG      H7S            27.6206495135      -46.3682570862        9.2092105466  MEMB      136             0.0000000000
     17029       136  PMPG      C28            25.7531855139      -45.4960404234        8.6777560629  MEMB      136             0.0000000000
     17030       136  PMPG      H8R            26.3866607441      -44.7087775409        8.2159694914  MEMB      136             0.0000000000
     17031       136  PMPG      H8S            25.4526557007      -45.1765021505        9.6984906038  MEMB      136             0.0000000000
     17032       136  PMPG      C29            24.4945495293      -45.6560559818        7.9172021858  MEMB      136             0.0000000000
     17033       136  PMPG      H9R            23.7090938206      -46.1513757866        8.5271517640  MEMB      136             0.0000000000
     17034       136  PMPG      C217           24.1653430264      -44.6945357635        6.8278112409  MEMB      136             0.0000000000
     17035       136  PMPG      H17R           23.1193926285      -44.4171923392        6.8720520537  MEMB      136             0.0000000000
     17036       136  PMPG      H17S           25.0003125513      -44.0151666247        6.7087626783  MEMB      136             0.0000000000
     17037       136  PMPG      C210           24.4477523414      -46.1269927971        6.4579990371  MEMB      136             0.0000000000
     17038       136  PMPG      H10R           23.4934571396      -46.5128286713        6.0399409213  MEMB      136             0.0000000000
     17039       136  PMPG      C211           25.7030932518      -46.2276049234        5.5180478943  MEMB      136             0.0000000000
     17040       136  PMPG      H11R           25.4854077749      -45.6060065850        4.6233141237  MEMB      136             0.0000000000
     17041       136  PMPG      H11S           26.6132233137      -45.8759593436        6.0493952422  MEMB      136             0.0000000000
     17042       136  PMPG      C212           25.8715125372      -47.6863808887        5.1235214881  MEMB      136             0.0000000000
     17043       136  PMPG      H12R           25.0399849982      -47.9365499724        4.4304857534  MEMB      136             0.0000000000
     17044       136  PMPG      H12S           25.7580221847      -48.3996129982        5.9677616829  MEMB      136             0.0000000000
     17045       136  PMPG      C213           27.1545179081      -48.0297019109        4.3418802771  MEMB      136             0.0000000000
     17046       136  PMPG      H13R           27.9842996341      -47.8673768455        5.0625982640  MEMB      136             0.0000000000
     17047       136  PMPG      H13S           27.3935452488      -47.2112223635        3.6296454053  MEMB      136             0.0000000000
     17048       136  PMPG      C214           27.1554024959      -49.4183853376        3.6686206485  MEMB      136             0.0000000000
     17049       136  PMPG      H14R           26.3491771600      -49.5702186499        2.9194413405  MEMB      136             0.0000000000
     17050       136  PMPG      H14S           26.9445105675      -50.1276378517        4.4973579058  MEMB      136             0.0000000000
     17051       136  PMPG      C215           28.6117619775      -49.6987993987        3.1769361621  MEMB      136             0.0000000000
     17052       136  PMPG      H15R           29.4296742012      -49.7180696047        3.9285805052  MEMB      136             0.0000000000
     17053       136  PMPG      H15S           28.9413767281      -48.9753346186        2.4008725718  MEMB      136             0.0000000000
     17054       136  PMPG      C216           28.6560649832      -50.9726049277        2.3168731905  MEMB      136             0.0000000000
     17055       136  PMPG      H16R           29.6192645509      -51.2484199380        1.8367740728  MEMB      136             0.0000000000
     17056       136  PMPG      H16S           27.8924300940      -50.9850263845        1.5100103068  MEMB      136             0.0000000000
     17057       136  PMPG      H16T           28.4109832227      -51.8230491196        2.9884381402  MEMB      136             0.0000000000
     17058       136  PMPG      C33            23.5309403782      -51.0470704501       14.1158274440  MEMB      136             0.0000000000
     17059       136  PMPG      H3X            24.0486516273      -52.0264225424       14.0311774140  MEMB      136             0.0000000000
     17060       136  PMPG      H3Y            23.9849838626      -50.3946093496       13.3396445724  MEMB      136             0.0000000000
     17061       136  PMPG      C34            22.0575329647      -51.3144437765       13.9230700697  MEMB      136             0.0000000000
     17062       136  PMPG      H4X            21.6081069597      -51.6542376448       14.8806073194  MEMB      136             0.0000000000
     17063       136  PMPG      H4Y            21.8150705762      -52.0440620866       13.1210788767  MEMB      136             0.0000000000
     17064       136  PMPG      C35            21.2984215706      -50.0469135039       13.4523507434  MEMB      136             0.0000000000
     17065       136  PMPG      H5X            21.3856885190      -49.2104808727       14.1783574994  MEMB      136             0.0000000000
     17066       136  PMPG      H5Y            20.2376651934      -50.3748733679       13.4128656914  MEMB      136             0.0000000000
     17067       136  PMPG      C36            21.6698112747      -49.5711364861       11.9507049006  MEMB      136             0.0000000000
     17068       136  PMPG      H6X            22.7479001789      -49.3239505223       11.8460896595  MEMB      136             0.0000000000
     17069       136  PMPG      H6Y            21.0886994566      -48.6367819521       11.7970440948  MEMB      136             0.0000000000
     17070       136  PMPG      C37            21.3841451021      -50.6107813740       10.8409318980  MEMB      136             0.0000000000
     17071       136  PMPG      H7X            20.2890404623      -50.7571356125       10.9577519406  MEMB      136             0.0000000000
     17072       136  PMPG      H7Y            22.0827917406      -51.4622633256       10.9865079349  MEMB      136             0.0000000000
     17073       136  PMPG      C38            21.5894702547      -50.1769594351        9.3922144500  MEMB      136             0.0000000000
     17074       136  PMPG      H8X            21.3047718566      -51.0440788845        8.7586744860  MEMB      136             0.0000000000
     17075       136  PMPG      H8Y            22.6482781203      -49.8928787408        9.2118115812  MEMB      136             0.0000000000
     17076       136  PMPG      C39            20.6296450477      -49.0696276299        8.8346389488  MEMB      136             0.0000000000
     17077       136  PMPG      H9X            20.5077268332      -48.3195972132        9.6451394363  MEMB      136             0.0000000000
     17078       136  PMPG      H9Y            19.5929332874      -49.4661595453        8.7865546050  MEMB      136             0.0000000000
     17079       136  PMPG      C310           20.9117640530      -48.3783095540        7.5639816629  MEMB      136             0.0000000000
     17080       136  PMPG      H10X           21.9531067079      -47.9960675220        7.6257655587  MEMB      136             0.0000000000
     17081       136  PMPG      H10Y           20.3086010251      -47.4968022132        7.2582688437  MEMB      136             0.0000000000
     17082       136  PMPG      C311           21.0276554361      -49.3298491570        6.3578052319  MEMB      136             0.0000000000
     17083       136  PMPG      H11X           21.5519871499      -50.2574319877        6.6724278311  MEMB      136             0.0000000000
     17084       136  PMPG      H11Y           21.6329896989      -48.8075668290        5.5863698960  MEMB      136             0.0000000000
     17085       136  PMPG      C312           19.7075964588      -49.7121144591        5.6642437909  MEMB      136             0.0000000000
     17086       136  PMPG      H12X           19.1874258941      -48.8321040720        5.2291284020  MEMB      136             0.0000000000
     17087       136  PMPG      H12Y           19.0809246370      -50.0827781478        6.5034166252  MEMB      136             0.0000000000
     17088       136  PMPG      C313           19.8656323991      -50.7721179711        4.6027953659  MEMB      136             0.0000000000
     17089       136  PMPG      H13X           18.8363098226      -51.1774938647        4.5003941200  MEMB      136             0.0000000000
     17090       136  PMPG      H13Y           20.3583598414      -51.6763367482        5.0198430357  MEMB      136             0.0000000000
     17091       136  PMPG      C314           20.5971325712      -50.3696960410        3.3598130876  MEMB      136             0.0000000000
     17092       136  PMPG      H14X           21.5314414191      -49.7861790865        3.5043687781  MEMB      136             0.0000000000
     17093       136  PMPG      H14Y           19.9422563973      -49.7667183361        2.6950762455  MEMB      136             0.0000000000
     17094       136  PMPG      C315           21.0112662839      -51.5736034489        2.4156574212  MEMB      136             0.0000000000
     17095       136  PMPG      H15X           21.5552608392      -51.1474958212        1.5457000338  MEMB      136             0.0000000000
     17096       136  PMPG      H15Y           20.1456031354      -52.1611539360        2.0418480049  MEMB      136             0.0000000000
     17097       136  PMPG      C316           22.1077161490      -52.5020015907        3.0116219542  MEMB      136             0.0000000000
     17098       136  PMPG      H16X           22.6268543604      -53.1851353401        2.3058272464  MEMB      136             0.0000000000
     17099       136  PMPG      H16Y           21.5900760039      -53.1792076431        3.7241961079  MEMB      136             0.0000000000
     17100       136  PMPG      H16Z           22.8589698504      -51.8275141729        3.4753088281  MEMB      136             0.0000000000
     17101       137  POPE      N              27.5623171419       42.2811435392       21.1046731474  MEMB      137             0.0000000000
     17102       137  POPE      HN1            28.1966966621       42.2941031335       20.2806619273  MEMB      137             0.0000000000
     17103       137  POPE      HN2            28.0207108590       42.7717348064       21.8988994179  MEMB      137             0.0000000000
     17104       137  POPE      HN3            27.2117399304       41.3642049629       21.4480670329  MEMB      137             0.0000000000
     17105       137  POPE      C12            26.3469683838       43.1187468966       20.4963264878  MEMB      137             0.0000000000
     17106       137  POPE      H12A           25.5011833460       43.0490379184       21.2133404932  MEMB      137             0.0000000000
     17107       137  POPE      H12B           26.0446259332       42.5764885763       19.5749872234  MEMB      137             0.0000000000
     17108       137  POPE      C11            26.7008767598       44.5350274436       20.0137898754  MEMB      137             0.0000000000
     17109       137  POPE      H11A           27.0794264295       45.0713077737       20.9101294676  MEMB      137             0.0000000000
     17110       137  POPE      H11B           25.8631364452       45.0740851594       19.5219270114  MEMB      137             0.0000000000
     17111       137  POPE      P              27.9684104880       45.5523509500       18.0563840872  MEMB      137             0.0000000000
     17112       137  POPE      O13            29.3404562225       45.5635836012       17.5345150498  MEMB      137             0.0000000000
     17113       137  POPE      O14            27.5202562038       46.8302560370       18.6694908849  MEMB      137             0.0000000000
     17114       137  POPE      O11            26.9462724472       45.0300092363       16.9467791906  MEMB      137             0.0000000000
     17115       137  POPE      O12            27.8201063492       44.4255342974       19.1780413033  MEMB      137             0.0000000000
     17116       137  POPE      C1             26.8974378897       43.5871775825       16.5948488612  MEMB      137             0.0000000000
     17117       137  POPE      HA             25.9782125504       43.0949852195       16.9783749247  MEMB      137             0.0000000000
     17118       137  POPE      HB             27.5760674767       43.0001134149       17.2499354781  MEMB      137             0.0000000000
     17119       137  POPE      C2             27.2263266674       43.3063492897       15.1318964425  MEMB      137             0.0000000000
     17120       137  POPE      HS             27.2077825306       42.2091425832       14.9583613667  MEMB      137             0.0000000000
     17121       137  POPE      O21            28.5258190160       43.7984228206       14.8903278695  MEMB      137             0.0000000000
     17122       137  POPE      C21            29.3539230549       43.1394946102       14.1574723183  MEMB      137             0.0000000000
     17123       137  POPE      O22            29.2695085301       41.9748166381       13.7538941781  MEMB      137             0.0000000000
     17124       137  POPE      C22            30.5293334761       44.1281735407       13.8817152152  MEMB      137             0.0000000000
     17125       137  POPE      H2R            31.3698123344       43.4642836169       13.5864755851  MEMB      137             0.0000000000
     17126       137  POPE      H2S            30.6104079963       44.7808189236       14.7771490030  MEMB      137             0.0000000000
     17127       137  POPE      C3             26.1571062637       43.9309094739       14.1079188335  MEMB      137             0.0000000000
     17128       137  POPE      HX             25.1524040128       43.5665238716       14.4114276650  MEMB      137             0.0000000000
     17129       137  POPE      HY             26.4191105563       43.4493763183       13.1415855130  MEMB      137             0.0000000000
     17130       137  POPE      O31            26.2770944816       45.4124423638       13.9844410389  MEMB      137             0.0000000000
     17131       137  POPE      C31            25.3758472346       45.9553332374       13.1275633630  MEMB      137             0.0000000000
     17132       137  POPE      O32            24.3368007152       45.4263619776       12.7786589644  MEMB      137             0.0000000000
     17133       137  POPE      C32            25.7809362930       47.4178568664       12.7218812680  MEMB      137             0.0000000000
     17134       137  POPE      H2X            26.4186911509       47.8039050663       13.5456266568  MEMB      137             0.0000000000
     17135       137  POPE      H2Y            24.8919126772       48.0729766991       12.6003254732  MEMB      137             0.0000000000
     17136       137  POPE      C23            30.2393043466       44.9492055103       12.6043779178  MEMB      137             0.0000000000
     17137       137  POPE      H3R            31.0763964680       45.6419555756       12.3726561533  MEMB      137             0.0000000000
     17138       137  POPE      H3S            29.3047610628       45.5443764232       12.6863630172  MEMB      137             0.0000000000
     17139       137  POPE      C24            30.1503939747       44.0299542083       11.3730352849  MEMB      137             0.0000000000
     17140       137  POPE      H4R            29.6600455271       43.1036730168       11.7416581902  MEMB      137             0.0000000000
     17141       137  POPE      H4S            31.1835540400       43.7163427233       11.1112173779  MEMB      137             0.0000000000
     17142       137  POPE      C25            29.3777536467       44.5906994681       10.1670601517  MEMB      137             0.0000000000
     17143       137  POPE      H5R            30.0808045561       45.2888470297        9.6644364215  MEMB      137             0.0000000000
     17144       137  POPE      H5S            28.4683631787       45.1646769332       10.4461287912  MEMB      137             0.0000000000
     17145       137  POPE      C26            28.8882954585       43.5890275917        9.1367149262  MEMB      137             0.0000000000
     17146       137  POPE      H6R            29.1345751397       42.5571950364        9.4668491695  MEMB      137             0.0000000000
     17147       137  POPE      H6S            29.3481505306       43.7973699939        8.1470444436  MEMB      137             0.0000000000
     17148       137  POPE      C27            27.3203190684       43.6105436941        9.0453176160  MEMB      137             0.0000000000
     17149       137  POPE      H7R            27.1997653038       44.7105353985        8.9462918030  MEMB      137             0.0000000000
     17150       137  POPE      H7S            26.9039117683       43.5284118996       10.0720499748  MEMB      137             0.0000000000
     17151       137  POPE      C28            26.7818374503       42.6846004674        7.9668049096  MEMB      137             0.0000000000
     17152       137  POPE      H8R            26.4417396080       41.7143797332        8.3879057052  MEMB      137             0.0000000000
     17153       137  POPE      H8S            27.6381316068       42.2785562335        7.3869685519  MEMB      137             0.0000000000
     17154       137  POPE      C29            25.8637683107       43.5436819330        7.0928164794  MEMB      137             0.0000000000
     17155       137  POPE      H91            25.3961248717       44.3864885016        7.6228974044  MEMB      137             0.0000000000
     17156       137  POPE      C210           25.5802126459       43.3202835781        5.8345103744  MEMB      137             0.0000000000
     17157       137  POPE      H101           25.0778225031       44.1322121956        5.2882718496  MEMB      137             0.0000000000
     17158       137  POPE      C211           26.0769076759       42.2177966641        4.9669257235  MEMB      137             0.0000000000
     17159       137  POPE      H11R           25.1645188797       41.7044706261        4.5949526147  MEMB      137             0.0000000000
     17160       137  POPE      H11S           26.8777411922       41.5692991700        5.3821815440  MEMB      137             0.0000000000
     17161       137  POPE      C212           26.7465501027       42.9097084677        3.7860575294  MEMB      137             0.0000000000
     17162       137  POPE      H12R           26.2276024998       43.7308031654        3.2467828611  MEMB      137             0.0000000000
     17163       137  POPE      H12S           26.8735757257       42.1673594447        2.9692942208  MEMB      137             0.0000000000
     17164       137  POPE      C213           28.2098785721       43.3074914117        4.1144765087  MEMB      137             0.0000000000
     17165       137  POPE      H13R           28.7755431883       42.4103373346        4.4453223597  MEMB      137             0.0000000000
     17166       137  POPE      H13S           28.1767999624       44.1190043237        4.8725484860  MEMB      137             0.0000000000
     17167       137  POPE      C214           28.9157804772       43.7547488367        2.8362434587  MEMB      137             0.0000000000
     17168       137  POPE      H14R           28.4689757828       43.1931858593        1.9881073956  MEMB      137             0.0000000000
     17169       137  POPE      H14S           29.9488117038       43.3459588212        2.8438811248  MEMB      137             0.0000000000
     17170       137  POPE      C215           29.1472554647       45.2562025632        2.7144665979  MEMB      137             0.0000000000
     17171       137  POPE      H15R           29.8728317208       45.4295947947        1.8911836698  MEMB      137             0.0000000000
     17172       137  POPE      H15S           29.6617421448       45.7209141719        3.5826063849  MEMB      137             0.0000000000
     17173       137  POPE      C216           27.9245031560       46.1265294928        2.5120894211  MEMB      137             0.0000000000
     17174       137  POPE      H16R           28.2427070784       47.1909494466        2.5032887947  MEMB      137             0.0000000000
     17175       137  POPE      H16S           27.2124842761       45.9726197566        3.3509339063  MEMB      137             0.0000000000
     17176       137  POPE      C217           27.1812885941       45.8879297544        1.1636783108  MEMB      137             0.0000000000
     17177       137  POPE      H17R           26.7594820000       44.8612584940        1.2121200069  MEMB      137             0.0000000000
     17178       137  POPE      H17S           28.0333808389       45.7645322593        0.4615149213  MEMB      137             0.0000000000
     17179       137  POPE      C218           26.2986266206       47.0568087327        0.7778108021  MEMB      137             0.0000000000
     17180       137  POPE      H18R           26.7114956363       48.0512811702        0.5041591379  MEMB      137             0.0000000000
     17181       137  POPE      H18S           25.3699618148       47.1176933858        1.3846027642  MEMB      137             0.0000000000
     17182       137  POPE      H18T           26.0807106658       46.6590241398       -0.2363885693  MEMB      137             0.0000000000
     17183       137  POPE      C33            26.7084196241       47.3145182455       11.4858614346  MEMB      137             0.0000000000
     17184       137  POPE      H3X            26.1243166440       46.8587719691       10.6579486710  MEMB      137             0.0000000000
     17185       137  POPE      H3Y            27.5428083206       46.5967599401       11.6373196812  MEMB      137             0.0000000000
     17186       137  POPE      C34            27.3079015361       48.6883122773       11.2534813354  MEMB      137             0.0000000000
     17187       137  POPE      H4X            27.7096132717       49.1281019455       12.1913161623  MEMB      137             0.0000000000
     17188       137  POPE      H4Y            26.4681765142       49.3030414129       10.8645199414  MEMB      137             0.0000000000
     17189       137  POPE      C35            28.5560462575       48.6890852360       10.3047864249  MEMB      137             0.0000000000
     17190       137  POPE      H5X            29.3432276208       48.0710878827       10.7872230848  MEMB      137             0.0000000000
     17191       137  POPE      H5Y            28.8874721950       49.7466536513       10.2271532114  MEMB      137             0.0000000000
     17192       137  POPE      C36            28.1816736772       48.3088058481        8.9207060455  MEMB      137             0.0000000000
     17193       137  POPE      H6X            27.1879224987       48.7231963912        8.6467347815  MEMB      137             0.0000000000
     17194       137  POPE      H6Y            28.2373411677       47.1996182540        8.9511164752  MEMB      137             0.0000000000
     17195       137  POPE      C37            29.1194049294       48.7347641502        7.8679550738  MEMB      137             0.0000000000
     17196       137  POPE      H7X            30.1450085236       48.4611591832        8.1959774601  MEMB      137             0.0000000000
     17197       137  POPE      H7Y            29.0031392875       49.8260568171        7.6950875954  MEMB      137             0.0000000000
     17198       137  POPE      C38            28.7541673396       48.0974321566        6.5056490516  MEMB      137             0.0000000000
     17199       137  POPE      H8X            27.6867875707       48.2856786993        6.2615497152  MEMB      137             0.0000000000
     17200       137  POPE      H8Y            28.9251713158       47.0004280707        6.5463998193  MEMB      137             0.0000000000
     17201       137  POPE      C39            29.4899182445       48.6632640038        5.2897717649  MEMB      137             0.0000000000
     17202       137  POPE      H9X            29.0605423746       49.6417535031        4.9856082374  MEMB      137             0.0000000000
     17203       137  POPE      H9Y            29.3569955844       48.0041700865        4.4053234426  MEMB      137             0.0000000000
     17204       137  POPE      C310           30.9994115670       48.9550738140        5.4385053575  MEMB      137             0.0000000000
     17205       137  POPE      H10X           31.5420399500       48.0055077072        5.6339526665  MEMB      137             0.0000000000
     17206       137  POPE      H10Y           31.2739198233       49.6363845111        6.2720411615  MEMB      137             0.0000000000
     17207       137  POPE      C311           31.5876745247       49.6643254996        4.1704830367  MEMB      137             0.0000000000
     17208       137  POPE      H11X           32.5857823388       50.0858450548        4.4162929519  MEMB      137             0.0000000000
     17209       137  POPE      H11Y           30.9564381964       50.5580066217        3.9776231245  MEMB      137             0.0000000000
     17210       137  POPE      C312           31.7554755772       48.8728918508        2.8942205164  MEMB      137             0.0000000000
     17211       137  POPE      H12X           32.1399581294       49.5942503854        2.1417990306  MEMB      137             0.0000000000
     17212       137  POPE      H12Y           30.8036651145       48.6114176224        2.3843088918  MEMB      137             0.0000000000
     17213       137  POPE      C313           32.7184593902       47.7198857797        2.9095716422  MEMB      137             0.0000000000
     17214       137  POPE      H13X           32.3624999438       47.0077873201        3.6845091644  MEMB      137             0.0000000000
     17215       137  POPE      H13Y           33.7697819873       47.9396972230        3.1936926275  MEMB      137             0.0000000000
     17216       137  POPE      C314           32.6633346471       47.1152184784        1.4914251386  MEMB      137             0.0000000000
     17217       137  POPE      H14X           33.3406548073       47.7335226001        0.8643221737  MEMB      137             0.0000000000
     17218       137  POPE      H14Y           31.6496104328       47.1276811466        1.0369712076  MEMB      137             0.0000000000
     17219       137  POPE      C315           33.2580669579       45.7294057710        1.2614656276  MEMB      137             0.0000000000
     17220       137  POPE      H15X           32.4389795291       45.0625576968        1.6060387231  MEMB      137             0.0000000000
     17221       137  POPE      H15Y           34.2160123158       45.6565149227        1.8194511316  MEMB      137             0.0000000000
     17222       137  POPE      C316           33.6345771540       45.4826428117       -0.2188157261  MEMB      137             0.0000000000
     17223       137  POPE      H16X           34.5650464242       46.0757624399       -0.3482639340  MEMB      137             0.0000000000
     17224       137  POPE      H16Y           32.8848046621       45.8765264093       -0.9378560356  MEMB      137             0.0000000000
     17225       137  POPE      H16Z           33.8567777763       44.4116619280       -0.4136173491  MEMB      137             0.0000000000
     17226       138  PYPG      C13           -35.3553137859       39.4896236757       20.9595945121  MEMB      138             0.0000000000
     17227       138  PYPG      H13A          -34.2788290267       39.4903381484       20.6848198693  MEMB      138             0.0000000000
     17228       138  PYPG      H13B          -35.4210807074       40.1697722917       21.8356045498  MEMB      138             0.0000000000
     17229       138  PYPG      OC3           -35.6868300097       38.2196682771       21.5687135484  MEMB      138             0.0000000000
     17230       138  PYPG      HO3           -34.8986312213       37.7068940425       21.7621177124  MEMB      138             0.0000000000
     17231       138  PYPG      C12           -36.1650958288       39.9316858708       19.7322200569  MEMB      138             0.0000000000
     17232       138  PYPG      H12A          -35.7434989056       40.9054862892       19.3905362563  MEMB      138             0.0000000000
     17233       138  PYPG      OC2           -37.5301609680       40.1452000309       20.0942280117  MEMB      138             0.0000000000
     17234       138  PYPG      HO2           -37.9693128809       40.2859208450       19.2270140302  MEMB      138             0.0000000000
     17235       138  PYPG      C11           -36.0486171870       38.8877629926       18.5431548244  MEMB      138             0.0000000000
     17236       138  PYPG      H11A          -35.0044532668       38.5619635503       18.3484822023  MEMB      138             0.0000000000
     17237       138  PYPG      H11B          -36.3926919893       39.3301965835       17.5838915520  MEMB      138             0.0000000000
     17238       138  PYPG      P             -37.3378746713       36.8175051859       17.8164089799  MEMB      138             0.0000000000
     17239       138  PYPG      O13           -38.5649677333       36.1402141046       18.2340251220  MEMB      138             0.0000000000
     17240       138  PYPG      O14           -36.2139398272       35.9339533219       17.5076779127  MEMB      138             0.0000000000
     17241       138  PYPG      O11           -37.6110627154       37.8617845967       16.6258421336  MEMB      138             0.0000000000
     17242       138  PYPG      O12           -36.7920872768       37.8082239464       18.9181349014  MEMB      138             0.0000000000
     17243       138  PYPG      C1            -38.6585796663       38.8439171436       16.7060004982  MEMB      138             0.0000000000
     17244       138  PYPG      HA            -38.1719758011       39.6421314869       17.3063267704  MEMB      138             0.0000000000
     17245       138  PYPG      HB            -39.6453416727       38.4822681714       17.0663221878  MEMB      138             0.0000000000
     17246       138  PYPG      C2            -38.9810699053       39.4912898263       15.2350918240  MEMB      138             0.0000000000
     17247       138  PYPG      HS            -39.9651487970       39.9952093456       15.3445192999  MEMB      138             0.0000000000
     17248       138  PYPG      O21           -38.9140300021       38.3667404623       14.2242594892  MEMB      138             0.0000000000
     17249       138  PYPG      C21           -39.6729785943       38.4011254590       13.0883696654  MEMB      138             0.0000000000
     17250       138  PYPG      O22           -40.5083665353       39.1924417106       12.8571293940  MEMB      138             0.0000000000
     17251       138  PYPG      C22           -39.3434783888       37.1576333755       12.1580405986  MEMB      138             0.0000000000
     17252       138  PYPG      H2R           -40.3420543620       36.9841008751       11.7030091662  MEMB      138             0.0000000000
     17253       138  PYPG      H2S           -39.0853480996       36.2584224682       12.7572981489  MEMB      138             0.0000000000
     17254       138  PYPG      C3            -37.9936807268       40.5468248569       14.6943708723  MEMB      138             0.0000000000
     17255       138  PYPG      HX            -38.0223442055       41.3480998549       15.4634340529  MEMB      138             0.0000000000
     17256       138  PYPG      HY            -38.3969394173       40.9122022936       13.7257621662  MEMB      138             0.0000000000
     17257       138  PYPG      O31           -36.6756115799       40.0898452242       14.6203493446  MEMB      138             0.0000000000
     17258       138  PYPG      C31           -36.1020149680       39.8488048823       13.4194429723  MEMB      138             0.0000000000
     17259       138  PYPG      O32           -36.5035020252       40.3611798836       12.3826971838  MEMB      138             0.0000000000
     17260       138  PYPG      C32           -34.8504752537       38.9616686438       13.6727998756  MEMB      138             0.0000000000
     17261       138  PYPG      H2X           -34.0283557860       39.6961885725       13.5352448439  MEMB      138             0.0000000000
     17262       138  PYPG      H2Y           -34.7113902039       38.5606318865       14.6995157737  MEMB      138             0.0000000000
     17263       138  PYPG      C23           -38.3109487781       37.5283725979       11.0219411830  MEMB      138             0.0000000000
     17264       138  PYPG      H3R           -38.3424004593       36.6264299503       10.3739970077  MEMB      138             0.0000000000
     17265       138  PYPG      H3S           -37.3067630310       37.5675375736       11.4956479334  MEMB      138             0.0000000000
     17266       138  PYPG      C24           -38.6399083431       38.7661608778       10.1508840302  MEMB      138             0.0000000000
     17267       138  PYPG      H4R           -38.3577782525       39.7324329230       10.6210344010  MEMB      138             0.0000000000
     17268       138  PYPG      H4S           -39.7319727942       38.7997737086        9.9494229388  MEMB      138             0.0000000000
     17269       138  PYPG      C25           -37.7461770799       38.8560370326        8.8611292891  MEMB      138             0.0000000000
     17270       138  PYPG      H5R           -36.7279555792       39.1451989354        9.1986665321  MEMB      138             0.0000000000
     17271       138  PYPG      H5S           -38.1600138279       39.7272817504        8.3097734848  MEMB      138             0.0000000000
     17272       138  PYPG      C26           -37.7415813430       37.6518766758        7.9853248438  MEMB      138             0.0000000000
     17273       138  PYPG      H6R           -37.2300478820       36.7616696085        8.4098076304  MEMB      138             0.0000000000
     17274       138  PYPG      H6S           -37.1336706936       37.8246393234        7.0715865956  MEMB      138             0.0000000000
     17275       138  PYPG      C27           -39.1976414719       37.0825167301        7.6715638252  MEMB      138             0.0000000000
     17276       138  PYPG      H7R           -39.7579865327       36.9663642263        8.6238468146  MEMB      138             0.0000000000
     17277       138  PYPG      H7S           -39.0254124350       36.0874666370        7.2083856757  MEMB      138             0.0000000000
     17278       138  PYPG      C28           -40.0661399311       38.0692638802        6.8659310964  MEMB      138             0.0000000000
     17279       138  PYPG      H8R           -40.3669871405       38.8512675704        7.5955086711  MEMB      138             0.0000000000
     17280       138  PYPG      H8S           -40.9965329695       37.4887804218        6.6878066254  MEMB      138             0.0000000000
     17281       138  PYPG      C29           -39.5274967983       38.7456491181        5.6757195725  MEMB      138             0.0000000000
     17282       138  PYPG      H9R           -38.6515200943       39.3365766353        5.9814462616  MEMB      138             0.0000000000
     17283       138  PYPG      C210          -40.0391072020       38.8637781677        4.3951657077  MEMB      138             0.0000000000
     17284       138  PYPG      H10R          -39.3242362593       39.4694484625        3.8188645417  MEMB      138             0.0000000000
     17285       138  PYPG      C211          -41.3809783432       38.3240105362        3.9242814368  MEMB      138             0.0000000000
     17286       138  PYPG      H11R          -41.9036371498       39.2268749804        3.5422026525  MEMB      138             0.0000000000
     17287       138  PYPG      H11S          -41.9773598855       37.9880787025        4.7993816162  MEMB      138             0.0000000000
     17288       138  PYPG      C212          -41.5095252867       37.1478793491        2.9578087606  MEMB      138             0.0000000000
     17289       138  PYPG      H12R          -40.9883397793       37.4543836554        2.0257452515  MEMB      138             0.0000000000
     17290       138  PYPG      H12S          -42.5392918885       36.8014046793        2.7257379597  MEMB      138             0.0000000000
     17291       138  PYPG      C213          -40.6913861580       35.9027558585        3.3309310708  MEMB      138             0.0000000000
     17292       138  PYPG      H13R          -41.0948341525       35.4814793799        4.2764872507  MEMB      138             0.0000000000
     17293       138  PYPG      H13S          -39.6716191236       36.2860671849        3.5488047518  MEMB      138             0.0000000000
     17294       138  PYPG      C214          -40.8275983523       34.8421743952        2.1958815067  MEMB      138             0.0000000000
     17295       138  PYPG      H14R          -41.9212975854       34.6483141335        2.2195694000  MEMB      138             0.0000000000
     17296       138  PYPG      H14S          -40.6404522538       35.3208583739        1.2109137659  MEMB      138             0.0000000000
     17297       138  PYPG      C215          -39.9868162401       33.6439715037        2.4022750314  MEMB      138             0.0000000000
     17298       138  PYPG      H15R          -40.3354442910       33.0526835825        3.2758636232  MEMB      138             0.0000000000
     17299       138  PYPG      H15S          -38.9010066297       33.8758215910        2.4420706613  MEMB      138             0.0000000000
     17300       138  PYPG      C216          -40.0770590877       32.7128766617        1.1966358390  MEMB      138             0.0000000000
     17301       138  PYPG      H16R          -40.0912238201       33.4127926325        0.3339424023  MEMB      138             0.0000000000
     17302       138  PYPG      H16S          -41.0130552649       32.1271108464        1.3195621699  MEMB      138             0.0000000000
     17303       138  PYPG      H16T          -39.2277345671       32.0043574359        1.3013710650  MEMB      138             0.0000000000
     17304       138  PYPG      C33           -34.9464704199       37.8328511482       12.6584003461  MEMB      138             0.0000000000
     17305       138  PYPG      H3X           -35.1046124214       38.2346863936       11.6347594560  MEMB      138             0.0000000000
     17306       138  PYPG      H3Y           -35.8265851651       37.1838949905       12.8548052879  MEMB      138             0.0000000000
     17307       138  PYPG      C34           -33.6479838063       36.9208325992       12.8360127290  MEMB      138             0.0000000000
     17308       138  PYPG      H4X           -33.9672741967       36.0043069080       13.3767118161  MEMB      138             0.0000000000
     17309       138  PYPG      H4Y           -33.0130561219       37.4545527840       13.5751548479  MEMB      138             0.0000000000
     17310       138  PYPG      C35           -32.7921349170       36.5161757170       11.6622847562  MEMB      138             0.0000000000
     17311       138  PYPG      H5X           -32.1437818806       35.6998466500       12.0464288047  MEMB      138             0.0000000000
     17312       138  PYPG      H5Y           -32.0575868879       37.2500205807       11.2670230428  MEMB      138             0.0000000000
     17313       138  PYPG      C36           -33.5970816538       36.1135553347       10.4374665575  MEMB      138             0.0000000000
     17314       138  PYPG      H6X           -34.2507558920       36.9858563547       10.2227060334  MEMB      138             0.0000000000
     17315       138  PYPG      H6Y           -34.2108422429       35.1933288726       10.5413999316  MEMB      138             0.0000000000
     17316       138  PYPG      C37           -32.8155485680       35.8623838749        9.1584152136  MEMB      138             0.0000000000
     17317       138  PYPG      H7X           -32.0805787430       36.6906595223        9.0684159820  MEMB      138             0.0000000000
     17318       138  PYPG      H7Y           -32.0878779485       35.0236988985        9.1961523823  MEMB      138             0.0000000000
     17319       138  PYPG      C38           -33.5960840349       35.8116726967        7.8232667430  MEMB      138             0.0000000000
     17320       138  PYPG      H8X           -32.9327295056       36.2986207842        7.0768329191  MEMB      138             0.0000000000
     17321       138  PYPG      H8Y           -34.4397469615       36.5236287247        7.9484581221  MEMB      138             0.0000000000
     17322       138  PYPG      C39           -34.0690203498       34.4784876133        7.2899188502  MEMB      138             0.0000000000
     17323       138  PYPG      H9X           -34.4266429460       33.8734943709        8.1503898515  MEMB      138             0.0000000000
     17324       138  PYPG      H9Y           -33.3128603730       34.0085761781        6.6252944612  MEMB      138             0.0000000000
     17325       138  PYPG      C310          -35.3646905659       34.6468308870        6.5046520424  MEMB      138             0.0000000000
     17326       138  PYPG      H10X          -35.9898753661       35.3274563010        7.1212672530  MEMB      138             0.0000000000
     17327       138  PYPG      H10Y          -35.8298608979       33.6381691471        6.4814398936  MEMB      138             0.0000000000
     17328       138  PYPG      C311          -35.1693503195       35.2438118749        5.1657374330  MEMB      138             0.0000000000
     17329       138  PYPG      H11X          -34.6824921014       34.5224768346        4.4751109029  MEMB      138             0.0000000000
     17330       138  PYPG      H11Y          -34.5498799929       36.1532048800        5.0121736174  MEMB      138             0.0000000000
     17331       138  PYPG      C312          -36.4800151905       35.6984545056        4.4565762269  MEMB      138             0.0000000000
     17332       138  PYPG      H12X          -37.1224007701       34.8027370271        4.3174657095  MEMB      138             0.0000000000
     17333       138  PYPG      H12Y          -36.9842235505       36.3549455266        5.1975986200  MEMB      138             0.0000000000
     17334       138  PYPG      C313          -36.0988154152       36.5985599613        3.3201275228  MEMB      138             0.0000000000
     17335       138  PYPG      H13X          -35.5829959898       37.5050875944        3.7028272132  MEMB      138             0.0000000000
     17336       138  PYPG      H13Y          -35.3863003390       36.1763648090        2.5795914803  MEMB      138             0.0000000000
     17337       138  PYPG      C314          -37.4087126501       36.9916838440        2.5603025951  MEMB      138             0.0000000000
     17338       138  PYPG      H14X          -37.9000630128       36.0153388629        2.3611890750  MEMB      138             0.0000000000
     17339       138  PYPG      H14Y          -38.0887657109       37.4394908424        3.3161571585  MEMB      138             0.0000000000
     17340       138  PYPG      C315          -37.3364826303       37.9040167875        1.3604224796  MEMB      138             0.0000000000
     17341       138  PYPG      H15X          -38.3871782123       38.1633497787        1.1092132866  MEMB      138             0.0000000000
     17342       138  PYPG      H15Y          -36.8988710337       38.8915091332        1.6205678925  MEMB      138             0.0000000000
     17343       138  PYPG      C316          -36.6948178213       37.2308700298        0.1398419386  MEMB      138             0.0000000000
     17344       138  PYPG      H16X          -37.3727529170       36.5018847869       -0.3534207248  MEMB      138             0.0000000000
     17345       138  PYPG      H16Y          -35.6479839567       36.9831797848        0.4175266618  MEMB      138             0.0000000000
     17346       138  PYPG      H16Z          -36.6192722069       37.8954563266       -0.7472550692  MEMB      138             0.0000000000
     17347       139  QMPE      N             -52.5973753234      -14.5896329865       21.3832419051  MEMB      139             0.0000000000
     17348       139  QMPE      HN1           -52.4890430402      -13.7504721736       21.9879510399  MEMB      139             0.0000000000
     17349       139  QMPE      HN2           -53.5836739209      -14.9187127272       21.4060799826  MEMB      139             0.0000000000
     17350       139  QMPE      HN3           -51.9025784682      -15.3467160702       21.5434997210  MEMB      139             0.0000000000
     17351       139  QMPE      C12           -52.4719762748      -14.2877375910       19.9157149904  MEMB      139             0.0000000000
     17352       139  QMPE      H12A          -51.5264062550      -13.7080471152       19.9803477323  MEMB      139             0.0000000000
     17353       139  QMPE      H12B          -53.3843123836      -13.7549622384       19.5720376945  MEMB      139             0.0000000000
     17354       139  QMPE      C11           -52.2083362657      -15.5834961208       19.1267321050  MEMB      139             0.0000000000
     17355       139  QMPE      H11A          -52.4268728788      -15.3752571498       18.0575270958  MEMB      139             0.0000000000
     17356       139  QMPE      H11B          -52.8740351063      -16.4128543528       19.4481832262  MEMB      139             0.0000000000
     17357       139  QMPE      P             -49.6972978081      -15.4519318165       18.3451245893  MEMB      139             0.0000000000
     17358       139  QMPE      O13           -48.3877264821      -16.1110675017       18.6221872420  MEMB      139             0.0000000000
     17359       139  QMPE      O14           -49.7062763286      -13.9663976632       18.5086371642  MEMB      139             0.0000000000
     17360       139  QMPE      O11           -50.2241805409      -15.7910382430       16.8685702582  MEMB      139             0.0000000000
     17361       139  QMPE      O12           -50.8622798089      -15.9241700769       19.2297917445  MEMB      139             0.0000000000
     17362       139  QMPE      C1            -50.6208296671      -17.1128440751       16.4945079565  MEMB      139             0.0000000000
     17363       139  QMPE      HA            -51.6776488312      -17.0143946644       16.1662369485  MEMB      139             0.0000000000
     17364       139  QMPE      HB            -50.5860187830      -17.7133561130       17.4285818862  MEMB      139             0.0000000000
     17365       139  QMPE      C2            -49.6658154725      -17.7382456333       15.4564865957  MEMB      139             0.0000000000
     17366       139  QMPE      HS            -48.7087250524      -17.7262646398       16.0205390783  MEMB      139             0.0000000000
     17367       139  QMPE      O21           -49.4847580319      -16.8378111097       14.3235933875  MEMB      139             0.0000000000
     17368       139  QMPE      C21           -48.3143671233      -16.9817037626       13.6827550026  MEMB      139             0.0000000000
     17369       139  QMPE      O22           -47.4727901847      -17.7596286836       14.0330046758  MEMB      139             0.0000000000
     17370       139  QMPE      C22           -48.1464729795      -16.2128825336       12.4610041450  MEMB      139             0.0000000000
     17371       139  QMPE      H2R           -48.9405665360      -15.4370997332       12.5045647290  MEMB      139             0.0000000000
     17372       139  QMPE      H2S           -48.3273626148      -16.8663359602       11.5808911079  MEMB      139             0.0000000000
     17373       139  QMPE      C3            -50.1404072991      -19.0732655320       14.8823364584  MEMB      139             0.0000000000
     17374       139  QMPE      HX            -50.0489191859      -19.8304029449       15.6902309550  MEMB      139             0.0000000000
     17375       139  QMPE      HY            -49.5648188020      -19.5199873533       14.0436119800  MEMB      139             0.0000000000
     17376       139  QMPE      O31           -51.5640605598      -18.9437384881       14.5357497133  MEMB      139             0.0000000000
     17377       139  QMPE      C31           -51.8729155359      -18.9796724797       13.2797733272  MEMB      139             0.0000000000
     17378       139  QMPE      O32           -51.1932645185      -19.1073844863       12.2762754340  MEMB      139             0.0000000000
     17379       139  QMPE      C32           -53.3623648217      -18.7253931390       13.1113509808  MEMB      139             0.0000000000
     17380       139  QMPE      H2X           -53.9327262216      -19.6639383471       13.2791059684  MEMB      139             0.0000000000
     17381       139  QMPE      H2Y           -53.7182755063      -18.1359692467       13.9832612541  MEMB      139             0.0000000000
     17382       139  QMPE      C23           -46.7239290122      -15.6756432958       12.3076254206  MEMB      139             0.0000000000
     17383       139  QMPE      H3R           -46.0626891335      -16.5552365595       12.1546592227  MEMB      139             0.0000000000
     17384       139  QMPE      H3S           -46.5044811906      -15.0580978832       13.2047326693  MEMB      139             0.0000000000
     17385       139  QMPE      C24           -46.5678223551      -14.7281509845       11.1531568153  MEMB      139             0.0000000000
     17386       139  QMPE      H4R           -45.5442289316      -14.3112012155       11.2659861872  MEMB      139             0.0000000000
     17387       139  QMPE      H4S           -47.2803853913      -13.8759407751       11.1354695679  MEMB      139             0.0000000000
     17388       139  QMPE      C25           -46.5060285110      -15.4665622634        9.8124719931  MEMB      139             0.0000000000
     17389       139  QMPE      H5R           -46.5548341934      -14.6853429769        9.0240334335  MEMB      139             0.0000000000
     17390       139  QMPE      H5S           -47.3898435672      -16.1101522226        9.6150283984  MEMB      139             0.0000000000
     17391       139  QMPE      C26           -45.3283926134      -16.4120073916        9.6018893197  MEMB      139             0.0000000000
     17392       139  QMPE      H6R           -45.4050524638      -17.2945048220       10.2724428491  MEMB      139             0.0000000000
     17393       139  QMPE      H6S           -44.4665055403      -15.7157948432        9.6841067078  MEMB      139             0.0000000000
     17394       139  QMPE      C27           -45.3399793898      -17.0577231486        8.1441875211  MEMB      139             0.0000000000
     17395       139  QMPE      H7R           -46.1408618005      -17.8268059236        8.1818733516  MEMB      139             0.0000000000
     17396       139  QMPE      H7S           -44.3262926467      -17.5006998497        8.0415621736  MEMB      139             0.0000000000
     17397       139  QMPE      C28           -45.2677957879      -16.0452657586        6.9270141385  MEMB      139             0.0000000000
     17398       139  QMPE      H8R           -46.1994195784      -15.4399581806        6.9262239603  MEMB      139             0.0000000000
     17399       139  QMPE      H8S           -45.2249631570      -16.6653181570        6.0061333721  MEMB      139             0.0000000000
     17400       139  QMPE      C29           -44.0734043090      -15.1437919640        6.9268207183  MEMB      139             0.0000000000
     17401       139  QMPE      H9R           -43.1571050098      -15.4649002705        7.4668262222  MEMB      139             0.0000000000
     17402       139  QMPE      C217          -44.3816156660      -13.6658718818        7.1735970890  MEMB      139             0.0000000000
     17403       139  QMPE      H17R          -45.4079606210      -13.3625867747        7.0076950967  MEMB      139             0.0000000000
     17404       139  QMPE      H17S          -43.6573908977      -13.2844875870        7.8827754721  MEMB      139             0.0000000000
     17405       139  QMPE      C210          -43.7340769608      -14.0997500434        5.8393574719  MEMB      139             0.0000000000
     17406       139  QMPE      H10R          -42.6657345071      -13.7958851593        5.8142198333  MEMB      139             0.0000000000
     17407       139  QMPE      C211          -44.5244055801      -14.0242861004        4.5015972654  MEMB      139             0.0000000000
     17408       139  QMPE      H11R          -45.5761988807      -14.3509713464        4.6476400315  MEMB      139             0.0000000000
     17409       139  QMPE      H11S          -44.5123314799      -13.0627620255        3.9451383777  MEMB      139             0.0000000000
     17410       139  QMPE      C212          -43.9220455029      -15.1317684354        3.6104638649  MEMB      139             0.0000000000
     17411       139  QMPE      H12R          -43.9166923422      -16.0883336980        4.1755076659  MEMB      139             0.0000000000
     17412       139  QMPE      H12S          -42.8666228712      -14.9103316351        3.3433118226  MEMB      139             0.0000000000
     17413       139  QMPE      C213          -44.7949962860      -15.3106407466        2.3896932177  MEMB      139             0.0000000000
     17414       139  QMPE      H13R          -45.2409030227      -14.3478982487        2.0601248486  MEMB      139             0.0000000000
     17415       139  QMPE      H13S          -45.6337325936      -15.9314675193        2.7710274740  MEMB      139             0.0000000000
     17416       139  QMPE      C214          -44.2996168633      -16.3421647457        1.3614463333  MEMB      139             0.0000000000
     17417       139  QMPE      H14R          -45.0570184057      -16.2800406409        0.5510127444  MEMB      139             0.0000000000
     17418       139  QMPE      H14S          -44.2627603337      -17.3654300422        1.7925968222  MEMB      139             0.0000000000
     17419       139  QMPE      C215          -42.9824775472      -15.9888871075        0.7152299240  MEMB      139             0.0000000000
     17420       139  QMPE      H15R          -42.7957935596      -16.7631543423       -0.0593528623  MEMB      139             0.0000000000
     17421       139  QMPE      H15S          -42.2086844013      -15.9788357215        1.5123900109  MEMB      139             0.0000000000
     17422       139  QMPE      C216          -42.9196886646      -14.7407888788       -0.1411812026  MEMB      139             0.0000000000
     17423       139  QMPE      H16R          -42.1682294628      -15.0197042486       -0.9104896025  MEMB      139             0.0000000000
     17424       139  QMPE      H16S          -42.5549143008      -13.8462110547        0.4074448375  MEMB      139             0.0000000000
     17425       139  QMPE      H16T          -43.8725042643      -14.5152546050       -0.6661551299  MEMB      139             0.0000000000
     17426       139  QMPE      C33           -53.6976093156      -17.9340860741       11.8307516669  MEMB      139             0.0000000000
     17427       139  QMPE      H3X           -54.7868907741      -18.0215421621       11.6304069949  MEMB      139             0.0000000000
     17428       139  QMPE      H3Y           -53.1863168015      -18.4181948520       10.9713681403  MEMB      139             0.0000000000
     17429       139  QMPE      C34           -53.2868456525      -16.5025522633       11.9508106399  MEMB      139             0.0000000000
     17430       139  QMPE      H4X           -52.3674612938      -16.3937621676       12.5649913823  MEMB      139             0.0000000000
     17431       139  QMPE      H4Y           -54.1568146440      -15.9707064361       12.3919623544  MEMB      139             0.0000000000
     17432       139  QMPE      C35           -53.1503737459      -15.7009249716       10.6227987028  MEMB      139             0.0000000000
     17433       139  QMPE      H5X           -53.0429524066      -14.6083496558       10.7932715585  MEMB      139             0.0000000000
     17434       139  QMPE      H5Y           -54.0464540269      -15.8395567346        9.9808156191  MEMB      139             0.0000000000
     17435       139  QMPE      C36           -51.8304817507      -16.0938797543        9.9292177841  MEMB      139             0.0000000000
     17436       139  QMPE      H6X           -51.7897288740      -17.1257917240        9.5195623932  MEMB      139             0.0000000000
     17437       139  QMPE      H6Y           -50.9500396744      -15.9349160854       10.5879085546  MEMB      139             0.0000000000
     17438       139  QMPE      C37           -51.5868726836      -15.1973298744        8.7101837160  MEMB      139             0.0000000000
     17439       139  QMPE      H7X           -52.4268913172      -15.2998973015        7.9903430376  MEMB      139             0.0000000000
     17440       139  QMPE      H7Y           -51.5684996764      -14.1323086742        9.0259567235  MEMB      139             0.0000000000
     17441       139  QMPE      C38           -50.3425940826      -15.5804557574        7.9907644683  MEMB      139             0.0000000000
     17442       139  QMPE      H8X           -49.4413281114      -15.2759454702        8.5646234262  MEMB      139             0.0000000000
     17443       139  QMPE      H8Y           -50.1678881242      -16.6772886825        8.0182653325  MEMB      139             0.0000000000
     17444       139  QMPE      C39           -50.2323930272      -15.1586968414        6.5592081848  MEMB      139             0.0000000000
     17445       139  QMPE      H9X           -50.6166011148      -14.1206816671        6.4631370072  MEMB      139             0.0000000000
     17446       139  QMPE      H9Y           -50.9118893892      -15.7119315249        5.8761732225  MEMB      139             0.0000000000
     17447       139  QMPE      C310          -48.8205291860      -15.2611526443        6.0316631306  MEMB      139             0.0000000000
     17448       139  QMPE      H10X          -48.5840599879      -16.3404523212        5.9154075626  MEMB      139             0.0000000000
     17449       139  QMPE      H10Y          -48.1499051636      -14.9247644565        6.8510694502  MEMB      139             0.0000000000
     17450       139  QMPE      C311          -48.5431157918      -14.4192755879        4.7658948655  MEMB      139             0.0000000000
     17451       139  QMPE      H11X          -47.4976192412      -14.4309258373        4.3902332323  MEMB      139             0.0000000000
     17452       139  QMPE      H11Y          -48.6412279582      -13.3298657365        4.9605266728  MEMB      139             0.0000000000
     17453       139  QMPE      C312          -49.4391512517      -14.7086832636        3.5776999126  MEMB      139             0.0000000000
     17454       139  QMPE      H12X          -50.4831999112      -14.4369225103        3.8430851795  MEMB      139             0.0000000000
     17455       139  QMPE      H12Y          -49.4558989571      -15.8017707245        3.3797092061  MEMB      139             0.0000000000
     17456       139  QMPE      C313          -49.2287008265      -13.8242519238        2.3630032804  MEMB      139             0.0000000000
     17457       139  QMPE      H13X          -49.4918178224      -12.7541202376        2.5041027305  MEMB      139             0.0000000000
     17458       139  QMPE      H13Y          -48.1332555774      -13.7178604449        2.2113424351  MEMB      139             0.0000000000
     17459       139  QMPE      C314          -50.0150629309      -14.2648991170        1.0724372173  MEMB      139             0.0000000000
     17460       139  QMPE      H14X          -51.0176951850      -13.8335861808        1.2798458003  MEMB      139             0.0000000000
     17461       139  QMPE      H14Y          -50.2959595785      -15.3381270943        1.1324341271  MEMB      139             0.0000000000
     17462       139  QMPE      C315          -49.5749646345      -13.6333149281       -0.2115721363  MEMB      139             0.0000000000
     17463       139  QMPE      H15X          -49.5847734754      -12.5264234822       -0.1166201025  MEMB      139             0.0000000000
     17464       139  QMPE      H15Y          -48.5648913265      -13.9543036784       -0.5447985079  MEMB      139             0.0000000000
     17465       139  QMPE      H15Z          -50.2629093575      -14.0195115890       -0.9938154370  MEMB      139             0.0000000000
     17466       140  OYPE      N              33.0354382850      -38.3588707405       19.7943291517  MEMB      140             0.0000000000
     17467       140  OYPE      HN1            33.3418591701      -37.4210538328       20.1232756854  MEMB      140             0.0000000000
     17468       140  OYPE      HN2            33.2246285555      -38.4232303170       18.7737092626  MEMB      140             0.0000000000
     17469       140  OYPE      HN3            32.0359635285      -38.4079719405       20.0775945386  MEMB      140             0.0000000000
     17470       140  OYPE      C12            33.8234615748      -39.5164890598       20.4165760261  MEMB      140             0.0000000000
     17471       140  OYPE      H12A           33.6038253837      -40.4541891708       19.8626811559  MEMB      140             0.0000000000
     17472       140  OYPE      H12B           33.4059373424      -39.6558771053       21.4366571006  MEMB      140             0.0000000000
     17473       140  OYPE      C11            35.3639135964      -39.2014468241       20.4218673836  MEMB      140             0.0000000000
     17474       140  OYPE      H11A           35.9460094878      -40.0330873205       20.8733753871  MEMB      140             0.0000000000
     17475       140  OYPE      H11B           35.5550347899      -38.2571185373       20.9750741342  MEMB      140             0.0000000000
     17476       140  OYPE      P              36.1213429727      -40.4929993408       18.2525140122  MEMB      140             0.0000000000
     17477       140  OYPE      O13            36.7737146390      -41.4663677966       19.1977481415  MEMB      140             0.0000000000
     17478       140  OYPE      O14            36.9999059842      -40.1844158928       17.0935645536  MEMB      140             0.0000000000
     17479       140  OYPE      O11            34.7206751405      -40.9187937666       17.8156023127  MEMB      140             0.0000000000
     17480       140  OYPE      O12            35.8300502029      -39.1799413846       19.0077984205  MEMB      140             0.0000000000
     17481       140  OYPE      C1             33.8427811415      -40.1122220836       17.0766545817  MEMB      140             0.0000000000
     17482       140  OYPE      HA             34.2710305527      -39.0997269596       16.9161020332  MEMB      140             0.0000000000
     17483       140  OYPE      HB             32.8290264344      -40.0276911845       17.5232830571  MEMB      140             0.0000000000
     17484       140  OYPE      C2             33.4597671282      -40.7332079257       15.6283808589  MEMB      140             0.0000000000
     17485       140  OYPE      HS             32.8778643121      -41.6714770310       15.7523212468  MEMB      140             0.0000000000
     17486       140  OYPE      O21            34.6909652306      -40.9101669355       14.8953645853  MEMB      140             0.0000000000
     17487       140  OYPE      C21            35.2061191889      -42.1387037285       14.8676008731  MEMB      140             0.0000000000
     17488       140  OYPE      O22            34.6070595840      -43.0856640958       15.4185871595  MEMB      140             0.0000000000
     17489       140  OYPE      C22            36.4185943324      -42.1801986410       13.9491456496  MEMB      140             0.0000000000
     17490       140  OYPE      H2R            37.1630760531      -41.4508636499       14.3340334904  MEMB      140             0.0000000000
     17491       140  OYPE      H2S            36.0700752988      -41.8012849788       12.9646256625  MEMB      140             0.0000000000
     17492       140  OYPE      C3             32.4877302054      -39.7873238570       14.9056500043  MEMB      140             0.0000000000
     17493       140  OYPE      HX             32.9766562676      -38.8329855237       14.6149432847  MEMB      140             0.0000000000
     17494       140  OYPE      HY             31.7904070943      -39.5417534409       15.7349611204  MEMB      140             0.0000000000
     17495       140  OYPE      O31            31.9068097592      -40.4348659410       13.7139149023  MEMB      140             0.0000000000
     17496       140  OYPE      C31            32.6055440418      -40.3795189245       12.5219142899  MEMB      140             0.0000000000
     17497       140  OYPE      O32            33.7248779797      -39.8693207294       12.4430420067  MEMB      140             0.0000000000
     17498       140  OYPE      C32            31.7308978093      -40.8185466940       11.3207980494  MEMB      140             0.0000000000
     17499       140  OYPE      H2X            32.2549937122      -41.5430099789       10.6614062657  MEMB      140             0.0000000000
     17500       140  OYPE      H2Y            30.9367544059      -41.3773051208       11.8606561971  MEMB      140             0.0000000000
     17501       140  OYPE      C23            37.0990243861      -43.5990946236       13.8495275729  MEMB      140             0.0000000000
     17502       140  OYPE      H3R            37.1427399373      -44.1331794664       14.8227506919  MEMB      140             0.0000000000
     17503       140  OYPE      H3S            38.1774893089      -43.4633570507       13.6197239926  MEMB      140             0.0000000000
     17504       140  OYPE      C24            36.3320482566      -44.4821471448       12.7237972787  MEMB      140             0.0000000000
     17505       140  OYPE      H4R            35.2573211830      -44.4942179414       13.0051099923  MEMB      140             0.0000000000
     17506       140  OYPE      H4S            36.7719737814      -45.5018851315       12.6934529326  MEMB      140             0.0000000000
     17507       140  OYPE      C25            36.5888583669      -43.8740494460       11.3031846515  MEMB      140             0.0000000000
     17508       140  OYPE      H5R            37.1196447149      -44.6059325416       10.6574800427  MEMB      140             0.0000000000
     17509       140  OYPE      H5S            37.2611356030      -42.9911459466       11.3565288952  MEMB      140             0.0000000000
     17510       140  OYPE      C26            35.3042179788      -43.6663289336       10.4197286808  MEMB      140             0.0000000000
     17511       140  OYPE      H6R            34.4944522469      -43.4347537480       11.1442790599  MEMB      140             0.0000000000
     17512       140  OYPE      H6S            35.0447434237      -44.6788701603       10.0432256204  MEMB      140             0.0000000000
     17513       140  OYPE      C27            35.3596436706      -42.5893385053        9.3208692646  MEMB      140             0.0000000000
     17514       140  OYPE      H7R            35.7996500767      -41.6846430695        9.7922946575  MEMB      140             0.0000000000
     17515       140  OYPE      H7S            34.2832940954      -42.4459128360        9.0858763422  MEMB      140             0.0000000000
     17516       140  OYPE      C28            36.1333729483      -43.1320909063        8.1101082940  MEMB      140             0.0000000000
     17517       140  OYPE      H8R            35.5561506082      -44.0255409867        7.7893562649  MEMB      140             0.0000000000
     17518       140  OYPE      H8S            37.1550972927      -43.4337739779        8.4253665651  MEMB      140             0.0000000000
     17519       140  OYPE      C29            36.2243374632      -42.0804482600        7.0846266246  MEMB      140             0.0000000000
     17520       140  OYPE      H9R            37.0552490442      -41.3630532274        7.0144126073  MEMB      140             0.0000000000
     17521       140  OYPE      C210           35.2658851202      -41.9327966186        6.1924722731  MEMB      140             0.0000000000
     17522       140  OYPE      H10R           35.3473905893      -41.1961044876        5.3796739007  MEMB      140             0.0000000000
     17523       140  OYPE      C211           34.0256858718      -42.7076199972        6.0782848954  MEMB      140             0.0000000000
     17524       140  OYPE      H11R           33.6311862565      -43.0827706305        7.0467642733  MEMB      140             0.0000000000
     17525       140  OYPE      H11S           34.1587985989      -43.5888659907        5.4149541822  MEMB      140             0.0000000000
     17526       140  OYPE      C212           32.8917476700      -41.9215678563        5.4212266402  MEMB      140             0.0000000000
     17527       140  OYPE      H12R           32.8522340054      -40.9036199694        5.8645568948  MEMB      140             0.0000000000
     17528       140  OYPE      H12S           31.9421504894      -42.4521090534        5.6473068946  MEMB      140             0.0000000000
     17529       140  OYPE      C213           33.0839091463      -41.9784905151        3.9220525864  MEMB      140             0.0000000000
     17530       140  OYPE      H13R           32.9508532660      -43.0183971829        3.5543416640  MEMB      140             0.0000000000
     17531       140  OYPE      H13S           34.1770863680      -41.8530822052        3.7685685792  MEMB      140             0.0000000000
     17532       140  OYPE      C214           32.3481067885      -40.9154676389        3.2050662362  MEMB      140             0.0000000000
     17533       140  OYPE      H14R           32.7081689370      -39.9693637409        3.6628479001  MEMB      140             0.0000000000
     17534       140  OYPE      H14S           31.2442841123      -41.0381793247        3.2340223057  MEMB      140             0.0000000000
     17535       140  OYPE      C215           32.6258581458      -40.6470021894        1.7049979481  MEMB      140             0.0000000000
     17536       140  OYPE      H15R           33.6998234387      -40.6142234929        1.4224295995  MEMB      140             0.0000000000
     17537       140  OYPE      H15S           32.2248773363      -39.6478129892        1.4308521063  MEMB      140             0.0000000000
     17538       140  OYPE      C216           31.9805387403      -41.5781547449        0.7160779287  MEMB      140             0.0000000000
     17539       140  OYPE      H16R           32.1541681222      -41.1946387659       -0.3120696309  MEMB      140             0.0000000000
     17540       140  OYPE      H16S           30.9388714504      -41.9623763917        0.7563768863  MEMB      140             0.0000000000
     17541       140  OYPE      H16T           32.4859530652      -42.5669836163        0.7491668277  MEMB      140             0.0000000000
     17542       140  OYPE      C33            31.1268706645      -39.6146736703       10.6627701412  MEMB      140             0.0000000000
     17543       140  OYPE      H3X            30.4613300705      -39.1526087982       11.4229491560  MEMB      140             0.0000000000
     17544       140  OYPE      H3Y            30.5549092660      -40.0756518176        9.8292948720  MEMB      140             0.0000000000
     17545       140  OYPE      C34            32.0770864751      -38.6633964100       10.0036612190  MEMB      140             0.0000000000
     17546       140  OYPE      H4X            31.5045752354      -37.8929942718        9.4441676614  MEMB      140             0.0000000000
     17547       140  OYPE      H4Y            32.6840151948      -38.0349034594       10.6899225982  MEMB      140             0.0000000000
     17548       140  OYPE      C35            33.0208967550      -39.4193118737        8.9806984394  MEMB      140             0.0000000000
     17549       140  OYPE      H5X            32.3838354894      -40.0494471994        8.3238844934  MEMB      140             0.0000000000
     17550       140  OYPE      H5Y            33.7149253497      -40.1032698555        9.5144090203  MEMB      140             0.0000000000
     17551       140  OYPE      C36            33.9137967215      -38.5732796345        8.0863751704  MEMB      140             0.0000000000
     17552       140  OYPE      H6X            34.6877358787      -39.0822035035        7.4729134888  MEMB      140             0.0000000000
     17553       140  OYPE      H6Y            33.2065377106      -38.1564573999        7.3378002527  MEMB      140             0.0000000000
     17554       140  OYPE      C37            34.5189873078      -37.3524272929        8.8220647963  MEMB      140             0.0000000000
     17555       140  OYPE      H7X            33.6695132993      -36.7149715212        9.1482019513  MEMB      140             0.0000000000
     17556       140  OYPE      H7Y            35.0731009314      -37.6550239071        9.7362391453  MEMB      140             0.0000000000
     17557       140  OYPE      C38            35.3594344829      -36.4547330531        7.9319183850  MEMB      140             0.0000000000
     17558       140  OYPE      H8X            35.7632133785      -35.6240812845        8.5494145664  MEMB      140             0.0000000000
     17559       140  OYPE      H8Y            36.2259783226      -37.0839287622        7.6360539660  MEMB      140             0.0000000000
     17560       140  OYPE      C39            34.7340192135      -36.0634625686        6.6309758189  MEMB      140             0.0000000000
     17561       140  OYPE      H9X            33.9459897371      -35.3016151631        6.7236986026  MEMB      140             0.0000000000
     17562       140  OYPE      C310           35.1119452804      -36.4532440944        5.4136943166  MEMB      140             0.0000000000
     17563       140  OYPE      H10X           34.5393970524      -36.0393882912        4.5705387837  MEMB      140             0.0000000000
     17564       140  OYPE      C311           36.2570494207      -37.3225068469        5.0577130980  MEMB      140             0.0000000000
     17565       140  OYPE      H11X           37.0645269360      -36.7629932534        4.5388241328  MEMB      140             0.0000000000
     17566       140  OYPE      H11Y           36.6600199705      -37.9145916680        5.9070495727  MEMB      140             0.0000000000
     17567       140  OYPE      C312           35.8478510726      -38.3977707606        4.0531915800  MEMB      140             0.0000000000
     17568       140  OYPE      H12X           35.1850897181      -38.0693292289        3.2242197318  MEMB      140             0.0000000000
     17569       140  OYPE      H12Y           35.2416348620      -39.1584790333        4.5899836835  MEMB      140             0.0000000000
     17570       140  OYPE      C313           37.1123481494      -39.2251386185        3.6042024258  MEMB      140             0.0000000000
     17571       140  OYPE      H13X           37.5133861089      -38.6316951259        2.7549003112  MEMB      140             0.0000000000
     17572       140  OYPE      H13Y           37.8519533414      -39.2898854850        4.4307097167  MEMB      140             0.0000000000
     17573       140  OYPE      C314           36.7740276907      -40.4589412363        2.8067804053  MEMB      140             0.0000000000
     17574       140  OYPE      H14X           36.2774474270      -40.0656601724        1.8940606624  MEMB      140             0.0000000000
     17575       140  OYPE      H14Y           35.9947512205      -41.0208577296        3.3647224747  MEMB      140             0.0000000000
     17576       140  OYPE      C315           38.0160294846      -41.3226414450        2.5899291780  MEMB      140             0.0000000000
     17577       140  OYPE      H15X           38.1247976288      -41.8388223897        3.5677063828  MEMB      140             0.0000000000
     17578       140  OYPE      H15Y           38.9903024094      -40.8241182116        2.3986498420  MEMB      140             0.0000000000
     17579       140  OYPE      C316           37.6738832314      -42.3468505868        1.5132826787  MEMB      140             0.0000000000
     17580       140  OYPE      H16X           37.9393327359      -41.8486193413        0.5564001275  MEMB      140             0.0000000000
     17581       140  OYPE      H16Y           36.5791094287      -42.5273927349        1.5698132974  MEMB      140             0.0000000000
     17582       140  OYPE      C317           38.4188258482      -43.6622874239        1.5950391365  MEMB      140             0.0000000000
     17583       140  OYPE      H17X           38.7322893507      -43.9054501284        2.6327925565  MEMB      140             0.0000000000
     17584       140  OYPE      H17Y           39.3946278773      -43.4624479499        1.1029040309  MEMB      140             0.0000000000
     17585       140  OYPE      C318           37.7816836808      -44.8591193676        0.9154422515  MEMB      140             0.0000000000
     17586       140  OYPE      H18X           38.5385628312      -45.6562271728        0.7539665164  MEMB      140             0.0000000000
     17587       140  OYPE      H18Y           36.9391772363      -45.3612871634        1.4372952700  MEMB      140             0.0000000000
     17588       140  OYPE      H18Z           37.4739523222      -44.5543763212       -0.1076685264  MEMB      140             0.0000000000
     17589       141  PMPE      N              15.6854395147       51.0529875947       19.2000774887  MEMB      141             0.0000000000
     17590       141  PMPE      HN1            16.6290950804       51.3429543162       18.8729175221  MEMB      141             0.0000000000
     17591       141  PMPE      HN2            15.3025475469       51.7698220406       19.8490321268  MEMB      141             0.0000000000
     17592       141  PMPE      HN3            15.8061070641       50.0838343576       19.5575430910  MEMB      141             0.0000000000
     17593       141  PMPE      C12            14.9592944331       51.0191289971       17.8241855945  MEMB      141             0.0000000000
     17594       141  PMPE      H12A           15.5405003893       50.3995980936       17.1081533439  MEMB      141             0.0000000000
     17595       141  PMPE      H12B           14.9377372455       52.1119448536       17.6251634463  MEMB      141             0.0000000000
     17596       141  PMPE      C11            13.5115193869       50.4791568852       18.1401042499  MEMB      141             0.0000000000
     17597       141  PMPE      H11A           13.5493207264       49.3756283143       18.2630556739  MEMB      141             0.0000000000
     17598       141  PMPE      H11B           12.7665354477       50.6512142561       17.3340546159  MEMB      141             0.0000000000
     17599       141  PMPE      P              12.0295980497       52.3285584669       19.4008594393  MEMB      141             0.0000000000
     17600       141  PMPE      O13            12.8488805461       53.5126554070       18.9954218244  MEMB      141             0.0000000000
     17601       141  PMPE      O14            11.4390974093       52.3344294965       20.7743440899  MEMB      141             0.0000000000
     17602       141  PMPE      O11            10.9537561149       52.0219074493       18.3391631635  MEMB      141             0.0000000000
     17603       141  PMPE      O12            12.9652984981       51.0117204191       19.3258441339  MEMB      141             0.0000000000
     17604       141  PMPE      C1              9.8988362423       51.0840320977       18.5154851184  MEMB      141             0.0000000000
     17605       141  PMPE      HA              8.9542399784       51.6508990848       18.6594326406  MEMB      141             0.0000000000
     17606       141  PMPE      HB             10.0591443065       50.4132452819       19.3865002365  MEMB      141             0.0000000000
     17607       141  PMPE      C2              9.7377533483       50.1836361104       17.3121879861  MEMB      141             0.0000000000
     17608       141  PMPE      HS              8.6969181480       49.8016452276       17.3833606493  MEMB      141             0.0000000000
     17609       141  PMPE      O21            10.8089027586       49.1817491903       17.2211096586  MEMB      141             0.0000000000
     17610       141  PMPE      C21            10.4328362911       47.9865516454       16.7062170089  MEMB      141             0.0000000000
     17611       141  PMPE      O22             9.3421401017       47.6685732853       16.3673305721  MEMB      141             0.0000000000
     17612       141  PMPE      C22            11.7193227196       47.1427690801       16.6471534940  MEMB      141             0.0000000000
     17613       141  PMPE      H2R            11.2882282445       46.1391289641       16.4442133077  MEMB      141             0.0000000000
     17614       141  PMPE      H2S            12.1111562452       47.0969883082       17.6857542848  MEMB      141             0.0000000000
     17615       141  PMPE      C3              9.7897235106       51.0136603714       15.9384326244  MEMB      141             0.0000000000
     17616       141  PMPE      HX              9.1904706356       51.9462719199       16.0122747379  MEMB      141             0.0000000000
     17617       141  PMPE      HY              9.3688553073       50.3526031605       15.1509085168  MEMB      141             0.0000000000
     17618       141  PMPE      O31            11.1554051567       51.2305109252       15.5454633569  MEMB      141             0.0000000000
     17619       141  PMPE      C31            11.4023328312       52.4152546235       15.0228586037  MEMB      141             0.0000000000
     17620       141  PMPE      O32            10.6153229746       53.3415634816       14.9623944559  MEMB      141             0.0000000000
     17621       141  PMPE      C32            12.8036685597       52.4266501306       14.3963252519  MEMB      141             0.0000000000
     17622       141  PMPE      H2X            13.0223705455       51.4914308717       13.8378853339  MEMB      141             0.0000000000
     17623       141  PMPE      H2Y            13.5521797094       52.4868266229       15.2151238978  MEMB      141             0.0000000000
     17624       141  PMPE      C23            12.7361311596       47.6975456281       15.6275802838  MEMB      141             0.0000000000
     17625       141  PMPE      H3R            13.6012438493       47.0038203855       15.5594170604  MEMB      141             0.0000000000
     17626       141  PMPE      H3S            13.1500437850       48.7099049823       15.8228387811  MEMB      141             0.0000000000
     17627       141  PMPE      C24            12.0981720646       47.7526665157       14.1992573020  MEMB      141             0.0000000000
     17628       141  PMPE      H4R            11.3214031861       48.5469493697       14.1911243289  MEMB      141             0.0000000000
     17629       141  PMPE      H4S            11.7110701327       46.7757714077       13.8384957915  MEMB      141             0.0000000000
     17630       141  PMPE      C25            13.1174312658       47.9894450004       13.1047334095  MEMB      141             0.0000000000
     17631       141  PMPE      H5R            13.9067789366       47.2629135780       13.3935296918  MEMB      141             0.0000000000
     17632       141  PMPE      H5S            13.4670908178       49.0423310541       13.1638101313  MEMB      141             0.0000000000
     17633       141  PMPE      C26            12.5774011549       47.8534065805       11.6234372415  MEMB      141             0.0000000000
     17634       141  PMPE      H6R            11.5978532916       48.3513631259       11.4595890850  MEMB      141             0.0000000000
     17635       141  PMPE      H6S            12.4193146309       46.7930232256       11.3320320919  MEMB      141             0.0000000000
     17636       141  PMPE      C27            13.5340239531       48.5078784181       10.6231848456  MEMB      141             0.0000000000
     17637       141  PMPE      H7R            14.5909553280       48.2117069527       10.7949396127  MEMB      141             0.0000000000
     17638       141  PMPE      H7S            13.7190391161       49.5891962820       10.7988037123  MEMB      141             0.0000000000
     17639       141  PMPE      C28            13.2052790125       48.1232294559        9.1759206775  MEMB      141             0.0000000000
     17640       141  PMPE      H8R            13.3597295318       47.0453532197        8.9553551794  MEMB      141             0.0000000000
     17641       141  PMPE      H8S            13.8999744346       48.6816774702        8.5127052327  MEMB      141             0.0000000000
     17642       141  PMPE      C29            11.8153115705       48.4238429380        8.5810237711  MEMB      141             0.0000000000
     17643       141  PMPE      H9R            11.4162477367       49.4422235029        8.7758829668  MEMB      141             0.0000000000
     17644       141  PMPE      C217           10.7943651026       47.2892788893        8.7588715173  MEMB      141             0.0000000000
     17645       141  PMPE      H17R            9.7946011631       47.6586402212        8.9510531465  MEMB      141             0.0000000000
     17646       141  PMPE      H17S           11.0700990894       46.2425216961        8.7929195291  MEMB      141             0.0000000000
     17647       141  PMPE      C210           11.2271268655       47.6682409430        7.3682746475  MEMB      141             0.0000000000
     17648       141  PMPE      H10R           10.6812096428       48.4634963990        6.8170361536  MEMB      141             0.0000000000
     17649       141  PMPE      C211           11.9857913316       46.6721465703        6.5677741747  MEMB      141             0.0000000000
     17650       141  PMPE      H11R           11.3885405127       46.2240463175        5.7450840162  MEMB      141             0.0000000000
     17651       141  PMPE      H11S           12.3530000899       45.8592263613        7.2300731793  MEMB      141             0.0000000000
     17652       141  PMPE      C212           13.1581283144       47.3555055565        5.8682868086  MEMB      141             0.0000000000
     17653       141  PMPE      H12R           13.8778625829       47.5221569284        6.6980649696  MEMB      141             0.0000000000
     17654       141  PMPE      H12S           12.7647910470       48.3210401113        5.4844253143  MEMB      141             0.0000000000
     17655       141  PMPE      C213           13.8390910786       46.5271944257        4.7715910154  MEMB      141             0.0000000000
     17656       141  PMPE      H13R           13.8981382992       45.5047277114        5.2021677614  MEMB      141             0.0000000000
     17657       141  PMPE      H13S           14.8606890023       46.9406733943        4.6312563343  MEMB      141             0.0000000000
     17658       141  PMPE      C214           13.2325747749       46.5605827000        3.3591214665  MEMB      141             0.0000000000
     17659       141  PMPE      H14R           12.8569059473       47.6060701264        3.3468539795  MEMB      141             0.0000000000
     17660       141  PMPE      H14S           12.2888426101       45.9746505218        3.3397879936  MEMB      141             0.0000000000
     17661       141  PMPE      C215           14.0499699743       46.3225852344        2.0973579799  MEMB      141             0.0000000000
     17662       141  PMPE      H15R           14.9926028688       46.9059927122        2.0238729316  MEMB      141             0.0000000000
     17663       141  PMPE      H15S           13.4774685140       46.8343824531        1.2944705573  MEMB      141             0.0000000000
     17664       141  PMPE      C216           14.3388967727       44.9597595522        1.7539898296  MEMB      141             0.0000000000
     17665       141  PMPE      H16R           13.3675625778       44.4701060276        1.5280021919  MEMB      141             0.0000000000
     17666       141  PMPE      H16S           15.1844249147       44.7998599049        1.0512559449  MEMB      141             0.0000000000
     17667       141  PMPE      H16T           14.8386272877       44.5055088294        2.6361719232  MEMB      141             0.0000000000
     17668       141  PMPE      C33            12.9685271129       53.6887194399       13.6093367441  MEMB      141             0.0000000000
     17669       141  PMPE      H3X            14.0238927520       53.6346750642       13.2664027831  MEMB      141             0.0000000000
     17670       141  PMPE      H3Y            12.7243233480       54.6023255557       14.1924397617  MEMB      141             0.0000000000
     17671       141  PMPE      C34            12.1894034245       53.8988747845       12.2858880207  MEMB      141             0.0000000000
     17672       141  PMPE      H4X            12.1320890141       54.9736890981       12.0105519967  MEMB      141             0.0000000000
     17673       141  PMPE      H4Y            11.1277255289       53.5715472403       12.2816628338  MEMB      141             0.0000000000
     17674       141  PMPE      C35            12.8364090718       53.2068930545       10.9864722929  MEMB      141             0.0000000000
     17675       141  PMPE      H5X            12.1147715149       53.2016841586       10.1417634232  MEMB      141             0.0000000000
     17676       141  PMPE      H5Y            12.9688725150       52.1104053156       11.1068420583  MEMB      141             0.0000000000
     17677       141  PMPE      C36            14.1495878808       53.9672731746       10.6165670270  MEMB      141             0.0000000000
     17678       141  PMPE      H6X            14.8591452752       53.7462702306       11.4424038672  MEMB      141             0.0000000000
     17679       141  PMPE      H6Y            13.9408076573       55.0559804304       10.6903793137  MEMB      141             0.0000000000
     17680       141  PMPE      C37            14.6159407977       53.5813737495        9.1964637873  MEMB      141             0.0000000000
     17681       141  PMPE      H7X            15.4418462204       54.2082033252        8.7973570502  MEMB      141             0.0000000000
     17682       141  PMPE      H7Y            13.7524319687       53.7463981492        8.5171696963  MEMB      141             0.0000000000
     17683       141  PMPE      C38            15.2649258408       52.2470140621        8.9988183811  MEMB      141             0.0000000000
     17684       141  PMPE      H8X            14.6653464418       51.4156596431        9.4273922896  MEMB      141             0.0000000000
     17685       141  PMPE      H8Y            16.1491274530       52.2198735058        9.6709587825  MEMB      141             0.0000000000
     17686       141  PMPE      C39            15.7622178935       52.0921843927        7.5055701487  MEMB      141             0.0000000000
     17687       141  PMPE      H9X            16.6796032699       51.4722277463        7.5971059774  MEMB      141             0.0000000000
     17688       141  PMPE      H9Y            16.1813832681       53.0285189013        7.0790739560  MEMB      141             0.0000000000
     17689       141  PMPE      C310           14.6950584344       51.4573433974        6.5685660722  MEMB      141             0.0000000000
     17690       141  PMPE      H10X           13.7650055236       52.0585483195        6.6573086022  MEMB      141             0.0000000000
     17691       141  PMPE      H10Y           14.5902833724       50.4314135564        6.9818594554  MEMB      141             0.0000000000
     17692       141  PMPE      C311           15.1890090018       51.1374161003        5.0840951904  MEMB      141             0.0000000000
     17693       141  PMPE      H11X           14.3127875374       50.6310330850        4.6256923653  MEMB      141             0.0000000000
     17694       141  PMPE      H11Y           16.0448856550       50.4355306203        4.9884231158  MEMB      141             0.0000000000
     17695       141  PMPE      C312           15.5853032032       52.3170556526        4.1142865941  MEMB      141             0.0000000000
     17696       141  PMPE      H12X           15.9422570688       51.7780189549        3.2107680422  MEMB      141             0.0000000000
     17697       141  PMPE      H12Y           16.4405082393       52.9110677303        4.5017076194  MEMB      141             0.0000000000
     17698       141  PMPE      C313           14.3919869776       53.2271528031        3.7776087913  MEMB      141             0.0000000000
     17699       141  PMPE      H13X           14.7157750069       54.1134345959        3.1911042691  MEMB      141             0.0000000000
     17700       141  PMPE      H13Y           13.9509759445       53.5454094329        4.7463926494  MEMB      141             0.0000000000
     17701       141  PMPE      C314           13.3497839066       52.5314558441        2.8447570307  MEMB      141             0.0000000000
     17702       141  PMPE      H14X           12.9961720056       51.6097197562        3.3543471585  MEMB      141             0.0000000000
     17703       141  PMPE      H14Y           13.7559453189       52.3496402106        1.8267700053  MEMB      141             0.0000000000
     17704       141  PMPE      C315           12.0431400616       53.3360257863        2.6556357381  MEMB      141             0.0000000000
     17705       141  PMPE      H15X           12.1877676603       54.4371878974        2.6265493068  MEMB      141             0.0000000000
     17706       141  PMPE      H15Y           11.4372417122       53.2162406903        3.5791403909  MEMB      141             0.0000000000
     17707       141  PMPE      C316           11.1119494929       52.9435376678        1.4626089493  MEMB      141             0.0000000000
     17708       141  PMPE      H16X           11.5398122767       53.2077058350        0.4719181552  MEMB      141             0.0000000000
     17709       141  PMPE      H16Y           10.1469885424       53.4831574408        1.5720700866  MEMB      141             0.0000000000
     17710       141  PMPE      H16Z           10.9363205807       51.8465136611        1.4662841994  MEMB      141             0.0000000000
     17711       142  PMPE      N             -10.3628754413      -52.9347907139       17.5422545385  MEMB      142             0.0000000000
     17712       142  PMPE      HN1           -10.7061901456      -53.9122596655       17.4512076154  MEMB      142             0.0000000000
     17713       142  PMPE      HN2           -11.0607559478      -52.3034805164       17.0995239801  MEMB      142             0.0000000000
     17714       142  PMPE      HN3            -9.4316598372      -52.6108784342       17.2113192089  MEMB      142             0.0000000000
     17715       142  PMPE      C12           -10.5527827678      -52.7049364958       19.0624533040  MEMB      142             0.0000000000
     17716       142  PMPE      H12A          -11.4466723535      -53.3080678444       19.3298763847  MEMB      142             0.0000000000
     17717       142  PMPE      H12B          -10.6523198783      -51.6175822715       19.2675733024  MEMB      142             0.0000000000
     17718       142  PMPE      C11            -9.3653676935      -53.2946935670       19.8881408322  MEMB      142             0.0000000000
     17719       142  PMPE      H11A           -9.1855422730      -54.2737024183       19.3946578854  MEMB      142             0.0000000000
     17720       142  PMPE      H11B           -9.4482957975      -53.4740281765       20.9814308071  MEMB      142             0.0000000000
     17721       142  PMPE      P              -6.8144028886      -53.2981936325       19.1236016472  MEMB      142             0.0000000000
     17722       142  PMPE      O13            -7.1684178392      -53.9942711619       17.8763385997  MEMB      142             0.0000000000
     17723       142  PMPE      O14            -6.1443667525      -54.0443642743       20.1956574996  MEMB      142             0.0000000000
     17724       142  PMPE      O11            -5.9140794713      -52.1048030292       18.6153314669  MEMB      142             0.0000000000
     17725       142  PMPE      O12            -8.1538773114      -52.5880735259       19.6962220979  MEMB      142             0.0000000000
     17726       142  PMPE      C1             -6.0547248031      -50.7133065030       18.8467235330  MEMB      142             0.0000000000
     17727       142  PMPE      HA             -5.0870328287      -50.2145057238       19.0682886219  MEMB      142             0.0000000000
     17728       142  PMPE      HB             -6.8742367263      -50.4068229945       19.5314053079  MEMB      142             0.0000000000
     17729       142  PMPE      C2             -6.3839639679      -49.8118746842       17.6510623406  MEMB      142             0.0000000000
     17730       142  PMPE      HS             -6.7457582127      -48.8458163320       18.0635636569  MEMB      142             0.0000000000
     17731       142  PMPE      O21            -7.4625903398      -50.4523775822       17.0033670758  MEMB      142             0.0000000000
     17732       142  PMPE      C21            -8.1384453115      -49.6756785538       16.2056525002  MEMB      142             0.0000000000
     17733       142  PMPE      O22            -8.0526227646      -48.4379704439       16.1389816158  MEMB      142             0.0000000000
     17734       142  PMPE      C22            -9.1749539530      -50.4939718462       15.5038935405  MEMB      142             0.0000000000
     17735       142  PMPE      H2R           -10.0465074248      -50.6050230377       16.1838812711  MEMB      142             0.0000000000
     17736       142  PMPE      H2S            -8.7602615380      -51.4760135733       15.1909311348  MEMB      142             0.0000000000
     17737       142  PMPE      C3             -5.1610235691      -49.6346969384       16.6572478442  MEMB      142             0.0000000000
     17738       142  PMPE      HX             -4.1869936764      -49.4637717152       17.1635789456  MEMB      142             0.0000000000
     17739       142  PMPE      HY             -5.4158491596      -48.7523349250       16.0320902687  MEMB      142             0.0000000000
     17740       142  PMPE      O31            -5.0031080462      -50.8242314090       15.8635353188  MEMB      142             0.0000000000
     17741       142  PMPE      C31            -5.3790041959      -50.8213778484       14.5935328852  MEMB      142             0.0000000000
     17742       142  PMPE      O32            -5.8790940726      -49.8752434853       14.0009370715  MEMB      142             0.0000000000
     17743       142  PMPE      C32            -4.9765683123      -52.0823251722       13.8108515057  MEMB      142             0.0000000000
     17744       142  PMPE      H2X            -3.8689802221      -52.1646551319       13.8389815028  MEMB      142             0.0000000000
     17745       142  PMPE      H2Y            -5.2114572042      -51.9272403573       12.7360968502  MEMB      142             0.0000000000
     17746       142  PMPE      C23            -9.4034539765      -49.7598588206       14.1415749292  MEMB      142             0.0000000000
     17747       142  PMPE      H3R            -9.7790910646      -50.5722725327       13.4833943436  MEMB      142             0.0000000000
     17748       142  PMPE      H3S            -8.4747870302      -49.3200548398       13.7191163745  MEMB      142             0.0000000000
     17749       142  PMPE      C24           -10.5372037980      -48.6550517915       14.3322490226  MEMB      142             0.0000000000
     17750       142  PMPE      H4R           -10.3418973391      -47.9186852446       15.1409145614  MEMB      142             0.0000000000
     17751       142  PMPE      H4S           -11.5205648899      -49.1374618042       14.5182662002  MEMB      142             0.0000000000
     17752       142  PMPE      C25           -10.6654660251      -47.8952358978       12.9513724666  MEMB      142             0.0000000000
     17753       142  PMPE      H5R            -9.6189195462      -47.5847597914       12.7448159121  MEMB      142             0.0000000000
     17754       142  PMPE      H5S           -11.2274098763      -46.9421230496       13.0519495687  MEMB      142             0.0000000000
     17755       142  PMPE      C26           -11.2524889971      -48.6427578490       11.7657937291  MEMB      142             0.0000000000
     17756       142  PMPE      H6R           -12.3625250857      -48.6713309005       11.8021827355  MEMB      142             0.0000000000
     17757       142  PMPE      H6S           -10.8742509944      -49.6873698692       11.7592528326  MEMB      142             0.0000000000
     17758       142  PMPE      C27           -10.8638097234      -48.0630400830       10.3214942938  MEMB      142             0.0000000000
     17759       142  PMPE      H7R           -11.3186006138      -47.0551207063       10.4291262954  MEMB      142             0.0000000000
     17760       142  PMPE      H7S           -11.4053130991      -48.6373533096        9.5396633154  MEMB      142             0.0000000000
     17761       142  PMPE      C28            -9.3620836251      -48.0617973187        9.8809762311  MEMB      142             0.0000000000
     17762       142  PMPE      H8R            -9.1699863634      -49.0502967816        9.4116272654  MEMB      142             0.0000000000
     17763       142  PMPE      H8S            -8.6504679452      -47.9676553902       10.7289516746  MEMB      142             0.0000000000
     17764       142  PMPE      C29            -9.0703172844      -46.9712913038        8.8802142310  MEMB      142             0.0000000000
     17765       142  PMPE      H9R            -9.1096682369      -45.8855160030        9.1123015745  MEMB      142             0.0000000000
     17766       142  PMPE      C217           -9.6562743540      -47.3413316183        7.5155118391  MEMB      142             0.0000000000
     17767       142  PMPE      H17R          -10.0974479289      -46.5179413357        6.9675305870  MEMB      142             0.0000000000
     17768       142  PMPE      H17S           -9.9938997965      -48.3602017296        7.3712846602  MEMB      142             0.0000000000
     17769       142  PMPE      C210           -8.1510316672      -47.3128960161        7.6806779675  MEMB      142             0.0000000000
     17770       142  PMPE      H10R           -7.7880275732      -46.4760509949        7.0464542097  MEMB      142             0.0000000000
     17771       142  PMPE      C211           -7.5746577635      -48.7527084637        7.5731442790  MEMB      142             0.0000000000
     17772       142  PMPE      H11R           -8.3709318473      -49.5273042182        7.5895839101  MEMB      142             0.0000000000
     17773       142  PMPE      H11S           -7.0050232845      -49.0855685776        8.4670359909  MEMB      142             0.0000000000
     17774       142  PMPE      C212           -6.7076272373      -48.9749163460        6.3172985206  MEMB      142             0.0000000000
     17775       142  PMPE      H12R           -6.3449445815      -50.0032293946        6.5302664057  MEMB      142             0.0000000000
     17776       142  PMPE      H12S           -5.8121485197      -48.3175414610        6.3345339965  MEMB      142             0.0000000000
     17777       142  PMPE      C213           -7.5393492592      -48.9510779959        5.0636528483  MEMB      142             0.0000000000
     17778       142  PMPE      H13R           -7.9921442812      -47.9580472066        4.8558360989  MEMB      142             0.0000000000
     17779       142  PMPE      H13S           -8.3763458795      -49.6636205931        5.2250234857  MEMB      142             0.0000000000
     17780       142  PMPE      C214           -6.7925067832      -49.3077899544        3.7857728311  MEMB      142             0.0000000000
     17781       142  PMPE      H14R           -6.3320524076      -50.3143141718        3.8817511236  MEMB      142             0.0000000000
     17782       142  PMPE      H14S           -5.8797849863      -48.6751438664        3.7538545498  MEMB      142             0.0000000000
     17783       142  PMPE      C215           -7.7998903842      -49.1941657424        2.6314161865  MEMB      142             0.0000000000
     17784       142  PMPE      H15R           -7.3597354716      -49.5626409512        1.6802005902  MEMB      142             0.0000000000
     17785       142  PMPE      H15S           -8.0094287365      -48.1131885068        2.4834193180  MEMB      142             0.0000000000
     17786       142  PMPE      C216           -9.2555564885      -49.6817818676        2.8522694451  MEMB      142             0.0000000000
     17787       142  PMPE      H16R           -9.2905610812      -50.7859845262        2.9698788831  MEMB      142             0.0000000000
     17788       142  PMPE      H16S           -9.6557290217      -49.1764830217        3.7571751370  MEMB      142             0.0000000000
     17789       142  PMPE      H16T           -9.8873279450      -49.2430585799        2.0505771318  MEMB      142             0.0000000000
     17790       142  PMPE      C33            -5.7684545976      -53.2852064152       14.3565998142  MEMB      142             0.0000000000
     17791       142  PMPE      H3X            -6.6985822708      -53.1893534315       13.7566032930  MEMB      142             0.0000000000
     17792       142  PMPE      H3Y            -6.0321953643      -53.3090006124       15.4355788504  MEMB      142             0.0000000000
     17793       142  PMPE      C34            -5.0285476027      -54.5681655341       13.9793923059  MEMB      142             0.0000000000
     17794       142  PMPE      H4X            -5.7151237406      -55.4307442812       14.1168403165  MEMB      142             0.0000000000
     17795       142  PMPE      H4Y            -4.1641632596      -54.7349266139       14.6571465955  MEMB      142             0.0000000000
     17796       142  PMPE      C35            -4.5716079563      -54.6749247799       12.4936907010  MEMB      142             0.0000000000
     17797       142  PMPE      H5X            -4.1949143632      -55.7140076078       12.3808634192  MEMB      142             0.0000000000
     17798       142  PMPE      H5Y            -3.8700362778      -53.8499988128       12.2454657734  MEMB      142             0.0000000000
     17799       142  PMPE      C36            -5.7240762621      -54.6473118819       11.5328990325  MEMB      142             0.0000000000
     17800       142  PMPE      H6X            -6.3906532519      -53.7705289511       11.6786659524  MEMB      142             0.0000000000
     17801       142  PMPE      H6Y            -6.2656165957      -55.5981589215       11.7251095096  MEMB      142             0.0000000000
     17802       142  PMPE      C37            -5.3903489312      -54.5467102269       10.0257554261  MEMB      142             0.0000000000
     17803       142  PMPE      H7X            -4.8578633710      -55.5135655853        9.8993798326  MEMB      142             0.0000000000
     17804       142  PMPE      H7Y            -4.6186267631      -53.7760208052        9.8140852497  MEMB      142             0.0000000000
     17805       142  PMPE      C38            -6.5590647171      -54.4120089263        9.0329876978  MEMB      142             0.0000000000
     17806       142  PMPE      H8X            -7.4260265594      -54.9263230907        9.5000842077  MEMB      142             0.0000000000
     17807       142  PMPE      H8Y            -6.3706136562      -54.9913752555        8.1039333750  MEMB      142             0.0000000000
     17808       142  PMPE      C39            -6.9573525287      -53.0062703521        8.6329526420  MEMB      142             0.0000000000
     17809       142  PMPE      H9X            -6.0897270107      -52.4616879950        8.2028632131  MEMB      142             0.0000000000
     17810       142  PMPE      H9Y            -7.3056131636      -52.4765592217        9.5453353807  MEMB      142             0.0000000000
     17811       142  PMPE      C310           -8.0373462712      -52.9597384418        7.5565331395  MEMB      142             0.0000000000
     17812       142  PMPE      H10X           -7.9565933784      -53.7915397596        6.8244766596  MEMB      142             0.0000000000
     17813       142  PMPE      H10Y           -7.9104800388      -52.0187495509        6.9796744167  MEMB      142             0.0000000000
     17814       142  PMPE      C311           -9.4713469270      -52.9175740193        8.0651146901  MEMB      142             0.0000000000
     17815       142  PMPE      H11X           -9.6579919810      -51.8674631294        8.3761641829  MEMB      142             0.0000000000
     17816       142  PMPE      H11Y           -9.6229600045      -53.5218283859        8.9850121312  MEMB      142             0.0000000000
     17817       142  PMPE      C312          -10.5877946696      -53.3028002667        7.1435237226  MEMB      142             0.0000000000
     17818       142  PMPE      H12X          -11.3847179988      -52.5745539866        7.4059964034  MEMB      142             0.0000000000
     17819       142  PMPE      H12Y          -11.0066358063      -54.3041213897        7.3806926166  MEMB      142             0.0000000000
     17820       142  PMPE      C313          -10.3338106528      -53.0155536575        5.6151848210  MEMB      142             0.0000000000
     17821       142  PMPE      H13X           -9.4692598424      -53.5987299974        5.2320684591  MEMB      142             0.0000000000
     17822       142  PMPE      H13Y          -10.1454230734      -51.9354885543        5.4354897397  MEMB      142             0.0000000000
     17823       142  PMPE      C314          -11.6188016058      -53.4929027066        4.8720514239  MEMB      142             0.0000000000
     17824       142  PMPE      H14X          -12.5232340234      -53.0351049259        5.3267434193  MEMB      142             0.0000000000
     17825       142  PMPE      H14Y          -11.7465496824      -54.5921079852        4.7733117686  MEMB      142             0.0000000000
     17826       142  PMPE      C315          -11.5895044505      -52.9624794963        3.4222653253  MEMB      142             0.0000000000
     17827       142  PMPE      H15X          -10.6650864487      -53.2493293614        2.8768406556  MEMB      142             0.0000000000
     17828       142  PMPE      H15Y          -11.5617709638      -51.8620367552        3.5725237624  MEMB      142             0.0000000000
     17829       142  PMPE      C316          -12.7305299605      -53.2861100410        2.4917515532  MEMB      142             0.0000000000
     17830       142  PMPE      H16X          -13.6134876812      -52.8819607010        3.0315383369  MEMB      142             0.0000000000
     17831       142  PMPE      H16Y          -12.9720121609      -54.3613874781        2.3510882932  MEMB      142             0.0000000000
     17832       142  PMPE      H16Z          -12.7055274836      -52.7367390728        1.5264081869  MEMB      142             0.0000000000
     17833       143  OYPE      N             -11.1797457862       50.4668213514       20.5013572709  MEMB      143             0.0000000000
     17834       143  OYPE      HN1           -10.5875054653       49.6661945483       20.8011036883  MEMB      143             0.0000000000
     17835       143  OYPE      HN2           -10.5837829726       51.2255355940       20.1130518142  MEMB      143             0.0000000000
     17836       143  OYPE      HN3           -11.5909395994       50.7768882612       21.4048936856  MEMB      143             0.0000000000
     17837       143  OYPE      C12           -12.1968319004       50.0188904998       19.4758203910  MEMB      143             0.0000000000
     17838       143  OYPE      H12A          -13.1561701607       49.9876381150       20.0352971136  MEMB      143             0.0000000000
     17839       143  OYPE      H12B          -11.8927427671       48.9962568453       19.1658666475  MEMB      143             0.0000000000
     17840       143  OYPE      C11           -12.1688615314       50.9515880051       18.2721549844  MEMB      143             0.0000000000
     17841       143  OYPE      H11A          -12.6966289994       50.4309638775       17.4446690448  MEMB      143             0.0000000000
     17842       143  OYPE      H11B          -11.1558042088       51.1825359975       17.8788372439  MEMB      143             0.0000000000
     17843       143  OYPE      P             -12.0843477314       53.5554739189       18.7864757511  MEMB      143             0.0000000000
     17844       143  OYPE      O13           -10.6767542810       53.4423643393       18.4205900156  MEMB      143             0.0000000000
     17845       143  OYPE      O14           -12.3405444484       53.9839331908       20.1840941966  MEMB      143             0.0000000000
     17846       143  OYPE      O11           -12.8804148211       54.5274797420       17.7988018013  MEMB      143             0.0000000000
     17847       143  OYPE      O12           -12.9099650735       52.1478553499       18.5607055914  MEMB      143             0.0000000000
     17848       143  OYPE      C1            -14.2404334365       54.2853019377       17.3888604266  MEMB      143             0.0000000000
     17849       143  OYPE      HA            -14.9797106911       54.9777189875       17.8453128715  MEMB      143             0.0000000000
     17850       143  OYPE      HB            -14.6233953347       53.2744339795       17.6453895465  MEMB      143             0.0000000000
     17851       143  OYPE      C2            -14.1430271460       54.3208520541       15.8385325701  MEMB      143             0.0000000000
     17852       143  OYPE      HS            -13.3605062564       53.6087503661       15.4995737763  MEMB      143             0.0000000000
     17853       143  OYPE      O21           -13.8079592468       55.6161070195       15.3995009015  MEMB      143             0.0000000000
     17854       143  OYPE      C21           -12.7296774123       55.8139686780       14.7033807309  MEMB      143             0.0000000000
     17855       143  OYPE      O22           -11.9113576022       54.9500575772       14.4470486263  MEMB      143             0.0000000000
     17856       143  OYPE      C22           -12.7419006409       57.2252468312       14.0847073721  MEMB      143             0.0000000000
     17857       143  OYPE      H2R           -11.6871479118       57.5728804526       14.1158283362  MEMB      143             0.0000000000
     17858       143  OYPE      H2S           -13.2018699545       57.9812835116       14.7563900457  MEMB      143             0.0000000000
     17859       143  OYPE      C3            -15.5315478081       53.9473154153       15.2856266522  MEMB      143             0.0000000000
     17860       143  OYPE      HX            -16.1064288115       54.8971004902       15.3273587061  MEMB      143             0.0000000000
     17861       143  OYPE      HY            -16.1496234425       53.2764847364       15.9198897586  MEMB      143             0.0000000000
     17862       143  OYPE      O31           -15.4056873319       53.5249633698       13.9164990148  MEMB      143             0.0000000000
     17863       143  OYPE      C31           -15.0695770713       52.2352872733       13.7881235988  MEMB      143             0.0000000000
     17864       143  OYPE      O32           -14.7987655541       51.5492327586       14.7470748877  MEMB      143             0.0000000000
     17865       143  OYPE      C32           -15.1392517261       51.8061624361       12.2948679365  MEMB      143             0.0000000000
     17866       143  OYPE      H2X           -16.1120456101       51.3071033831       12.0975524599  MEMB      143             0.0000000000
     17867       143  OYPE      H2Y           -15.0207517102       52.6886898094       11.6304705087  MEMB      143             0.0000000000
     17868       143  OYPE      C23           -13.5609752250       57.2754439784       12.7319510648  MEMB      143             0.0000000000
     17869       143  OYPE      H3R           -13.6830242843       58.2891556495       12.2939863520  MEMB      143             0.0000000000
     17870       143  OYPE      H3S           -14.5371152768       56.8732234042       13.0779137905  MEMB      143             0.0000000000
     17871       143  OYPE      C24           -13.1076728239       56.3516548941       11.5688085393  MEMB      143             0.0000000000
     17872       143  OYPE      H4R           -12.9890812647       55.3162552425       11.9537820330  MEMB      143             0.0000000000
     17873       143  OYPE      H4S           -12.0777070025       56.6030225843       11.2366857135  MEMB      143             0.0000000000
     17874       143  OYPE      C25           -14.0093256275       56.2624049959       10.3136992468  MEMB      143             0.0000000000
     17875       143  OYPE      H5R           -14.2609747783       57.2740296016        9.9294994844  MEMB      143             0.0000000000
     17876       143  OYPE      H5S           -14.9846558267       55.7681089863       10.5104819805  MEMB      143             0.0000000000
     17877       143  OYPE      C26           -13.4570406712       55.3410340712        9.2615052481  MEMB      143             0.0000000000
     17878       143  OYPE      H6R           -13.5024908192       54.2711129830        9.5573509663  MEMB      143             0.0000000000
     17879       143  OYPE      H6S           -12.3723682359       55.5800757888        9.2873102250  MEMB      143             0.0000000000
     17880       143  OYPE      C27           -14.1422677673       55.5178919528        7.8644625209  MEMB      143             0.0000000000
     17881       143  OYPE      H7R           -13.4226500018       55.2103213736        7.0758746567  MEMB      143             0.0000000000
     17882       143  OYPE      H7S           -14.3683558625       56.6005784590        7.7596050889  MEMB      143             0.0000000000
     17883       143  OYPE      C28           -15.4480444863       54.8593654677        7.7570300448  MEMB      143             0.0000000000
     17884       143  OYPE      H8R           -15.9470307823       55.1162466342        6.7982042710  MEMB      143             0.0000000000
     17885       143  OYPE      H8S           -16.1450979498       55.3098672229        8.4955996353  MEMB      143             0.0000000000
     17886       143  OYPE      C29           -15.6532774839       53.3617102298        7.9896131039  MEMB      143             0.0000000000
     17887       143  OYPE      H9R           -15.4687972718       52.9811370084        9.0050594597  MEMB      143             0.0000000000
     17888       143  OYPE      C210          -15.9006277124       52.4250853662        7.0144519070  MEMB      143             0.0000000000
     17889       143  OYPE      H10R          -15.9636015780       51.3872655745        7.3735679757  MEMB      143             0.0000000000
     17890       143  OYPE      C211          -16.0396161596       52.7223938083        5.5062094204  MEMB      143             0.0000000000
     17891       143  OYPE      H11R          -16.2553192277       53.7750553909        5.2239029849  MEMB      143             0.0000000000
     17892       143  OYPE      H11S          -16.9552878750       52.2290521824        5.1157231864  MEMB      143             0.0000000000
     17893       143  OYPE      C212          -14.7662601053       52.2898136744        4.6198644323  MEMB      143             0.0000000000
     17894       143  OYPE      H12R          -13.8053043387       52.7808729562        4.8839590298  MEMB      143             0.0000000000
     17895       143  OYPE      H12S          -15.0738349342       52.7269980618        3.6459091076  MEMB      143             0.0000000000
     17896       143  OYPE      C213          -14.5076539406       50.7622625556        4.5400694660  MEMB      143             0.0000000000
     17897       143  OYPE      H13R          -15.3821924636       50.1645530411        4.2050357947  MEMB      143             0.0000000000
     17898       143  OYPE      H13S          -14.1976741661       50.4029659130        5.5446283945  MEMB      143             0.0000000000
     17899       143  OYPE      C214          -13.3984149122       50.2508501265        3.6105661267  MEMB      143             0.0000000000
     17900       143  OYPE      H14R          -13.2343829656       49.1827527545        3.8686012994  MEMB      143             0.0000000000
     17901       143  OYPE      H14S          -12.4099821952       50.7204451368        3.8024051024  MEMB      143             0.0000000000
     17902       143  OYPE      C215          -13.6438246801       50.5650765296        2.0836560720  MEMB      143             0.0000000000
     17903       143  OYPE      H15R          -14.0845820821       51.5763709473        1.9519856683  MEMB      143             0.0000000000
     17904       143  OYPE      H15S          -14.5087501768       49.9191942423        1.8208616195  MEMB      143             0.0000000000
     17905       143  OYPE      C216          -12.4510559809       50.3551859489        1.1595264720  MEMB      143             0.0000000000
     17906       143  OYPE      H16R          -11.6224741374       51.0921742647        1.2275055615  MEMB      143             0.0000000000
     17907       143  OYPE      H16S          -12.8275515908       50.4100622033        0.1157061663  MEMB      143             0.0000000000
     17908       143  OYPE      H16T          -12.0702065039       49.3267936913        1.3375237632  MEMB      143             0.0000000000
     17909       143  OYPE      C33           -13.9225089405       50.8387002813       12.1811674311  MEMB      143             0.0000000000
     17910       143  OYPE      H3X           -13.9974677578       50.0622010681       12.9722118744  MEMB      143             0.0000000000
     17911       143  OYPE      H3Y           -12.9511344639       51.3238604117       12.4164808456  MEMB      143             0.0000000000
     17912       143  OYPE      C34           -13.8477379101       50.1662353068       10.8852776770  MEMB      143             0.0000000000
     17913       143  OYPE      H4X           -13.3401516341       49.2040978577       11.1110404184  MEMB      143             0.0000000000
     17914       143  OYPE      H4Y           -14.7901925047       49.9588192585       10.3347518345  MEMB      143             0.0000000000
     17915       143  OYPE      C35           -12.9067220955       50.8348337703        9.8722327167  MEMB      143             0.0000000000
     17916       143  OYPE      H5X           -11.8533545059       50.8434895026       10.2253089359  MEMB      143             0.0000000000
     17917       143  OYPE      H5Y           -13.1101825871       51.9257487956        9.8190411144  MEMB      143             0.0000000000
     17918       143  OYPE      C36           -12.8905610160       50.1924120604        8.4602853549  MEMB      143             0.0000000000
     17919       143  OYPE      H6X           -13.0549526361       49.0995871144        8.5744353705  MEMB      143             0.0000000000
     17920       143  OYPE      H6Y           -13.7993429745       50.4901356722        7.8947793267  MEMB      143             0.0000000000
     17921       143  OYPE      C37           -11.5560082585       50.3629198379        7.7759677044  MEMB      143             0.0000000000
     17922       143  OYPE      H7X           -10.7349262086       50.0265041358        8.4445265613  MEMB      143             0.0000000000
     17923       143  OYPE      H7Y           -11.4796921349       49.9161754009        6.7616125970  MEMB      143             0.0000000000
     17924       143  OYPE      C38           -11.2866037058       51.8798688925        7.4267785396  MEMB      143             0.0000000000
     17925       143  OYPE      H8X           -12.0997472782       52.2970363306        6.7950422176  MEMB      143             0.0000000000
     17926       143  OYPE      H8Y           -11.4940347257       52.4663249913        8.3473014725  MEMB      143             0.0000000000
     17927       143  OYPE      C39            -9.8466413465       52.2114685788        7.1398843824  MEMB      143             0.0000000000
     17928       143  OYPE      H9X            -9.0918134521       51.5641596267        7.6102309491  MEMB      143             0.0000000000
     17929       143  OYPE      C310           -9.3822773102       53.1557907380        6.3212431034  MEMB      143             0.0000000000
     17930       143  OYPE      H10X           -8.2991263364       53.3407179425        6.3720989342  MEMB      143             0.0000000000
     17931       143  OYPE      C311          -10.1484022306       54.1758431969        5.4843012626  MEMB      143             0.0000000000
     17932       143  OYPE      H11X          -11.2193712263       54.1785349515        5.7798328021  MEMB      143             0.0000000000
     17933       143  OYPE      H11Y           -9.7668173640       55.2018359538        5.6741780385  MEMB      143             0.0000000000
     17934       143  OYPE      C312          -10.1086769954       53.8306433163        3.9799746945  MEMB      143             0.0000000000
     17935       143  OYPE      H12X          -10.6029110899       54.7190969403        3.5319747769  MEMB      143             0.0000000000
     17936       143  OYPE      H12Y          -10.8652507839       53.0381847191        3.7957832867  MEMB      143             0.0000000000
     17937       143  OYPE      C313           -8.8188014800       53.2749014606        3.3898382704  MEMB      143             0.0000000000
     17938       143  OYPE      H13X           -8.0738015872       54.0978041205        3.4359590532  MEMB      143             0.0000000000
     17939       143  OYPE      H13Y           -8.4135358704       52.4555387243        4.0212850718  MEMB      143             0.0000000000
     17940       143  OYPE      C314           -8.8738879943       52.6850053897        1.9830423232  MEMB      143             0.0000000000
     17941       143  OYPE      H14X           -9.2880085778       51.6613232482        2.1051084616  MEMB      143             0.0000000000
     17942       143  OYPE      H14Y           -7.8878150632       52.5872995017        1.4806127146  MEMB      143             0.0000000000
     17943       143  OYPE      C315           -9.6592113312       53.5942753505        1.0988309970  MEMB      143             0.0000000000
     17944       143  OYPE      H15X           -9.1297716381       54.5439453147        0.8704863133  MEMB      143             0.0000000000
     17945       143  OYPE      H15Y          -10.5689216226       53.9097953574        1.6530829150  MEMB      143             0.0000000000
     17946       143  OYPE      C316           -9.9790708888       52.9876620159       -0.2943718043  MEMB      143             0.0000000000
     17947       143  OYPE      H16X          -10.4103312301       51.9667833228       -0.2160004316  MEMB      143             0.0000000000
     17948       143  OYPE      H16Y           -9.0949744743       52.8444012976       -0.9517684305  MEMB      143             0.0000000000
     17949       143  OYPE      C317          -10.9554482347       53.8420942336       -1.1163038560  MEMB      143             0.0000000000
     17950       143  OYPE      H17X          -11.0047803085       53.5373013612       -2.1835375984  MEMB      143             0.0000000000
     17951       143  OYPE      H17Y          -10.5672247738       54.8828478456       -1.0954350646  MEMB      143             0.0000000000
     17952       143  OYPE      C318          -12.4747339010       53.9906218779       -0.7465586587  MEMB      143             0.0000000000
     17953       143  OYPE      H18X          -12.7298759040       54.3408941766        0.2764433711  MEMB      143             0.0000000000
     17954       143  OYPE      H18Y          -12.8928350604       54.7261946660       -1.4665911438  MEMB      143             0.0000000000
     17955       143  OYPE      H18Z          -12.8967773707       52.9773874831       -0.9184793000  MEMB      143             0.0000000000
     17956       144  POPE      N               1.1637900916      -52.2993159530       21.8448426862  MEMB      144             0.0000000000
     17957       144  POPE      HN1             0.7913813378      -51.7671499339       21.0326166486  MEMB      144             0.0000000000
     17958       144  POPE      HN2             0.4451959365      -52.5905378669       22.5379603141  MEMB      144             0.0000000000
     17959       144  POPE      HN3             2.0127316044      -51.8361130427       22.2273884545  MEMB      144             0.0000000000
     17960       144  POPE      C12             1.5139877322      -53.5437068045       21.0050993597  MEMB      144             0.0000000000
     17961       144  POPE      H12A            0.5380523515      -54.0725474658       20.9582081350  MEMB      144             0.0000000000
     17962       144  POPE      H12B            2.3059726260      -54.0434192359       21.6029022761  MEMB      144             0.0000000000
     17963       144  POPE      C11             1.9878217201      -53.2819654881       19.5159565038  MEMB      144             0.0000000000
     17964       144  POPE      H11A            2.6567490645      -54.0262261884       19.0333248893  MEMB      144             0.0000000000
     17965       144  POPE      H11B            2.5710641690      -52.3395035426       19.4390492406  MEMB      144             0.0000000000
     17966       144  POPE      P               0.3122505533      -54.3601705365       17.9342965847  MEMB      144             0.0000000000
     17967       144  POPE      O13            -0.1509251495      -55.3160216120       18.9358046987  MEMB      144             0.0000000000
     17968       144  POPE      O14             1.3309803421      -54.9144051583       17.0014882262  MEMB      144             0.0000000000
     17969       144  POPE      O11            -0.8964880193      -53.7340974809       17.1199717665  MEMB      144             0.0000000000
     17970       144  POPE      O12             0.9098601767      -53.1692121626       18.6425401726  MEMB      144             0.0000000000
     17971       144  POPE      C1             -1.9532472494      -53.2106866276       17.9175077776  MEMB      144             0.0000000000
     17972       144  POPE      HA             -1.7494795459      -52.8641585159       18.9532287969  MEMB      144             0.0000000000
     17973       144  POPE      HB             -2.7057350003      -54.0001529089       18.1292291048  MEMB      144             0.0000000000
     17974       144  POPE      C2             -2.7512812733      -52.0629424809       17.2127256039  MEMB      144             0.0000000000
     17975       144  POPE      HS             -3.7431191768      -51.7658484336       17.6156074841  MEMB      144             0.0000000000
     17976       144  POPE      O21            -2.7727080789      -52.2460919587       15.7955951889  MEMB      144             0.0000000000
     17977       144  POPE      C21            -3.4283557300      -53.2620498715       15.3202861457  MEMB      144             0.0000000000
     17978       144  POPE      O22            -4.2616054594      -53.9022585591       15.9419462615  MEMB      144             0.0000000000
     17979       144  POPE      C22            -3.0091854892      -53.6469953442       13.9098738991  MEMB      144             0.0000000000
     17980       144  POPE      H2R            -3.1209288727      -52.8057839885       13.1927977479  MEMB      144             0.0000000000
     17981       144  POPE      H2S            -3.6487766494      -54.4839465628       13.5566644206  MEMB      144             0.0000000000
     17982       144  POPE      C3             -2.0363652297      -50.7579719046       17.4979731678  MEMB      144             0.0000000000
     17983       144  POPE      HX             -2.1101724837      -50.4059698774       18.5491478199  MEMB      144             0.0000000000
     17984       144  POPE      HY             -2.4297445547      -49.8961529193       16.9175923723  MEMB      144             0.0000000000
     17985       144  POPE      O31            -0.6581020410      -50.8824258285       17.2470868136  MEMB      144             0.0000000000
     17986       144  POPE      C31            -0.1722726112      -50.1112900113       16.3226526506  MEMB      144             0.0000000000
     17987       144  POPE      O32            -0.6950878406      -49.2678579655       15.5954636428  MEMB      144             0.0000000000
     17988       144  POPE      C32             1.3560980048      -50.3896312484       16.1835462766  MEMB      144             0.0000000000
     17989       144  POPE      H2X             1.6139442465      -51.4696425498       16.1459751063  MEMB      144             0.0000000000
     17990       144  POPE      H2Y             1.9031101725      -49.9471378360       17.0433709279  MEMB      144             0.0000000000
     17991       144  POPE      C23            -1.5124991543      -54.1160063855       13.8459495357  MEMB      144             0.0000000000
     17992       144  POPE      H3R            -1.3495651095      -55.1648750331       14.1740466562  MEMB      144             0.0000000000
     17993       144  POPE      H3S            -0.9945886626      -53.5772653434       14.6680492931  MEMB      144             0.0000000000
     17994       144  POPE      C24            -0.8573296366      -53.7296234265       12.4923396292  MEMB      144             0.0000000000
     17995       144  POPE      H4R             0.1407342922      -54.2021932212       12.3704088509  MEMB      144             0.0000000000
     17996       144  POPE      H4S            -0.8029753767      -52.6204608800       12.5258822955  MEMB      144             0.0000000000
     17997       144  POPE      C25            -1.5806454003      -54.2112213371       11.2609202448  MEMB      144             0.0000000000
     17998       144  POPE      H5R            -2.5964699928      -53.7915707523       11.0987027006  MEMB      144             0.0000000000
     17999       144  POPE      H5S            -1.6628690235      -55.3191659782       11.2565832858  MEMB      144             0.0000000000
     18000       144  POPE      C26            -0.7275104969      -53.7488233351       10.0178356504  MEMB      144             0.0000000000
     18001       144  POPE      H6R             0.3358953100      -53.8767737333       10.3129928349  MEMB      144             0.0000000000
     18002       144  POPE      H6S            -0.9275591948      -52.6618625442        9.9046207546  MEMB      144             0.0000000000
     18003       144  POPE      C27            -1.0404961632      -54.5473603737        8.7290011071  MEMB      144             0.0000000000
     18004       144  POPE      H7R            -2.1236167124      -54.4298968228        8.5113479946  MEMB      144             0.0000000000
     18005       144  POPE      H7S            -0.9111074856      -55.6448462655        8.8434753052  MEMB      144             0.0000000000
     18006       144  POPE      C28            -0.1306282355      -54.1655354805        7.5016028723  MEMB      144             0.0000000000
     18007       144  POPE      H8R            -0.5600595728      -54.6818387352        6.6165371926  MEMB      144             0.0000000000
     18008       144  POPE      H8S             0.8925802336      -54.4838655185        7.7949138094  MEMB      144             0.0000000000
     18009       144  POPE      C29            -0.0610257161      -52.7086426985        7.2954795238  MEMB      144             0.0000000000
     18010       144  POPE      H91             0.4438010894      -52.1639260106        8.1069189384  MEMB      144             0.0000000000
     18011       144  POPE      C210           -0.5931222422      -51.9920763308        6.2579025047  MEMB      144             0.0000000000
     18012       144  POPE      H101           -0.4468195772      -50.9018790410        6.2498333844  MEMB      144             0.0000000000
     18013       144  POPE      C211           -1.3287867366      -52.6849096682        5.1301769127  MEMB      144             0.0000000000
     18014       144  POPE      H11R           -1.8199224172      -51.7982359967        4.6752960413  MEMB      144             0.0000000000
     18015       144  POPE      H11S           -2.0870877185      -53.3988079366        5.5170226760  MEMB      144             0.0000000000
     18016       144  POPE      C212           -0.4259379990      -53.3682874596        4.1633146522  MEMB      144             0.0000000000
     18017       144  POPE      H12R           -0.0969178354      -54.3368685988        4.5968090635  MEMB      144             0.0000000000
     18018       144  POPE      H12S            0.4128207876      -52.6718659101        3.9493009710  MEMB      144             0.0000000000
     18019       144  POPE      C213           -0.9924223475      -53.6746486872        2.7896375294  MEMB      144             0.0000000000
     18020       144  POPE      H13R           -1.3792304048      -52.7474232399        2.3153449428  MEMB      144             0.0000000000
     18021       144  POPE      H13S           -1.8894841549      -54.2986776276        2.9901096167  MEMB      144             0.0000000000
     18022       144  POPE      C214           -0.0543538603      -54.3142449592        1.8719950107  MEMB      144             0.0000000000
     18023       144  POPE      H14R            0.3639188790      -55.2809878485        2.2252335192  MEMB      144             0.0000000000
     18024       144  POPE      H14S            0.9510587496      -53.8426647109        1.9048384271  MEMB      144             0.0000000000
     18025       144  POPE      C215           -0.5535051339      -54.3754247401        0.4343916011  MEMB      144             0.0000000000
     18026       144  POPE      H15R            0.4092855018      -54.2313472395       -0.1009573607  MEMB      144             0.0000000000
     18027       144  POPE      H15S           -1.3052057324      -53.5931168615        0.1950974435  MEMB      144             0.0000000000
     18028       144  POPE      C216           -1.1741752443      -55.7102919354       -0.0181669792  MEMB      144             0.0000000000
     18029       144  POPE      H16R           -1.2168301351      -55.7398099045       -1.1279549001  MEMB      144             0.0000000000
     18030       144  POPE      H16S           -2.1691585228      -56.0046950888        0.3788935679  MEMB      144             0.0000000000
     18031       144  POPE      C217           -0.3813122206      -56.9156917063        0.3692819159  MEMB      144             0.0000000000
     18032       144  POPE      H17R           -0.6073040261      -57.7237253287       -0.3589555119  MEMB      144             0.0000000000
     18033       144  POPE      H17S           -0.6268877348      -57.2405154867        1.4029664520  MEMB      144             0.0000000000
     18034       144  POPE      C218            1.1752969893      -56.9418971412        0.1230245098  MEMB      144             0.0000000000
     18035       144  POPE      H18R            1.4065751182      -56.5589043328       -0.8939061860  MEMB      144             0.0000000000
     18036       144  POPE      H18S            1.5159825233      -57.9959915217        0.2075197963  MEMB      144             0.0000000000
     18037       144  POPE      H18T            1.6977729120      -56.2367733609        0.8043028135  MEMB      144             0.0000000000
     18038       144  POPE      C33             1.9410181630      -49.6724880003       14.9508726589  MEMB      144             0.0000000000
     18039       144  POPE      H3X             3.0448901022      -49.7943501543       14.9202466946  MEMB      144             0.0000000000
     18040       144  POPE      H3Y             1.8363869406      -48.5669828886       14.9157740499  MEMB      144             0.0000000000
     18041       144  POPE      C34             1.5962031135      -50.3091132825       13.6243996366  MEMB      144             0.0000000000
     18042       144  POPE      H4X             0.5542090866      -49.9921837230       13.4050253767  MEMB      144             0.0000000000
     18043       144  POPE      H4Y             1.7671505156      -51.3665602050       13.9191947725  MEMB      144             0.0000000000
     18044       144  POPE      C35             2.3521257967      -49.8770564325       12.3988851669  MEMB      144             0.0000000000
     18045       144  POPE      H5X             3.3524155168      -50.3326284312       12.5607361427  MEMB      144             0.0000000000
     18046       144  POPE      H5Y             2.2762312466      -48.7837313126       12.2166727500  MEMB      144             0.0000000000
     18047       144  POPE      C36             1.7852102817      -50.5742063388       11.1975796797  MEMB      144             0.0000000000
     18048       144  POPE      H6X             0.7144410383      -50.2971975408       11.3026528528  MEMB      144             0.0000000000
     18049       144  POPE      H6Y             1.8593567963      -51.6827284847       11.1962488986  MEMB      144             0.0000000000
     18050       144  POPE      C37             2.0787897858      -49.9560773803        9.8089582814  MEMB      144             0.0000000000
     18051       144  POPE      H7X             2.1466580349      -48.8541679583        9.9334988554  MEMB      144             0.0000000000
     18052       144  POPE      H7Y             1.2973066638      -50.2417550495        9.0727562221  MEMB      144             0.0000000000
     18053       144  POPE      C38             3.4915606248      -50.2692055888        9.2461995156  MEMB      144             0.0000000000
     18054       144  POPE      H8X             3.6865399323      -51.3621450893        9.2039247755  MEMB      144             0.0000000000
     18055       144  POPE      H8Y             4.2306887555      -49.8877408734        9.9827428389  MEMB      144             0.0000000000
     18056       144  POPE      C39             3.8234063592      -49.5160753197        7.9284317647  MEMB      144             0.0000000000
     18057       144  POPE      H9X             4.9332008952      -49.5209530669        7.8769226591  MEMB      144             0.0000000000
     18058       144  POPE      H9Y             3.5186760608      -48.4477971106        7.9439947222  MEMB      144             0.0000000000
     18059       144  POPE      C310            3.2784860651      -50.2192253730        6.7373092544  MEMB      144             0.0000000000
     18060       144  POPE      H10X            3.6647021116      -49.6789123321        5.8466810633  MEMB      144             0.0000000000
     18061       144  POPE      H10Y            2.1708934730      -50.2921881278        6.7845952681  MEMB      144             0.0000000000
     18062       144  POPE      C311            3.8360758207      -51.5800013894        6.5297034028  MEMB      144             0.0000000000
     18063       144  POPE      H11X            3.2792349925      -52.3123706363        7.1525071093  MEMB      144             0.0000000000
     18064       144  POPE      H11Y            4.8108797173      -51.8624252867        6.9817152720  MEMB      144             0.0000000000
     18065       144  POPE      C312            3.8862631002      -51.8772223106        4.9961966125  MEMB      144             0.0000000000
     18066       144  POPE      H12X            4.6342426654      -51.2646636904        4.4488215015  MEMB      144             0.0000000000
     18067       144  POPE      H12Y            2.8695752373      -51.6245717301        4.6262854546  MEMB      144             0.0000000000
     18068       144  POPE      C313            3.9041970031      -53.3292308064        4.6693787095  MEMB      144             0.0000000000
     18069       144  POPE      H13X            3.0732880347      -53.8785613358        5.1614634810  MEMB      144             0.0000000000
     18070       144  POPE      H13Y            4.8398971097      -53.6713964846        5.1610175778  MEMB      144             0.0000000000
     18071       144  POPE      C314            4.0816160347      -53.5763067394        3.1507821392  MEMB      144             0.0000000000
     18072       144  POPE      H14X            3.2102367060      -53.1070040429        2.6460314048  MEMB      144             0.0000000000
     18073       144  POPE      H14Y            4.0266102187      -54.6820627902        3.0580529619  MEMB      144             0.0000000000
     18074       144  POPE      C315            5.4704703965      -53.0709086700        2.5811120294  MEMB      144             0.0000000000
     18075       144  POPE      H15X            6.1629826569      -53.8392946540        2.9864900076  MEMB      144             0.0000000000
     18076       144  POPE      H15Y            5.6044005148      -51.9971107361        2.8327910596  MEMB      144             0.0000000000
     18077       144  POPE      C316            5.5541379078      -53.1860614534        1.0201011909  MEMB      144             0.0000000000
     18078       144  POPE      H16X            4.5981788007      -53.4851142941        0.5394458518  MEMB      144             0.0000000000
     18079       144  POPE      H16Y            6.3323930993      -53.8997602095        0.6747412604  MEMB      144             0.0000000000
     18080       144  POPE      H16Z            5.7252807853      -52.1760171042        0.5901696948  MEMB      144             0.0000000000
     18081       145  PMPG      C13           -55.8926151462       -0.7207429063       20.9382527941  MEMB      145             0.0000000000
     18082       145  PMPG      H13A          -56.7466126502       -1.3036291972       21.3447657239  MEMB      145             0.0000000000
     18083       145  PMPG      H13B          -54.9233757931       -1.1489208023       21.2722584570  MEMB      145             0.0000000000
     18084       145  PMPG      OC3           -56.1746885941        0.5670388109       21.4581179952  MEMB      145             0.0000000000
     18085       145  PMPG      HO3           -57.0198466346        0.8511718790       21.1023426155  MEMB      145             0.0000000000
     18086       145  PMPG      C12           -55.9614858323       -0.8644579288       19.3572643697  MEMB      145             0.0000000000
     18087       145  PMPG      H12A          -56.9990580213       -0.6014513690       19.0457350097  MEMB      145             0.0000000000
     18088       145  PMPG      OC2           -55.7165654719       -2.2187375980       18.9751891354  MEMB      145             0.0000000000
     18089       145  PMPG      HO2           -55.6480322844       -2.1633809497       17.9969480181  MEMB      145             0.0000000000
     18090       145  PMPG      C11           -55.0029935618        0.0709548086       18.6194845449  MEMB      145             0.0000000000
     18091       145  PMPG      H11A          -55.2801892388        1.1155664876       18.8769140340  MEMB      145             0.0000000000
     18092       145  PMPG      H11B          -55.1342021626       -0.1746894548       17.5439547534  MEMB      145             0.0000000000
     18093       145  PMPG      P             -52.4534187672        0.1457072930       18.1176020205  MEMB      145             0.0000000000
     18094       145  PMPG      O13           -52.2208971362       -0.9819754501       17.1890450249  MEMB      145             0.0000000000
     18095       145  PMPG      O14           -51.3190864386        0.4205238680       19.0336105545  MEMB      145             0.0000000000
     18096       145  PMPG      O11           -52.8408210690        1.3989585169       17.2338087941  MEMB      145             0.0000000000
     18097       145  PMPG      O12           -53.6821319816       -0.2087943033       19.0776247404  MEMB      145             0.0000000000
     18098       145  PMPG      C1            -53.0052229994        2.7381138042       17.7973192343  MEMB      145             0.0000000000
     18099       145  PMPG      HA            -52.0511244527        3.2726061320       17.9931126261  MEMB      145             0.0000000000
     18100       145  PMPG      HB            -53.4443755297        2.6838195665       18.8163963903  MEMB      145             0.0000000000
     18101       145  PMPG      C2            -53.8317760709        3.6501460927       16.7904238114  MEMB      145             0.0000000000
     18102       145  PMPG      HS            -53.9795210361        4.6113600211       17.3276019738  MEMB      145             0.0000000000
     18103       145  PMPG      O21           -55.0543910092        2.8967561184       16.3046939317  MEMB      145             0.0000000000
     18104       145  PMPG      C21           -56.0808716472        2.9835714573       17.1429299833  MEMB      145             0.0000000000
     18105       145  PMPG      O22           -56.1242488758        3.4994250568       18.2259249203  MEMB      145             0.0000000000
     18106       145  PMPG      C22           -57.3505562052        2.5641143533       16.3909508003  MEMB      145             0.0000000000
     18107       145  PMPG      H2R           -58.0669772063        2.2720096666       17.1882819833  MEMB      145             0.0000000000
     18108       145  PMPG      H2S           -57.1398521414        1.5918333684       15.8963858579  MEMB      145             0.0000000000
     18109       145  PMPG      C3            -53.0095238525        3.9262816847       15.4589206019  MEMB      145             0.0000000000
     18110       145  PMPG      HX            -52.0382572161        4.4415158572       15.6185956324  MEMB      145             0.0000000000
     18111       145  PMPG      HY            -53.6217450746        4.5322129793       14.7572413270  MEMB      145             0.0000000000
     18112       145  PMPG      O31           -52.6281510149        2.6404972618       14.8623576978  MEMB      145             0.0000000000
     18113       145  PMPG      C31           -53.1233518784        2.2130920873       13.6988031070  MEMB      145             0.0000000000
     18114       145  PMPG      O32           -53.9618392229        2.7600699821       13.0280098850  MEMB      145             0.0000000000
     18115       145  PMPG      C32           -52.4229894450        0.9944668336       13.3219534333  MEMB      145             0.0000000000
     18116       145  PMPG      H2X           -52.2807399248        0.5185556850       14.3157314794  MEMB      145             0.0000000000
     18117       145  PMPG      H2Y           -51.3964047378        1.0907937333       12.9082317861  MEMB      145             0.0000000000
     18118       145  PMPG      C23           -57.8249572127        3.5090164563       15.2953905966  MEMB      145             0.0000000000
     18119       145  PMPG      H3R           -56.9499346319        3.8676346798       14.7122528191  MEMB      145             0.0000000000
     18120       145  PMPG      H3S           -58.2258213163        4.4493552325       15.7305829255  MEMB      145             0.0000000000
     18121       145  PMPG      C24           -58.8577943299        3.0221516987       14.2400593559  MEMB      145             0.0000000000
     18122       145  PMPG      H4R           -58.9289644923        3.8400656654       13.4915459033  MEMB      145             0.0000000000
     18123       145  PMPG      H4S           -59.7888491230        2.9887497454       14.8453216522  MEMB      145             0.0000000000
     18124       145  PMPG      C25           -58.5339238065        1.7184025362       13.5473258462  MEMB      145             0.0000000000
     18125       145  PMPG      H5R           -59.3387540747        1.4900648947       12.8162776440  MEMB      145             0.0000000000
     18126       145  PMPG      H5S           -58.4739029762        0.8116425281       14.1864696660  MEMB      145             0.0000000000
     18127       145  PMPG      C26           -57.1698016068        1.8179125547       12.6874905519  MEMB      145             0.0000000000
     18128       145  PMPG      H6R           -56.7733665684        0.8355150770       12.3527438525  MEMB      145             0.0000000000
     18129       145  PMPG      H6S           -56.3535233618        2.0605740319       13.4010213513  MEMB      145             0.0000000000
     18130       145  PMPG      C27           -57.2883878608        2.7988473264       11.5484316148  MEMB      145             0.0000000000
     18131       145  PMPG      H7R           -56.2911738208        3.0532403257       11.1298987589  MEMB      145             0.0000000000
     18132       145  PMPG      H7S           -57.8287847266        3.7191745703       11.8571221052  MEMB      145             0.0000000000
     18133       145  PMPG      C28           -58.1438893963        2.1901270016       10.3901879165  MEMB      145             0.0000000000
     18134       145  PMPG      H8R           -58.0792200100        2.7615773709        9.4396174628  MEMB      145             0.0000000000
     18135       145  PMPG      H8S           -59.1316202919        2.0444290937       10.8775078650  MEMB      145             0.0000000000
     18136       145  PMPG      C29           -57.6611942715        0.7991010663        9.9790192636  MEMB      145             0.0000000000
     18137       145  PMPG      H9R           -57.8887047455       -0.0641458499       10.6403550101  MEMB      145             0.0000000000
     18138       145  PMPG      C217          -57.8933893410        0.3960636439        8.4921413441  MEMB      145             0.0000000000
     18139       145  PMPG      H17R          -58.2320259764       -0.6272181057        8.3867432011  MEMB      145             0.0000000000
     18140       145  PMPG      H17S          -58.3414457957        1.2248265815        7.9580196577  MEMB      145             0.0000000000
     18141       145  PMPG      C210          -56.4857798881        0.7042177294        9.0803430417  MEMB      145             0.0000000000
     18142       145  PMPG      H10R          -55.8924199664       -0.2330231669        9.1421866084  MEMB      145             0.0000000000
     18143       145  PMPG      C211          -55.8814672867        1.8722173982        8.2124726076  MEMB      145             0.0000000000
     18144       145  PMPG      H11R          -56.6314404074        2.6734338282        8.0395175737  MEMB      145             0.0000000000
     18145       145  PMPG      H11S          -55.0704962211        2.2813521228        8.8522035179  MEMB      145             0.0000000000
     18146       145  PMPG      C212          -55.3393350018        1.3922982382        6.9011889323  MEMB      145             0.0000000000
     18147       145  PMPG      H12R          -56.1307240715        0.8253328311        6.3658627143  MEMB      145             0.0000000000
     18148       145  PMPG      H12S          -54.5019277891        0.6677725217        6.9913712654  MEMB      145             0.0000000000
     18149       145  PMPG      C213          -54.8230421922        2.4622115253        5.9456090692  MEMB      145             0.0000000000
     18150       145  PMPG      H13R          -53.8602277166        2.8960925240        6.2906556637  MEMB      145             0.0000000000
     18151       145  PMPG      H13S          -55.6764980029        3.1683612745        5.8602474866  MEMB      145             0.0000000000
     18152       145  PMPG      C214          -54.4855308060        1.9542193139        4.5409397552  MEMB      145             0.0000000000
     18153       145  PMPG      H14R          -55.4154306782        1.4739097237        4.1682335287  MEMB      145             0.0000000000
     18154       145  PMPG      H14S          -53.7048002301        1.1651649134        4.5875671116  MEMB      145             0.0000000000
     18155       145  PMPG      C215          -54.2776608761        3.1044575425        3.5412134476  MEMB      145             0.0000000000
     18156       145  PMPG      H15R          -53.1947068124        3.3493756187        3.5018936976  MEMB      145             0.0000000000
     18157       145  PMPG      H15S          -54.7990638690        4.0463159503        3.8157346738  MEMB      145             0.0000000000
     18158       145  PMPG      C216          -54.8834395666        2.8585745773        2.0746001204  MEMB      145             0.0000000000
     18159       145  PMPG      H16R          -55.9590692309        3.1363554544        2.0880113154  MEMB      145             0.0000000000
     18160       145  PMPG      H16S          -54.6150040220        1.8285596726        1.7562730805  MEMB      145             0.0000000000
     18161       145  PMPG      H16T          -54.4325418407        3.5244471284        1.3080312039  MEMB      145             0.0000000000
     18162       145  PMPG      C33           -53.3331371833       -0.0297996463       12.6014093632  MEMB      145             0.0000000000
     18163       145  PMPG      H3X           -54.3595021267       -0.0800698441       13.0237468411  MEMB      145             0.0000000000
     18164       145  PMPG      H3Y           -52.7512989500       -0.9475469446       12.8327643607  MEMB      145             0.0000000000
     18165       145  PMPG      C34           -53.3260525450        0.2517859211       11.0755590669  MEMB      145             0.0000000000
     18166       145  PMPG      H4X           -53.8797420607        1.2070880607       10.9524863658  MEMB      145             0.0000000000
     18167       145  PMPG      H4Y           -53.9679825791       -0.5355987825       10.6258124106  MEMB      145             0.0000000000
     18168       145  PMPG      C35           -51.9833832752        0.3150326239       10.3794152806  MEMB      145             0.0000000000
     18169       145  PMPG      H5X           -51.3823112572       -0.6054610927       10.5398038975  MEMB      145             0.0000000000
     18170       145  PMPG      H5Y           -51.3937525949        1.1691387316       10.7758476512  MEMB      145             0.0000000000
     18171       145  PMPG      C36           -52.1602198526        0.6435315089        8.8700508703  MEMB      145             0.0000000000
     18172       145  PMPG      H6X           -51.2900522211        1.2418906421        8.5249485947  MEMB      145             0.0000000000
     18173       145  PMPG      H6Y           -53.0712232686        1.2458013197        8.6659325849  MEMB      145             0.0000000000
     18174       145  PMPG      C37           -52.1012231338       -0.5603611333        7.9147922723  MEMB      145             0.0000000000
     18175       145  PMPG      H7X           -51.1073514244       -1.0459897100        8.0182560171  MEMB      145             0.0000000000
     18176       145  PMPG      H7Y           -52.1649969352       -0.1425849972        6.8873113095  MEMB      145             0.0000000000
     18177       145  PMPG      C38           -53.1275912676       -1.6487312875        8.1542083577  MEMB      145             0.0000000000
     18178       145  PMPG      H8X           -54.1382223361       -1.1992111227        8.2585040417  MEMB      145             0.0000000000
     18179       145  PMPG      H8Y           -52.7596927181       -2.2569629376        9.0080387996  MEMB      145             0.0000000000
     18180       145  PMPG      C39           -53.3191103895       -2.5588730477        6.9306860221  MEMB      145             0.0000000000
     18181       145  PMPG      H9X           -54.1551639289       -3.2451148637        7.1844720950  MEMB      145             0.0000000000
     18182       145  PMPG      H9Y           -52.4207096909       -3.1955579214        6.7829379607  MEMB      145             0.0000000000
     18183       145  PMPG      C310          -53.7657165975       -1.8734821291        5.5450585900  MEMB      145             0.0000000000
     18184       145  PMPG      H10X          -52.7930583995       -1.4656992977        5.1958167312  MEMB      145             0.0000000000
     18185       145  PMPG      H10Y          -54.4403780069       -1.0286819496        5.8009219104  MEMB      145             0.0000000000
     18186       145  PMPG      C311          -54.5047706475       -2.8448710989        4.5636516242  MEMB      145             0.0000000000
     18187       145  PMPG      H11X          -55.0857381912       -3.5267672625        5.2207780112  MEMB      145             0.0000000000
     18188       145  PMPG      H11Y          -53.7839097511       -3.2809896935        3.8394409887  MEMB      145             0.0000000000
     18189       145  PMPG      C312          -55.5180811001       -2.0649278191        3.6027843179  MEMB      145             0.0000000000
     18190       145  PMPG      H12X          -54.9256200349       -1.2603626366        3.1170007894  MEMB      145             0.0000000000
     18191       145  PMPG      H12Y          -56.2804085700       -1.6947149389        4.3211987139  MEMB      145             0.0000000000
     18192       145  PMPG      C313          -56.2452883798       -2.9605528181        2.5772705886  MEMB      145             0.0000000000
     18193       145  PMPG      H13X          -57.0123499560       -2.2371755912        2.2270393666  MEMB      145             0.0000000000
     18194       145  PMPG      H13Y          -56.8932823073       -3.6994068939        3.0954602429  MEMB      145             0.0000000000
     18195       145  PMPG      C314          -55.5120059916       -3.3663692834        1.2635881798  MEMB      145             0.0000000000
     18196       145  PMPG      H14X          -56.0911103514       -4.0583641345        0.6154346993  MEMB      145             0.0000000000
     18197       145  PMPG      H14Y          -54.5194809451       -3.7190157515        1.6169358736  MEMB      145             0.0000000000
     18198       145  PMPG      C315          -55.1231927905       -2.1826593170        0.4208297652  MEMB      145             0.0000000000
     18199       145  PMPG      H15X          -54.7311436001       -1.3552395233        1.0501105648  MEMB      145             0.0000000000
     18200       145  PMPG      H15Y          -56.1139086837       -1.9404010430       -0.0197546476  MEMB      145             0.0000000000
     18201       145  PMPG      C316          -54.0504113861       -2.2931062941       -0.6462976280  MEMB      145             0.0000000000
     18202       145  PMPG      H16X          -53.0068313602       -2.2893791526       -0.2651829584  MEMB      145             0.0000000000
     18203       145  PMPG      H16Y          -54.1210420851       -1.5104862634       -1.4316873536  MEMB      145             0.0000000000
     18204       145  PMPG      H16Z          -54.2065737298       -3.2941775941       -1.1021369437  MEMB      145             0.0000000000
     18205       146  PMPE      N              51.6946511255        8.4152514352       18.4052948058  MEMB      146             0.0000000000
     18206       146  PMPE      HN1            51.5340317698        7.6675665239       17.7004765003  MEMB      146             0.0000000000
     18207       146  PMPE      HN2            51.2195398507        8.1978363149       19.3045167866  MEMB      146             0.0000000000
     18208       146  PMPE      HN3            51.1514617458        9.2333463969       18.0628537220  MEMB      146             0.0000000000
     18209       146  PMPE      C12            53.1349743780        8.5900309932       18.6635778786  MEMB      146             0.0000000000
     18210       146  PMPE      H12A           53.3650119890        8.8847324891       19.7097875540  MEMB      146             0.0000000000
     18211       146  PMPE      H12B           53.3988160622        9.4305814674       17.9866852522  MEMB      146             0.0000000000
     18212       146  PMPE      C11            53.9753208459        7.3985464322       18.3281158341  MEMB      146             0.0000000000
     18213       146  PMPE      H11A           55.0188701047        7.7791022641       18.3505454221  MEMB      146             0.0000000000
     18214       146  PMPE      H11B           53.8245197867        6.9393340143       17.3277639125  MEMB      146             0.0000000000
     18215       146  PMPE      P              53.8921358071        4.9273671814       19.3561878747  MEMB      146             0.0000000000
     18216       146  PMPE      O13            53.4560528877        4.3754131998       20.6158440320  MEMB      146             0.0000000000
     18217       146  PMPE      O14            55.2044098557        4.4056971159       18.8989092059  MEMB      146             0.0000000000
     18218       146  PMPE      O11            52.7847097187        4.6729973118       18.3292413314  MEMB      146             0.0000000000
     18219       146  PMPE      O12            53.8061256180        6.4743331645       19.4028290403  MEMB      146             0.0000000000
     18220       146  PMPE      C1             51.5009606883        4.2336727925       18.7311728269  MEMB      146             0.0000000000
     18221       146  PMPE      HA             51.0187421177        4.9630392228       19.4166004290  MEMB      146             0.0000000000
     18222       146  PMPE      HB             51.7322908884        3.2775386369       19.2475201776  MEMB      146             0.0000000000
     18223       146  PMPE      C2             50.5827446036        3.8346718177       17.5367133187  MEMB      146             0.0000000000
     18224       146  PMPE      HS             49.6336683818        3.3910330855       17.9065242262  MEMB      146             0.0000000000
     18225       146  PMPE      O21            51.2439196993        2.9975077306       16.6518042755  MEMB      146             0.0000000000
     18226       146  PMPE      C21            50.5486396903        2.5180031748       15.6152404113  MEMB      146             0.0000000000
     18227       146  PMPE      O22            49.3423052171        2.4655169978       15.5118854137  MEMB      146             0.0000000000
     18228       146  PMPE      C22            51.5366713883        2.0869092417       14.5036905148  MEMB      146             0.0000000000
     18229       146  PMPE      H2R            51.1422099628        1.2292010164       13.9179786384  MEMB      146             0.0000000000
     18230       146  PMPE      H2S            52.4169331117        1.6352876279       15.0091584384  MEMB      146             0.0000000000
     18231       146  PMPE      C3             50.1750458042        5.1312129619       16.7433350327  MEMB      146             0.0000000000
     18232       146  PMPE      HX             49.8603654021        5.9321701239       17.4460190010  MEMB      146             0.0000000000
     18233       146  PMPE      HY             49.2703043429        4.8991272691       16.1417539996  MEMB      146             0.0000000000
     18234       146  PMPE      O31            51.3187689076        5.5647486738       15.9656149557  MEMB      146             0.0000000000
     18235       146  PMPE      C31            51.0770895768        6.6236781426       15.3082926819  MEMB      146             0.0000000000
     18236       146  PMPE      O32            50.0581371296        7.2823257361       15.2772661130  MEMB      146             0.0000000000
     18237       146  PMPE      C32            52.3676315121        6.8417975085       14.4867905341  MEMB      146             0.0000000000
     18238       146  PMPE      H2X            52.5455552437        6.0244134838       13.7556632679  MEMB      146             0.0000000000
     18239       146  PMPE      H2Y            53.1901675996        6.9072496647       15.2307471666  MEMB      146             0.0000000000
     18240       146  PMPE      C23            51.7575073528        3.3016564613       13.5991235591  MEMB      146             0.0000000000
     18241       146  PMPE      H3R            52.2823667526        4.0395180949       14.2428658616  MEMB      146             0.0000000000
     18242       146  PMPE      H3S            50.8492217392        3.9136869938       13.4126919721  MEMB      146             0.0000000000
     18243       146  PMPE      C24            52.6356840190        3.0255768520       12.3022730339  MEMB      146             0.0000000000
     18244       146  PMPE      H4R            53.5725727144        2.5202585843       12.6204144208  MEMB      146             0.0000000000
     18245       146  PMPE      H4S            52.9023475985        4.0795221216       12.0733387157  MEMB      146             0.0000000000
     18246       146  PMPE      C25            51.8477176184        2.3077183649       11.2124546084  MEMB      146             0.0000000000
     18247       146  PMPE      H5R            50.9049429158        2.8731031847       11.0517162337  MEMB      146             0.0000000000
     18248       146  PMPE      H5S            51.5561377647        1.2528530010       11.4036648529  MEMB      146             0.0000000000
     18249       146  PMPE      C26            52.6314851643        2.2268955608        9.8051462991  MEMB      146             0.0000000000
     18250       146  PMPE      H6R            53.6569639185        1.8346729750        9.9750745270  MEMB      146             0.0000000000
     18251       146  PMPE      H6S            52.8266046770        3.3059420270        9.6265175767  MEMB      146             0.0000000000
     18252       146  PMPE      C27            51.8858248612        1.3871433645        8.7688521342  MEMB      146             0.0000000000
     18253       146  PMPE      H7R            50.8911529083        1.8787149206        8.7113550383  MEMB      146             0.0000000000
     18254       146  PMPE      H7S            51.8198142518        0.3164114893        9.0578100251  MEMB      146             0.0000000000
     18255       146  PMPE      C28            52.5284180490        1.3648467408        7.3902756208  MEMB      146             0.0000000000
     18256       146  PMPE      H8R            52.5392192583        2.3648993122        6.9064375684  MEMB      146             0.0000000000
     18257       146  PMPE      H8S            51.7774668159        0.8771229218        6.7326137706  MEMB      146             0.0000000000
     18258       146  PMPE      C29            53.8062046519        0.4881219394        7.3237294946  MEMB      146             0.0000000000
     18259       146  PMPE      H9R            53.9190829791       -0.4124692873        7.9644435679  MEMB      146             0.0000000000
     18260       146  PMPE      C217           55.0758872623        1.3694176096        7.5616485760  MEMB      146             0.0000000000
     18261       146  PMPE      H17R           55.9157376318        0.8864560856        8.0456824490  MEMB      146             0.0000000000
     18262       146  PMPE      H17S           54.7576488322        2.3934784539        7.4102788731  MEMB      146             0.0000000000
     18263       146  PMPE      C210           54.8045243385        0.6048783336        6.2049310355  MEMB      146             0.0000000000
     18264       146  PMPE      H10R           55.5394296257       -0.2076491106        6.0204462795  MEMB      146             0.0000000000
     18265       146  PMPE      C211           54.5000234360        1.5173596955        5.0367320580  MEMB      146             0.0000000000
     18266       146  PMPE      H11R           55.4182451366        1.7051313637        4.4401325259  MEMB      146             0.0000000000
     18267       146  PMPE      H11S           54.0554660360        2.4843150068        5.3556162262  MEMB      146             0.0000000000
     18268       146  PMPE      C212           53.4714524215        0.8641450938        4.0570779474  MEMB      146             0.0000000000
     18269       146  PMPE      H12R           52.5461831983        0.6132598492        4.6185526047  MEMB      146             0.0000000000
     18270       146  PMPE      H12S           53.9064784272       -0.0475074117        3.5945152412  MEMB      146             0.0000000000
     18271       146  PMPE      C213           53.1850400652        1.7877478975        2.8517154813  MEMB      146             0.0000000000
     18272       146  PMPE      H13R           54.1230645892        2.1919844431        2.4146533309  MEMB      146             0.0000000000
     18273       146  PMPE      H13S           52.5708330869        2.6591380738        3.1643667129  MEMB      146             0.0000000000
     18274       146  PMPE      C214           52.3146312512        1.1105539530        1.8084521935  MEMB      146             0.0000000000
     18275       146  PMPE      H14R           51.4334116240        0.5588931135        2.2001695633  MEMB      146             0.0000000000
     18276       146  PMPE      H14S           52.8635225537        0.2760448110        1.3219997207  MEMB      146             0.0000000000
     18277       146  PMPE      C215           51.8035161911        2.0569705872        0.6792450488  MEMB      146             0.0000000000
     18278       146  PMPE      H15R           50.9716180561        2.6663589117        1.0926612154  MEMB      146             0.0000000000
     18279       146  PMPE      H15S           51.2812282999        1.5107610118       -0.1351204837  MEMB      146             0.0000000000
     18280       146  PMPE      C216           52.8925405527        2.8233454722       -0.0019964404  MEMB      146             0.0000000000
     18281       146  PMPE      H16R           52.5985327910        3.0170150773       -1.0557398895  MEMB      146             0.0000000000
     18282       146  PMPE      H16S           53.0457391140        3.8410801471        0.4164114195  MEMB      146             0.0000000000
     18283       146  PMPE      H16T           53.9150116513        2.4065930439        0.1212580953  MEMB      146             0.0000000000
     18284       146  PMPE      C33            52.1695414917        8.1850497402       13.8260894322  MEMB      146             0.0000000000
     18285       146  PMPE      H3X            51.9896901558        8.9856245790       14.5751249089  MEMB      146             0.0000000000
     18286       146  PMPE      H3Y            51.2417093580        8.2355123424       13.2170720837  MEMB      146             0.0000000000
     18287       146  PMPE      C34            53.3398364369        8.6909728918       12.9607707294  MEMB      146             0.0000000000
     18288       146  PMPE      H4X            54.2490643575        8.7107189704       13.5989209188  MEMB      146             0.0000000000
     18289       146  PMPE      H4Y            53.0758367028        9.7193378842       12.6335233933  MEMB      146             0.0000000000
     18290       146  PMPE      C35            53.6848097086        7.8831188680       11.7033028236  MEMB      146             0.0000000000
     18291       146  PMPE      H5X            54.2044581867        6.9376795793       11.9686911834  MEMB      146             0.0000000000
     18292       146  PMPE      H5Y            54.4074436322        8.5235348841       11.1537678374  MEMB      146             0.0000000000
     18293       146  PMPE      C36            52.6091193558        7.5719909298       10.6487875591  MEMB      146             0.0000000000
     18294       146  PMPE      H6X            51.9778390210        8.4686292983       10.4703336791  MEMB      146             0.0000000000
     18295       146  PMPE      H6Y            51.8460069515        6.8377959415       10.9848506694  MEMB      146             0.0000000000
     18296       146  PMPE      C37            53.1525706468        7.1627727315        9.2092838995  MEMB      146             0.0000000000
     18297       146  PMPE      H7X            53.9176167933        6.3572707618        9.2231358269  MEMB      146             0.0000000000
     18298       146  PMPE      H7Y            53.6087770247        8.0843177565        8.7886278456  MEMB      146             0.0000000000
     18299       146  PMPE      C38            52.0997320716        6.7005699831        8.2143532895  MEMB      146             0.0000000000
     18300       146  PMPE      H8X            51.4263922160        7.5805626060        8.1334368341  MEMB      146             0.0000000000
     18301       146  PMPE      H8Y            51.5520833364        5.8337954804        8.6422596613  MEMB      146             0.0000000000
     18302       146  PMPE      C39            52.7146007634        6.1381668227        6.8707815422  MEMB      146             0.0000000000
     18303       146  PMPE      H9X            51.8298930674        6.0756820097        6.2016706749  MEMB      146             0.0000000000
     18304       146  PMPE      H9Y            53.0830279144        5.0918542338        6.9325272403  MEMB      146             0.0000000000
     18305       146  PMPE      C310           53.7227203738        7.0785512430        6.2025167992  MEMB      146             0.0000000000
     18306       146  PMPE      H10X           54.5862765626        7.1337272907        6.8993285253  MEMB      146             0.0000000000
     18307       146  PMPE      H10Y           53.1471895837        8.0277958451        6.1575811161  MEMB      146             0.0000000000
     18308       146  PMPE      C311           54.0942324454        6.8107855228        4.7203424665  MEMB      146             0.0000000000
     18309       146  PMPE      H11X           54.5559302923        7.6887336375        4.2199787143  MEMB      146             0.0000000000
     18310       146  PMPE      H11Y           53.1937089992        6.4380540838        4.1870035729  MEMB      146             0.0000000000
     18311       146  PMPE      C312           55.1728823496        5.6433139363        4.6381419160  MEMB      146             0.0000000000
     18312       146  PMPE      H12X           54.9504959336        4.9236274185        5.4547916852  MEMB      146             0.0000000000
     18313       146  PMPE      H12Y           56.1766416647        6.1010667900        4.7694837997  MEMB      146             0.0000000000
     18314       146  PMPE      C313           55.2231083135        4.9875242246        3.2740725101  MEMB      146             0.0000000000
     18315       146  PMPE      H13X           54.2836795350        4.4993000770        2.9372762229  MEMB      146             0.0000000000
     18316       146  PMPE      H13Y           55.9193798244        4.1217745103        3.2719471870  MEMB      146             0.0000000000
     18317       146  PMPE      C314           55.5460137304        5.8684559414        2.1257277506  MEMB      146             0.0000000000
     18318       146  PMPE      H14X           54.9849615263        6.8272642342        2.1408364354  MEMB      146             0.0000000000
     18319       146  PMPE      H14Y           55.2884463604        5.3690753451        1.1672914112  MEMB      146             0.0000000000
     18320       146  PMPE      C315           57.0710541384        6.1347974253        1.9592592162  MEMB      146             0.0000000000
     18321       146  PMPE      H15X           57.3240386305        6.4348920230        2.9986165714  MEMB      146             0.0000000000
     18322       146  PMPE      H15Y           57.2434840293        7.0176647630        1.3072361810  MEMB      146             0.0000000000
     18323       146  PMPE      C316           57.7901337881        4.9010393865        1.4281393160  MEMB      146             0.0000000000
     18324       146  PMPE      H16X           58.8942601738        5.0104811716        1.4851339217  MEMB      146             0.0000000000
     18325       146  PMPE      H16Y           57.5088373317        4.5634683837        0.4077280202  MEMB      146             0.0000000000
     18326       146  PMPE      H16Z           57.6161293280        3.9843895829        2.0312956571  MEMB      146             0.0000000000
     18327       147  PMPE      N             -28.9106970502      -45.7362126360       22.0870447998  MEMB      147             0.0000000000
     18328       147  PMPE      HN1           -28.4667838596      -46.6713071056       22.1877392839  MEMB      147             0.0000000000
     18329       147  PMPE      HN2           -28.8042309610      -45.1669390959       22.9508692867  MEMB      147             0.0000000000
     18330       147  PMPE      HN3           -29.9292074313      -45.7796213351       21.8812481309  MEMB      147             0.0000000000
     18331       147  PMPE      C12           -28.2165419829      -45.1080353235       20.8718687137  MEMB      147             0.0000000000
     18332       147  PMPE      H12A          -27.1656272901      -45.1083005670       21.2322843130  MEMB      147             0.0000000000
     18333       147  PMPE      H12B          -28.6309944039      -44.0827542845       20.7653374926  MEMB      147             0.0000000000
     18334       147  PMPE      C11           -28.3951959676      -46.0130593291       19.5526359254  MEMB      147             0.0000000000
     18335       147  PMPE      H11A          -28.1024475587      -47.0769034794       19.6824631476  MEMB      147             0.0000000000
     18336       147  PMPE      H11B          -27.8549902590      -45.5213818405       18.7155266408  MEMB      147             0.0000000000
     18337       147  PMPE      P             -30.3894766269      -45.5117073521       17.8937105563  MEMB      147             0.0000000000
     18338       147  PMPE      O13           -30.3635759516      -44.0532854926       17.7166087748  MEMB      147             0.0000000000
     18339       147  PMPE      O14           -31.7484908590      -46.1053565879       17.7396448836  MEMB      147             0.0000000000
     18340       147  PMPE      O11           -29.4262054101      -46.1674542682       16.8030580222  MEMB      147             0.0000000000
     18341       147  PMPE      O12           -29.7922081522      -45.9524914104       19.3354283213  MEMB      147             0.0000000000
     18342       147  PMPE      C1            -28.9373263125      -47.4616565928       16.7225825008  MEMB      147             0.0000000000
     18343       147  PMPE      HA            -29.2975234159      -48.0969593454       17.5598217025  MEMB      147             0.0000000000
     18344       147  PMPE      HB            -27.8328941080      -47.4243382487       16.6078749810  MEMB      147             0.0000000000
     18345       147  PMPE      C2            -29.4025951080      -48.1466685114       15.4432583889  MEMB      147             0.0000000000
     18346       147  PMPE      HS            -29.2646002250      -49.2437973965       15.5508994258  MEMB      147             0.0000000000
     18347       147  PMPE      O21           -28.5534849711      -47.6692347360       14.3545007592  MEMB      147             0.0000000000
     18348       147  PMPE      C21           -28.3882523656      -48.4291192939       13.2777593670  MEMB      147             0.0000000000
     18349       147  PMPE      O22           -28.9474992862      -49.4840603075       13.1099109219  MEMB      147             0.0000000000
     18350       147  PMPE      C22           -27.5971988187      -47.6234658608       12.1711227839  MEMB      147             0.0000000000
     18351       147  PMPE      H2R           -28.2000879529      -47.5892152442       11.2385602770  MEMB      147             0.0000000000
     18352       147  PMPE      H2S           -26.6040084036      -48.0560302682       11.9245831467  MEMB      147             0.0000000000
     18353       147  PMPE      C3            -30.8840898983      -47.8351620330       15.0349874210  MEMB      147             0.0000000000
     18354       147  PMPE      HX            -30.8737057629      -46.7669741998       14.7297199967  MEMB      147             0.0000000000
     18355       147  PMPE      HY            -31.5607211999      -48.0690755144       15.8845610901  MEMB      147             0.0000000000
     18356       147  PMPE      O31           -31.3161927307      -48.6936251171       13.9381204355  MEMB      147             0.0000000000
     18357       147  PMPE      C31           -32.6774826326      -48.5296799970       13.6778543340  MEMB      147             0.0000000000
     18358       147  PMPE      O32           -33.4071706841      -47.7048205714       14.1928297907  MEMB      147             0.0000000000
     18359       147  PMPE      C32           -33.0719362160      -49.4015361222       12.5074096598  MEMB      147             0.0000000000
     18360       147  PMPE      H2X           -34.1578424399      -49.6147311521       12.6057757675  MEMB      147             0.0000000000
     18361       147  PMPE      H2Y           -32.4236109212      -50.3004320021       12.4300706583  MEMB      147             0.0000000000
     18362       147  PMPE      C23           -27.4120917413      -46.1689955856       12.6248372276  MEMB      147             0.0000000000
     18363       147  PMPE      H3R           -26.6761156162      -46.0626011761       13.4502707557  MEMB      147             0.0000000000
     18364       147  PMPE      H3S           -28.3795511848      -45.7145644577       12.9278810251  MEMB      147             0.0000000000
     18365       147  PMPE      C24           -26.7346447430      -45.3992843114       11.4656180917  MEMB      147             0.0000000000
     18366       147  PMPE      H4R           -25.7600660247      -45.8563462618       11.1906419336  MEMB      147             0.0000000000
     18367       147  PMPE      H4S           -26.5366840200      -44.3940530472       11.8953188630  MEMB      147             0.0000000000
     18368       147  PMPE      C25           -27.6405320884      -45.1849475546       10.2548679983  MEMB      147             0.0000000000
     18369       147  PMPE      H5R           -27.7859057677      -46.1530208450        9.7294906908  MEMB      147             0.0000000000
     18370       147  PMPE      H5S           -27.2325704762      -44.4209187055        9.5590605760  MEMB      147             0.0000000000
     18371       147  PMPE      C26           -29.0166425443      -44.5977032075       10.6927621740  MEMB      147             0.0000000000
     18372       147  PMPE      H6R           -28.7991777784      -43.8289537410       11.4648079257  MEMB      147             0.0000000000
     18373       147  PMPE      H6S           -29.6434719870      -45.4252078545       11.0885424045  MEMB      147             0.0000000000
     18374       147  PMPE      C27           -29.8608929554      -43.9074277401        9.6303266166  MEMB      147             0.0000000000
     18375       147  PMPE      H7R           -29.1931136546      -43.1669557231        9.1403335619  MEMB      147             0.0000000000
     18376       147  PMPE      H7S           -30.7120846019      -43.3227108146       10.0400827797  MEMB      147             0.0000000000
     18377       147  PMPE      C28           -30.3412085246      -44.7656535926        8.3870446419  MEMB      147             0.0000000000
     18378       147  PMPE      H8R           -30.8058789488      -45.7189574534        8.7181251967  MEMB      147             0.0000000000
     18379       147  PMPE      H8S           -29.4644862089      -45.0122034260        7.7507334859  MEMB      147             0.0000000000
     18380       147  PMPE      C29           -31.3301313495      -44.0828391918        7.4495526905  MEMB      147             0.0000000000
     18381       147  PMPE      H9R           -31.2397506341      -42.9810735794        7.3388055355  MEMB      147             0.0000000000
     18382       147  PMPE      C217          -32.8259518247      -44.4710603206        7.7277205318  MEMB      147             0.0000000000
     18383       147  PMPE      H17R          -33.2670576041      -43.4865824291        7.8232075234  MEMB      147             0.0000000000
     18384       147  PMPE      H17S          -33.0798364254      -45.2883925968        8.3913470758  MEMB      147             0.0000000000
     18385       147  PMPE      C210          -32.1417073686      -44.8289822037        6.4324783007  MEMB      147             0.0000000000
     18386       147  PMPE      H10R          -32.2230858455      -44.1452220580        5.5606003682  MEMB      147             0.0000000000
     18387       147  PMPE      C211          -31.7565445931      -46.2886196910        6.1884409693  MEMB      147             0.0000000000
     18388       147  PMPE      H11R          -32.5297876492      -46.8693323819        5.6414584551  MEMB      147             0.0000000000
     18389       147  PMPE      H11S          -31.6706053543      -46.7270337184        7.2056569136  MEMB      147             0.0000000000
     18390       147  PMPE      C212          -30.4457513706      -46.5117635243        5.4881596610  MEMB      147             0.0000000000
     18391       147  PMPE      H12R          -30.3092625149      -47.4791485838        4.9591441457  MEMB      147             0.0000000000
     18392       147  PMPE      H12S          -29.6359991090      -46.5190989236        6.2487968610  MEMB      147             0.0000000000
     18393       147  PMPE      C213          -30.2046087042      -45.4744511020        4.3018145873  MEMB      147             0.0000000000
     18394       147  PMPE      H13R          -29.1814294541      -45.6310998131        3.8982223198  MEMB      147             0.0000000000
     18395       147  PMPE      H13S          -30.2949525718      -44.4153686557        4.6250837915  MEMB      147             0.0000000000
     18396       147  PMPE      C214          -31.2399414765      -45.6909537161        3.1252702435  MEMB      147             0.0000000000
     18397       147  PMPE      H14R          -32.2592069168      -45.5554452547        3.5460499310  MEMB      147             0.0000000000
     18398       147  PMPE      H14S          -31.0962492095      -46.6927120164        2.6668444005  MEMB      147             0.0000000000
     18399       147  PMPE      C215          -30.9202736700      -44.6342738697        2.0453384652  MEMB      147             0.0000000000
     18400       147  PMPE      H15R          -29.8272035953      -44.5254239632        1.8789945164  MEMB      147             0.0000000000
     18401       147  PMPE      H15S          -31.3162091711      -43.7394555861        2.5715108523  MEMB      147             0.0000000000
     18402       147  PMPE      C216          -31.6495151197      -44.7446322683        0.7386815742  MEMB      147             0.0000000000
     18403       147  PMPE      H16R          -32.7370523034      -44.9536158430        0.8276220195  MEMB      147             0.0000000000
     18404       147  PMPE      H16S          -31.5414978990      -43.8970782002        0.0285362822  MEMB      147             0.0000000000
     18405       147  PMPE      H16T          -31.2725876586      -45.6191524290        0.1664398847  MEMB      147             0.0000000000
     18406       147  PMPE      C33           -33.0175277346      -48.5540776299       11.1930258672  MEMB      147             0.0000000000
     18407       147  PMPE      H3X           -33.6350004590      -47.6306580157       11.2115954498  MEMB      147             0.0000000000
     18408       147  PMPE      H3Y           -33.5096096057      -49.2291256596       10.4605732481  MEMB      147             0.0000000000
     18409       147  PMPE      C34           -31.5799359424      -48.2329539094       10.7776302029  MEMB      147             0.0000000000
     18410       147  PMPE      H4X           -30.9292770417      -48.8576810047       11.4262289669  MEMB      147             0.0000000000
     18411       147  PMPE      H4Y           -31.2819304565      -47.1775544928       10.9555232919  MEMB      147             0.0000000000
     18412       147  PMPE      C35           -31.2410179602      -48.7066075346        9.3774354703  MEMB      147             0.0000000000
     18413       147  PMPE      H5X           -31.8659793248      -48.0741517551        8.7112949225  MEMB      147             0.0000000000
     18414       147  PMPE      H5Y           -31.6692224148      -49.7307537464        9.3317530654  MEMB      147             0.0000000000
     18415       147  PMPE      C36           -29.7306164637      -48.5723344405        9.0633151064  MEMB      147             0.0000000000
     18416       147  PMPE      H6X           -29.1795832935      -49.1509848585        9.8352260099  MEMB      147             0.0000000000
     18417       147  PMPE      H6Y           -29.4373510097      -47.5042837350        9.1504008099  MEMB      147             0.0000000000
     18418       147  PMPE      C37           -29.2051843578      -49.1316996054        7.7136661136  MEMB      147             0.0000000000
     18419       147  PMPE      H7X           -29.7056879912      -48.6070751354        6.8718907182  MEMB      147             0.0000000000
     18420       147  PMPE      H7Y           -29.3502708805      -50.2276654933        7.6035322267  MEMB      147             0.0000000000
     18421       147  PMPE      C38           -27.6253960975      -48.8374496919        7.6310041446  MEMB      147             0.0000000000
     18422       147  PMPE      H8X           -27.0898618050      -48.9651222147        8.5960036381  MEMB      147             0.0000000000
     18423       147  PMPE      H8Y           -27.4739932633      -47.8177843975        7.2166601448  MEMB      147             0.0000000000
     18424       147  PMPE      C39           -26.9277047457      -49.8071833328        6.6462196561  MEMB      147             0.0000000000
     18425       147  PMPE      H9X           -27.0968662712      -50.8168314031        7.0778635084  MEMB      147             0.0000000000
     18426       147  PMPE      H9Y           -25.8347031028      -49.6214653776        6.5742677929  MEMB      147             0.0000000000
     18427       147  PMPE      C310          -27.5368645405      -49.7028316258        5.2602714655  MEMB      147             0.0000000000
     18428       147  PMPE      H10X          -27.6697588914      -48.6327180222        4.9928449412  MEMB      147             0.0000000000
     18429       147  PMPE      H10Y          -28.4330586105      -50.3264275991        5.0546374517  MEMB      147             0.0000000000
     18430       147  PMPE      C311          -26.4248721695      -50.1565038819        4.2313836608  MEMB      147             0.0000000000
     18431       147  PMPE      H11X          -26.1762890834      -51.2355515738        4.3218484498  MEMB      147             0.0000000000
     18432       147  PMPE      H11Y          -25.5986556962      -49.4544831698        4.4739815571  MEMB      147             0.0000000000
     18433       147  PMPE      C312          -26.7166868265      -49.8104723767        2.7587703212  MEMB      147             0.0000000000
     18434       147  PMPE      H12X          -27.0323096884      -48.7524735698        2.6349069139  MEMB      147             0.0000000000
     18435       147  PMPE      H12Y          -27.5769645964      -50.4503970111        2.4676696831  MEMB      147             0.0000000000
     18436       147  PMPE      C313          -25.5500085891      -50.2129763677        1.8638181922  MEMB      147             0.0000000000
     18437       147  PMPE      H13X          -25.1428820007      -51.2101093925        2.1363894525  MEMB      147             0.0000000000
     18438       147  PMPE      H13Y          -24.7218796579      -49.4728052184        1.8379379779  MEMB      147             0.0000000000
     18439       147  PMPE      C314          -25.9740950666      -50.7877870962        0.4094773895  MEMB      147             0.0000000000
     18440       147  PMPE      H14X          -26.5455494927      -49.9331371898       -0.0116328784  MEMB      147             0.0000000000
     18441       147  PMPE      H14Y          -26.6115578379      -51.6977114023        0.4090407443  MEMB      147             0.0000000000
     18442       147  PMPE      C315          -24.6952382209      -50.9681392483       -0.5014818464  MEMB      147             0.0000000000
     18443       147  PMPE      H15X          -24.9555376587      -51.6042601939       -1.3743591117  MEMB      147             0.0000000000
     18444       147  PMPE      H15Y          -24.0015070644      -51.6933179971       -0.0248541870  MEMB      147             0.0000000000
     18445       147  PMPE      C316          -23.9695474002      -49.7283034053       -0.9881117837  MEMB      147             0.0000000000
     18446       147  PMPE      H16X          -23.7403848176      -49.0283017928       -0.1563640194  MEMB      147             0.0000000000
     18447       147  PMPE      H16Y          -24.6373885512      -49.1628972188       -1.6726739418  MEMB      147             0.0000000000
     18448       147  PMPE      H16Z          -23.0234201107      -49.9627373065       -1.5212194111  MEMB      147             0.0000000000
     18449       148  PMPE      N               7.3446203597      -55.5526382826       17.3902373630  MEMB      148             0.0000000000
     18450       148  PMPE      HN1             7.7246556104      -55.6645444094       16.4286498792  MEMB      148             0.0000000000
     18451       148  PMPE      HN2             8.0682319143      -55.6884642891       18.1247694818  MEMB      148             0.0000000000
     18452       148  PMPE      HN3             6.6101781103      -56.2877428545       17.4328512287  MEMB      148             0.0000000000
     18453       148  PMPE      C12             7.0670346043      -54.1235617693       17.6436955730  MEMB      148             0.0000000000
     18454       148  PMPE      H12A            6.4095644652      -54.0370611869       18.5350831984  MEMB      148             0.0000000000
     18455       148  PMPE      H12B            6.5624489988      -53.7659276794       16.7207587848  MEMB      148             0.0000000000
     18456       148  PMPE      C11             8.2863300229      -53.3786129106       18.0169250428  MEMB      148             0.0000000000
     18457       148  PMPE      H11A            8.0112762679      -52.3666736221       18.3838653998  MEMB      148             0.0000000000
     18458       148  PMPE      H11B            8.8906941082      -53.2868450634       17.0892162830  MEMB      148             0.0000000000
     18459       148  PMPE      P              10.1309114467      -53.2712541761       19.8622725692  MEMB      148             0.0000000000
     18460       148  PMPE      O13            11.2185380928      -54.2071185337       20.1800406047  MEMB      148             0.0000000000
     18461       148  PMPE      O14             9.3948609934      -52.6344673574       21.0178264496  MEMB      148             0.0000000000
     18462       148  PMPE      O11            10.7323882309      -52.0801851182       18.9231794912  MEMB      148             0.0000000000
     18463       148  PMPE      O12             9.1201266503      -54.0355810498       18.9658229079  MEMB      148             0.0000000000
     18464       148  PMPE      C1             11.6807896140      -52.5178294211       17.9171670920  MEMB      148             0.0000000000
     18465       148  PMPE      HA             11.3226671016      -53.4790474666       17.4904011374  MEMB      148             0.0000000000
     18466       148  PMPE      HB             12.7395066880      -52.6403865854       18.2308856566  MEMB      148             0.0000000000
     18467       148  PMPE      C2             11.7243682729      -51.5513483326       16.6883197164  MEMB      148             0.0000000000
     18468       148  PMPE      HS             12.4358403386      -50.7420090790       16.9586864931  MEMB      148             0.0000000000
     18469       148  PMPE      O21            10.3912107708      -50.9333555791       16.4484217070  MEMB      148             0.0000000000
     18470       148  PMPE      C21            10.3511830140      -49.8664573215       15.6738854294  MEMB      148             0.0000000000
     18471       148  PMPE      O22            11.3204494772      -49.3903751930       15.1113958919  MEMB      148             0.0000000000
     18472       148  PMPE      C22             8.8544361636      -49.4236728343       15.3869410076  MEMB      148             0.0000000000
     18473       148  PMPE      H2R             8.9338623404      -48.4423589546       14.8721248430  MEMB      148             0.0000000000
     18474       148  PMPE      H2S             8.4196884770      -49.2456638777       16.3937322022  MEMB      148             0.0000000000
     18475       148  PMPE      C3             12.2589899444      -52.3290197917       15.4097519325  MEMB      148             0.0000000000
     18476       148  PMPE      HX             13.3432567279      -52.5070439590       15.5740492600  MEMB      148             0.0000000000
     18477       148  PMPE      HY             12.3181468876      -51.6152868676       14.5603953673  MEMB      148             0.0000000000
     18478       148  PMPE      O31            11.4800358419      -53.5212969725       15.0913863484  MEMB      148             0.0000000000
     18479       148  PMPE      C31            10.6594202051      -53.3795290975       13.9624259796  MEMB      148             0.0000000000
     18480       148  PMPE      O32            10.4971577708      -52.3487191194       13.3688983513  MEMB      148             0.0000000000
     18481       148  PMPE      C32             9.8037374445      -54.6719552522       13.8691243614  MEMB      148             0.0000000000
     18482       148  PMPE      H2X             9.1577463589      -54.6622091867       14.7729615840  MEMB      148             0.0000000000
     18483       148  PMPE      H2Y            10.3138778694      -55.6308547932       13.6354811294  MEMB      148             0.0000000000
     18484       148  PMPE      C23             8.1639067386      -50.5059976073       14.6200856863  MEMB      148             0.0000000000
     18485       148  PMPE      H3R             8.2206667642      -51.5223030149       15.0653079646  MEMB      148             0.0000000000
     18486       148  PMPE      H3S             8.6495420862      -50.4950450132       13.6209061472  MEMB      148             0.0000000000
     18487       148  PMPE      C24             6.6715486757      -50.1820216029       14.4411112374  MEMB      148             0.0000000000
     18488       148  PMPE      H4R             6.5748267820      -49.1364335378       14.0781904420  MEMB      148             0.0000000000
     18489       148  PMPE      H4S             6.1774499286      -50.3617088323       15.4198349882  MEMB      148             0.0000000000
     18490       148  PMPE      C25             6.0195775871      -51.1966836862       13.4399515647  MEMB      148             0.0000000000
     18491       148  PMPE      H5R             4.9576859736      -51.2942822053       13.7516918666  MEMB      148             0.0000000000
     18492       148  PMPE      H5S             6.5583748314      -52.1647209074       13.5231510581  MEMB      148             0.0000000000
     18493       148  PMPE      C26             6.1913293421      -50.8178035260       11.9450243876  MEMB      148             0.0000000000
     18494       148  PMPE      H6R             7.2870906310      -50.7226474883       11.7882650592  MEMB      148             0.0000000000
     18495       148  PMPE      H6S             5.6163188651      -49.9108624196       11.6601708140  MEMB      148             0.0000000000
     18496       148  PMPE      C27             5.7911534016      -51.7712108011       10.9390380399  MEMB      148             0.0000000000
     18497       148  PMPE      H7R             4.6975983518      -51.8680118496       10.7684866624  MEMB      148             0.0000000000
     18498       148  PMPE      H7S             6.2403808820      -52.7500426693       11.2118095330  MEMB      148             0.0000000000
     18499       148  PMPE      C28             6.4132764706      -51.4943126753        9.5701016121  MEMB      148             0.0000000000
     18500       148  PMPE      H8R             6.2027159986      -52.3513029938        8.8951551490  MEMB      148             0.0000000000
     18501       148  PMPE      H8S             7.5079310825      -51.3573449046        9.7016017542  MEMB      148             0.0000000000
     18502       148  PMPE      C29             5.9430626302      -50.2188690521        8.7277637257  MEMB      148             0.0000000000
     18503       148  PMPE      H9R             6.0519663947      -49.2159417600        9.1931637371  MEMB      148             0.0000000000
     18504       148  PMPE      C217            4.6876034818      -50.3869704812        7.8166590761  MEMB      148             0.0000000000
     18505       148  PMPE      H17R            4.0204544287      -49.5381205821        7.9018347058  MEMB      148             0.0000000000
     18506       148  PMPE      H17S            4.3595379375      -51.4140545550        7.7148741430  MEMB      148             0.0000000000
     18507       148  PMPE      C210            6.0440197537      -50.2192199730        7.1941773765  MEMB      148             0.0000000000
     18508       148  PMPE      H10R            6.2912806913      -49.2336560393        6.7449034540  MEMB      148             0.0000000000
     18509       148  PMPE      C211            6.5697766649      -51.4353346132        6.5287320192  MEMB      148             0.0000000000
     18510       148  PMPE      H11R            5.8706275022      -52.2945261414        6.6141803809  MEMB      148             0.0000000000
     18511       148  PMPE      H11S            7.4474154089      -51.9177649947        7.0097028162  MEMB      148             0.0000000000
     18512       148  PMPE      C212            7.0381175633      -51.3040523227        5.0621724410  MEMB      148             0.0000000000
     18513       148  PMPE      H12R            6.0923891680      -50.9672477829        4.5862720277  MEMB      148             0.0000000000
     18514       148  PMPE      H12S            7.3164344539      -52.2471702822        4.5450754945  MEMB      148             0.0000000000
     18515       148  PMPE      C213            8.2254048205      -50.2684297625        4.8867325500  MEMB      148             0.0000000000
     18516       148  PMPE      H13R            8.9562323621      -50.4757395785        5.6974323308  MEMB      148             0.0000000000
     18517       148  PMPE      H13S            7.8525053117      -49.2229735376        4.9345695362  MEMB      148             0.0000000000
     18518       148  PMPE      C214            8.9152785007      -50.1606067821        3.5704363512  MEMB      148             0.0000000000
     18519       148  PMPE      H14R            9.2896236807      -51.1320962217        3.1826287894  MEMB      148             0.0000000000
     18520       148  PMPE      H14S            9.8600037261      -49.5912832877        3.7034277376  MEMB      148             0.0000000000
     18521       148  PMPE      C215            7.9491144043      -49.4958049002        2.4998410054  MEMB      148             0.0000000000
     18522       148  PMPE      H15R            7.5835779943      -48.5229372797        2.8925654205  MEMB      148             0.0000000000
     18523       148  PMPE      H15S            7.0545406428      -50.1221065556        2.2953777451  MEMB      148             0.0000000000
     18524       148  PMPE      C216            8.5179371648      -49.1981864656        1.0965462280  MEMB      148             0.0000000000
     18525       148  PMPE      H16R            7.7206868513      -48.8074934933        0.4286598378  MEMB      148             0.0000000000
     18526       148  PMPE      H16S            9.3127554521      -48.4267497282        1.1829795119  MEMB      148             0.0000000000
     18527       148  PMPE      H16T            8.9114626276      -50.1560377902        0.6940792269  MEMB      148             0.0000000000
     18528       148  PMPE      C33             8.8505514883      -54.4269724146       12.7112816902  MEMB      148             0.0000000000
     18529       148  PMPE      H3X             8.3840486835      -53.4225507410       12.7997872284  MEMB      148             0.0000000000
     18530       148  PMPE      H3Y             8.0354693563      -55.1819104526       12.7168260640  MEMB      148             0.0000000000
     18531       148  PMPE      C34             9.4999717310      -54.4615709879       11.3304830747  MEMB      148             0.0000000000
     18532       148  PMPE      H4X            10.2855264123      -55.2470433077       11.3465570885  MEMB      148             0.0000000000
     18533       148  PMPE      H4Y            10.0081003516      -53.5189077836       11.0346584795  MEMB      148             0.0000000000
     18534       148  PMPE      C35             8.5807052852      -54.9152395507       10.1825613292  MEMB      148             0.0000000000
     18535       148  PMPE      H5X             7.7589097413      -54.2014225161        9.9602143998  MEMB      148             0.0000000000
     18536       148  PMPE      H5Y             7.9861002330      -55.7203119852       10.6648730014  MEMB      148             0.0000000000
     18537       148  PMPE      C36             9.3168858811      -55.4848750942        8.9723112909  MEMB      148             0.0000000000
     18538       148  PMPE      H6X             8.4163797882      -55.7855564441        8.3952491354  MEMB      148             0.0000000000
     18539       148  PMPE      H6Y             9.8656782833      -56.3277542782        9.4442243588  MEMB      148             0.0000000000
     18540       148  PMPE      C37            10.0168988345      -54.4661325289        8.1462382781  MEMB      148             0.0000000000
     18541       148  PMPE      H7X            10.7495100747      -53.8027183481        8.6536661845  MEMB      148             0.0000000000
     18542       148  PMPE      H7Y             9.3451935288      -53.7316641128        7.6525903497  MEMB      148             0.0000000000
     18543       148  PMPE      C38            10.8782712281      -54.9901355485        6.9937492717  MEMB      148             0.0000000000
     18544       148  PMPE      H8X            11.5632435586      -55.8028314809        7.3172597896  MEMB      148             0.0000000000
     18545       148  PMPE      H8Y            11.5258564112      -54.1621532652        6.6340273986  MEMB      148             0.0000000000
     18546       148  PMPE      C39            10.1167110481      -55.6253150727        5.7474936029  MEMB      148             0.0000000000
     18547       148  PMPE      H9X             9.3707523606      -56.3368083284        6.1617933249  MEMB      148             0.0000000000
     18548       148  PMPE      H9Y            10.8183399831      -56.1789271219        5.0875300982  MEMB      148             0.0000000000
     18549       148  PMPE      C310            9.5247349802      -54.5431649330        4.8266655224  MEMB      148             0.0000000000
     18550       148  PMPE      H10X           10.3407779430      -53.9315758101        4.3858093976  MEMB      148             0.0000000000
     18551       148  PMPE      H10Y            9.0304883573      -53.7762333074        5.4605878964  MEMB      148             0.0000000000
     18552       148  PMPE      C311            8.6361194493      -55.1084883318        3.7800817178  MEMB      148             0.0000000000
     18553       148  PMPE      H11X            7.8878872867      -54.3786020681        3.4036028045  MEMB      148             0.0000000000
     18554       148  PMPE      H11Y            7.8953603212      -55.7857245195        4.2564727454  MEMB      148             0.0000000000
     18555       148  PMPE      C312            9.2998337628      -55.8189045739        2.6533293203  MEMB      148             0.0000000000
     18556       148  PMPE      H12X            9.7272030561      -56.7726493014        3.0302218020  MEMB      148             0.0000000000
     18557       148  PMPE      H12Y           10.1774283612      -55.2703680484        2.2492792634  MEMB      148             0.0000000000
     18558       148  PMPE      C313            8.3684178568      -56.2763700970        1.5087617301  MEMB      148             0.0000000000
     18559       148  PMPE      H13X            7.7697576414      -57.1886339716        1.7178101487  MEMB      148             0.0000000000
     18560       148  PMPE      H13Y            9.1054188031      -56.4401939076        0.6937080762  MEMB      148             0.0000000000
     18561       148  PMPE      C314            7.4033331629      -55.1410314466        1.0016926319  MEMB      148             0.0000000000
     18562       148  PMPE      H14X            7.9467836768      -54.2447956845        0.6332576051  MEMB      148             0.0000000000
     18563       148  PMPE      H14Y            6.7313975414      -54.7900545352        1.8138731927  MEMB      148             0.0000000000
     18564       148  PMPE      C315            6.4878275117      -55.6814776972       -0.1164246632  MEMB      148             0.0000000000
     18565       148  PMPE      H15X            5.8748965291      -54.8221959353       -0.4632272327  MEMB      148             0.0000000000
     18566       148  PMPE      H15Y            5.8287427088      -56.5132782204        0.2122640383  MEMB      148             0.0000000000
     18567       148  PMPE      C316            7.1910437697      -56.1800761237       -1.4250421279  MEMB      148             0.0000000000
     18568       148  PMPE      H16X            7.4735448875      -57.2397601854       -1.2473245571  MEMB      148             0.0000000000
     18569       148  PMPE      H16Y            8.0670221909      -55.5272947166       -1.6271795690  MEMB      148             0.0000000000
     18570       148  PMPE      H16Z            6.6414610348      -56.0695359558       -2.3842405543  MEMB      148             0.0000000000
     18571       149  PMPE      N              43.3419103479       37.4813328617       21.3785254145  MEMB      149             0.0000000000
     18572       149  PMPE      HN1            44.1202387309       38.0570684745       20.9986131424  MEMB      149             0.0000000000
     18573       149  PMPE      HN2            43.2464326167       37.7522545536       22.3780682000  MEMB      149             0.0000000000
     18574       149  PMPE      HN3            43.5898383369       36.4719093121       21.3439457503  MEMB      149             0.0000000000
     18575       149  PMPE      C12            42.0121685240       37.5972936445       20.7012991849  MEMB      149             0.0000000000
     18576       149  PMPE      H12A           41.5823559889       38.5711611048       21.0193624500  MEMB      149             0.0000000000
     18577       149  PMPE      H12B           41.3083745564       36.8032770014       21.0307422202  MEMB      149             0.0000000000
     18578       149  PMPE      C11            42.2456504858       37.5282225560       19.1745972704  MEMB      149             0.0000000000
     18579       149  PMPE      H11A           42.7574425262       38.3759618273       18.6708828916  MEMB      149             0.0000000000
     18580       149  PMPE      H11B           41.2620047360       37.4137754990       18.6709467219  MEMB      149             0.0000000000
     18581       149  PMPE      P              42.2423008542       35.0924523252       18.2177355117  MEMB      149             0.0000000000
     18582       149  PMPE      O13            40.8772231227       35.0144260058       18.8353933365  MEMB      149             0.0000000000
     18583       149  PMPE      O14            43.1461251150       33.8970315741       18.2227342024  MEMB      149             0.0000000000
     18584       149  PMPE      O11            42.1694149149       35.5101413568       16.6924843636  MEMB      149             0.0000000000
     18585       149  PMPE      O12            43.0434306353       36.4058660778       18.7772307198  MEMB      149             0.0000000000
     18586       149  PMPE      C1             42.0771101643       34.4924695366       15.6648013783  MEMB      149             0.0000000000
     18587       149  PMPE      HA             41.1624223959       34.6043247175       15.0441922230  MEMB      149             0.0000000000
     18588       149  PMPE      HB             42.0484480341       33.4527569167       16.0553106967  MEMB      149             0.0000000000
     18589       149  PMPE      C2             43.3094278003       34.6798554751       14.7523098648  MEMB      149             0.0000000000
     18590       149  PMPE      HS             44.2396350698       34.4652563152       15.3206256563  MEMB      149             0.0000000000
     18591       149  PMPE      O21            43.3823055968       36.0525433475       14.2892372620  MEMB      149             0.0000000000
     18592       149  PMPE      C21            44.5277947194       36.5655744685       13.9595550450  MEMB      149             0.0000000000
     18593       149  PMPE      O22            45.5406861379       35.9510940209       13.7180490933  MEMB      149             0.0000000000
     18594       149  PMPE      C22            44.3455763878       38.1167271813       13.9851455620  MEMB      149             0.0000000000
     18595       149  PMPE      H2R            45.2721171433       38.5052760123       13.5109376383  MEMB      149             0.0000000000
     18596       149  PMPE      H2S            44.2723681529       38.5384010945       15.0104028706  MEMB      149             0.0000000000
     18597       149  PMPE      C3             43.3346194433       33.8133609801       13.4673339079  MEMB      149             0.0000000000
     18598       149  PMPE      HX             43.2210321388       32.7277497709       13.6743778962  MEMB      149             0.0000000000
     18599       149  PMPE      HY             44.3803368074       33.8596791214       13.0949747710  MEMB      149             0.0000000000
     18600       149  PMPE      O31            42.3094511523       34.2722437148       12.5672880205  MEMB      149             0.0000000000
     18601       149  PMPE      C31            41.3582431383       33.4545931776       12.2843913288  MEMB      149             0.0000000000
     18602       149  PMPE      O32            41.3043109498       32.2895644236       12.5729181028  MEMB      149             0.0000000000
     18603       149  PMPE      C32            40.2114331730       34.2037397371       11.4819336135  MEMB      149             0.0000000000
     18604       149  PMPE      H2X            39.3636347490       34.4958245754       12.1378643093  MEMB      149             0.0000000000
     18605       149  PMPE      H2Y            39.8295725470       33.5521333213       10.6671254349  MEMB      149             0.0000000000
     18606       149  PMPE      C23            42.9906118533       38.5949778036       13.2815889379  MEMB      149             0.0000000000
     18607       149  PMPE      H3R            42.9567879054       39.7046438430       13.2389489691  MEMB      149             0.0000000000
     18608       149  PMPE      H3S            42.0580496640       38.3019883546       13.8096099224  MEMB      149             0.0000000000
     18609       149  PMPE      C24            42.8827691830       38.1002109072       11.8727362480  MEMB      149             0.0000000000
     18610       149  PMPE      H4R            41.8203996979       38.2355075395       11.5771237258  MEMB      149             0.0000000000
     18611       149  PMPE      H4S            43.0555429196       37.0052141195       11.9465760637  MEMB      149             0.0000000000
     18612       149  PMPE      C25            43.9483829119       38.6290330614       10.9200796403  MEMB      149             0.0000000000
     18613       149  PMPE      H5R            44.9556692504       38.2952454834       11.2491402350  MEMB      149             0.0000000000
     18614       149  PMPE      H5S            44.0354887846       39.7134301237       11.1455044566  MEMB      149             0.0000000000
     18615       149  PMPE      C26            43.6329884062       38.3686222926        9.4290445094  MEMB      149             0.0000000000
     18616       149  PMPE      H6R            43.2110402386       37.3449517885        9.3375058807  MEMB      149             0.0000000000
     18617       149  PMPE      H6S            44.5804681775       38.4664883118        8.8571835262  MEMB      149             0.0000000000
     18618       149  PMPE      C27            42.5800570141       39.3176710490        8.8962815168  MEMB      149             0.0000000000
     18619       149  PMPE      H7R            42.9930932003       40.3349055052        9.0664462363  MEMB      149             0.0000000000
     18620       149  PMPE      H7S            41.5933315920       39.2334626257        9.3998714326  MEMB      149             0.0000000000
     18621       149  PMPE      C28            42.4277624780       39.0775872834        7.3971401169  MEMB      149             0.0000000000
     18622       149  PMPE      H8R            41.6422465173       38.3140211339        7.2120663196  MEMB      149             0.0000000000
     18623       149  PMPE      H8S            43.3365877239       38.7465736197        6.8505252599  MEMB      149             0.0000000000
     18624       149  PMPE      C29            42.0055795514       40.4910902917        6.7462036478  MEMB      149             0.0000000000
     18625       149  PMPE      H9R            42.7599702749       41.2944466381        6.6053703997  MEMB      149             0.0000000000
     18626       149  PMPE      C217           40.5702401185       41.0275943035        6.9006640237  MEMB      149             0.0000000000
     18627       149  PMPE      H17R           40.4969884206       42.1073708266        6.9407372877  MEMB      149             0.0000000000
     18628       149  PMPE      H17S           39.9907186389       40.3235048795        7.4848756909  MEMB      149             0.0000000000
     18629       149  PMPE      C210           40.9774469777       40.5053749141        5.6046476593  MEMB      149             0.0000000000
     18630       149  PMPE      H10R           41.0692289758       41.3153394843        4.8497608291  MEMB      149             0.0000000000
     18631       149  PMPE      C211           40.3176868049       39.1498385060        5.0291811724  MEMB      149             0.0000000000
     18632       149  PMPE      H11R           39.2560791869       39.3580193056        4.7762568216  MEMB      149             0.0000000000
     18633       149  PMPE      H11S           40.2870017889       38.3517364924        5.8014593825  MEMB      149             0.0000000000
     18634       149  PMPE      C212           41.1424909867       38.6610759269        3.8643992189  MEMB      149             0.0000000000
     18635       149  PMPE      H12R           40.5892206321       37.8223532661        3.3903136409  MEMB      149             0.0000000000
     18636       149  PMPE      H12S           42.0337851486       38.1619377360        4.3011795903  MEMB      149             0.0000000000
     18637       149  PMPE      C213           41.6745141005       39.7124368373        2.7914087817  MEMB      149             0.0000000000
     18638       149  PMPE      H13R           42.6030390306       40.1810505917        3.1820017680  MEMB      149             0.0000000000
     18639       149  PMPE      H13S           40.8420733670       40.4272158745        2.6168949863  MEMB      149             0.0000000000
     18640       149  PMPE      C214           41.9450519213       39.1396752458        1.3996564249  MEMB      149             0.0000000000
     18641       149  PMPE      H14R           40.9881674180       38.7189943625        1.0231988092  MEMB      149             0.0000000000
     18642       149  PMPE      H14S           42.7499318042       38.3778414684        1.4777499946  MEMB      149             0.0000000000
     18643       149  PMPE      C215           42.6117546775       40.2301586179        0.5315710287  MEMB      149             0.0000000000
     18644       149  PMPE      H15R           43.5489076174       40.5784793359        1.0160686487  MEMB      149             0.0000000000
     18645       149  PMPE      H15S           41.9209517472       41.1001649131        0.5457571770  MEMB      149             0.0000000000
     18646       149  PMPE      C216           42.8201272986       39.7805749630       -0.8730091268  MEMB      149             0.0000000000
     18647       149  PMPE      H16R           42.0130493286       39.0564669033       -1.1151117021  MEMB      149             0.0000000000
     18648       149  PMPE      H16S           42.8396485839       40.5969066445       -1.6263646213  MEMB      149             0.0000000000
     18649       149  PMPE      H16T           43.7973352615       39.2526159892       -0.8984029875  MEMB      149             0.0000000000
     18650       149  PMPE      C33            40.6329097272       35.4308581299       10.7640393616  MEMB      149             0.0000000000
     18651       149  PMPE      H3X            41.5832909311       35.2775571592       10.2094265048  MEMB      149             0.0000000000
     18652       149  PMPE      H3Y            40.9450324821       36.1646157204       11.5376672859  MEMB      149             0.0000000000
     18653       149  PMPE      C34            39.6016942592       36.1253160087        9.8971903795  MEMB      149             0.0000000000
     18654       149  PMPE      H4X            40.3322171730       36.8423046703        9.4652355603  MEMB      149             0.0000000000
     18655       149  PMPE      H4Y            38.7590348177       36.6211748786       10.4247977112  MEMB      149             0.0000000000
     18656       149  PMPE      C35            39.1687457564       35.3497586429        8.6562747752  MEMB      149             0.0000000000
     18657       149  PMPE      H5X            38.3917796396       34.5564606612        8.6926424963  MEMB      149             0.0000000000
     18658       149  PMPE      H5Y            40.0258272181       34.7522390751        8.2785141609  MEMB      149             0.0000000000
     18659       149  PMPE      C36            38.7463361321       36.3863254405        7.5086595799  MEMB      149             0.0000000000
     18660       149  PMPE      H6X            39.4862613254       37.2081816430        7.4019643038  MEMB      149             0.0000000000
     18661       149  PMPE      H6Y            37.7834065860       36.8439894020        7.8211200539  MEMB      149             0.0000000000
     18662       149  PMPE      C37            38.6120426627       35.8547127801        6.0740166070  MEMB      149             0.0000000000
     18663       149  PMPE      H7X            38.3243291131       36.6394566111        5.3420885685  MEMB      149             0.0000000000
     18664       149  PMPE      H7Y            37.8320150782       35.0854608601        6.2587585115  MEMB      149             0.0000000000
     18665       149  PMPE      C38            39.7658499155       35.0675840277        5.5188182505  MEMB      149             0.0000000000
     18666       149  PMPE      H8X            39.9044607961       34.0847211269        6.0179067982  MEMB      149             0.0000000000
     18667       149  PMPE      H8Y            40.7489003252       35.5832920976        5.5632902067  MEMB      149             0.0000000000
     18668       149  PMPE      C39            39.5360032939       34.7354873338        4.0749535300  MEMB      149             0.0000000000
     18669       149  PMPE      H9X            39.0545576214       35.6380219259        3.6414073484  MEMB      149             0.0000000000
     18670       149  PMPE      H9Y            38.8546971076       33.8596496716        4.0197115168  MEMB      149             0.0000000000
     18671       149  PMPE      C310           40.7760429808       34.3873382862        3.2494408409  MEMB      149             0.0000000000
     18672       149  PMPE      H10X           41.2761991793       33.5140061710        3.7200314961  MEMB      149             0.0000000000
     18673       149  PMPE      H10Y           41.4443364280       35.2564006735        3.0693411040  MEMB      149             0.0000000000
     18674       149  PMPE      C311           40.3194213756       34.0542274758        1.7903816282  MEMB      149             0.0000000000
     18675       149  PMPE      H11X           40.1700719402       35.0491403811        1.3190388865  MEMB      149             0.0000000000
     18676       149  PMPE      H11Y           39.3687821958       33.4797463613        1.7663546386  MEMB      149             0.0000000000
     18677       149  PMPE      C312           41.3195958699       33.2872486781        1.0166330171  MEMB      149             0.0000000000
     18678       149  PMPE      H12X           40.9298790791       32.8715307561        0.0628926277  MEMB      149             0.0000000000
     18679       149  PMPE      H12Y           41.5919082716       32.4160703867        1.6500483019  MEMB      149             0.0000000000
     18680       149  PMPE      C313           42.5818076002       34.0780001452        0.6740507276  MEMB      149             0.0000000000
     18681       149  PMPE      H13X           43.3925550353       33.3256838799        0.7790740864  MEMB      149             0.0000000000
     18682       149  PMPE      H13Y           42.7996112016       34.9086736067        1.3789378493  MEMB      149             0.0000000000
     18683       149  PMPE      C314           42.4704467925       34.6510741217       -0.7597645599  MEMB      149             0.0000000000
     18684       149  PMPE      H14X           41.7708746858       35.5139439428       -0.7791384774  MEMB      149             0.0000000000
     18685       149  PMPE      H14Y           41.9675194419       33.8830577272       -1.3854926565  MEMB      149             0.0000000000
     18686       149  PMPE      C315           43.7745876463       34.9252918373       -1.4801479031  MEMB      149             0.0000000000
     18687       149  PMPE      H15X           43.5399908810       35.4994205897       -2.4019189127  MEMB      149             0.0000000000
     18688       149  PMPE      H15Y           44.2823044868       33.9679497397       -1.7251807281  MEMB      149             0.0000000000
     18689       149  PMPE      C316           44.8219431127       35.7292213169       -0.6556566118  MEMB      149             0.0000000000
     18690       149  PMPE      H16X           45.6065503790       36.0606673810       -1.3689969384  MEMB      149             0.0000000000
     18691       149  PMPE      H16Y           45.2171319043       35.0933615379        0.1652150370  MEMB      149             0.0000000000
     18692       149  PMPE      H16Z           44.2742303311       36.6030999373       -0.2425372278  MEMB      149             0.0000000000
     18693       150  PYPG      C13            45.5879259776       27.8847300658       18.8361953890  MEMB      150             0.0000000000
     18694       150  PYPG      H13A           45.5078873397       27.0616270694       18.0942949900  MEMB      150             0.0000000000
     18695       150  PYPG      H13B           44.9143429504       27.6945224459       19.6989978248  MEMB      150             0.0000000000
     18696       150  PYPG      OC3            45.0408589913       29.0636463369       18.3523388047  MEMB      150             0.0000000000
     18697       150  PYPG      HO3            45.5774019554       29.7977777302       18.6601905653  MEMB      150             0.0000000000
     18698       150  PYPG      C12            47.0874891365       27.9919906573       19.3443121648  MEMB      150             0.0000000000
     18699       150  PYPG      H12A           47.3786901645       26.9878137011       19.7311062211  MEMB      150             0.0000000000
     18700       150  PYPG      OC2            47.1757201681       28.9227357940       20.4241129176  MEMB      150             0.0000000000
     18701       150  PYPG      HO2            48.1442573281       29.0096611088       20.5623033629  MEMB      150             0.0000000000
     18702       150  PYPG      C11            48.0031246339       28.3784904883       18.1569693695  MEMB      150             0.0000000000
     18703       150  PYPG      H11A           47.5477212769       29.2415133000       17.6258192571  MEMB      150             0.0000000000
     18704       150  PYPG      H11B           47.9842082777       27.5107766174       17.4634019041  MEMB      150             0.0000000000
     18705       150  PYPG      P              49.9274429120       30.0884973524       19.0790977045  MEMB      150             0.0000000000
     18706       150  PYPG      O13            51.2501789290       29.8128372584       19.5453053799  MEMB      150             0.0000000000
     18707       150  PYPG      O14            48.8991736460       30.8279194742       19.9241410878  MEMB      150             0.0000000000
     18708       150  PYPG      O11            50.0363607144       30.9717530489       17.7962178751  MEMB      150             0.0000000000
     18709       150  PYPG      O12            49.3566622515       28.6519577421       18.5413093025  MEMB      150             0.0000000000
     18710       150  PYPG      C1             49.0588085589       31.8899315823       17.2684943508  MEMB      150             0.0000000000
     18711       150  PYPG      HA             49.2953451969       32.9202684566       17.6102211115  MEMB      150             0.0000000000
     18712       150  PYPG      HB             48.0476346739       31.7582139627       17.7095145897  MEMB      150             0.0000000000
     18713       150  PYPG      C2             49.0868325936       31.8440879599       15.7301662611  MEMB      150             0.0000000000
     18714       150  PYPG      HS             48.1730174720       32.3472517280       15.3479502001  MEMB      150             0.0000000000
     18715       150  PYPG      O21            49.2225652625       30.4405547949       15.3305234625  MEMB      150             0.0000000000
     18716       150  PYPG      C21            48.2149994845       29.9178847786       14.6763271031  MEMB      150             0.0000000000
     18717       150  PYPG      O22            47.0834048676       30.3562907786       14.6187844702  MEMB      150             0.0000000000
     18718       150  PYPG      C22            48.6866524821       28.6160972926       14.0859293879  MEMB      150             0.0000000000
     18719       150  PYPG      H2R            47.8763544894       28.0421972917       13.5875551370  MEMB      150             0.0000000000
     18720       150  PYPG      H2S            49.1185911929       28.0019146360       14.9047882608  MEMB      150             0.0000000000
     18721       150  PYPG      C3             50.2614708551       32.6795337495       15.0360385045  MEMB      150             0.0000000000
     18722       150  PYPG      HX             51.2561081132       32.2836127971       15.3331314558  MEMB      150             0.0000000000
     18723       150  PYPG      HY             50.2114039800       33.6909413956       15.4930601204  MEMB      150             0.0000000000
     18724       150  PYPG      O31            50.2486099519       32.6899243623       13.5851500383  MEMB      150             0.0000000000
     18725       150  PYPG      C31            49.2086732821       33.3642763729       13.0718329427  MEMB      150             0.0000000000
     18726       150  PYPG      O32            48.5303500494       34.1809649949       13.7026590527  MEMB      150             0.0000000000
     18727       150  PYPG      C32            48.9105090585       32.8944081335       11.5930551461  MEMB      150             0.0000000000
     18728       150  PYPG      H2X            49.8033117552       33.0500453809       10.9504031486  MEMB      150             0.0000000000
     18729       150  PYPG      H2Y            48.6648126068       31.8171713043       11.4768006561  MEMB      150             0.0000000000
     18730       150  PYPG      C23            49.7358049195       28.9528775675       13.0388040888  MEMB      150             0.0000000000
     18731       150  PYPG      H3R            50.6803498222       29.3822892394       13.4359960641  MEMB      150             0.0000000000
     18732       150  PYPG      H3S            49.2739995605       29.6534737546       12.3106410649  MEMB      150             0.0000000000
     18733       150  PYPG      C24            50.0309346711       27.6713012012       12.2369863160  MEMB      150             0.0000000000
     18734       150  PYPG      H4R            49.1424925241       27.1884935794       11.7766730542  MEMB      150             0.0000000000
     18735       150  PYPG      H4S            50.3263150405       26.9665809827       13.0434853054  MEMB      150             0.0000000000
     18736       150  PYPG      C25            51.1392186074       27.8574988902       11.1919647887  MEMB      150             0.0000000000
     18737       150  PYPG      H5R            52.0383004567       28.2219198685       11.7334166813  MEMB      150             0.0000000000
     18738       150  PYPG      H5S            50.7581415620       28.6593110758       10.5239841768  MEMB      150             0.0000000000
     18739       150  PYPG      C26            51.4766417509       26.5635115620       10.5286548805  MEMB      150             0.0000000000
     18740       150  PYPG      H6R            50.6139692463       25.9265948959       10.2380448957  MEMB      150             0.0000000000
     18741       150  PYPG      H6S            51.9920724565       25.9520911424       11.2998993048  MEMB      150             0.0000000000
     18742       150  PYPG      C27            52.4016393334       26.7331688159        9.3215736767  MEMB      150             0.0000000000
     18743       150  PYPG      H7R            52.7904029690       25.7020808150        9.1800053521  MEMB      150             0.0000000000
     18744       150  PYPG      H7S            53.1939949153       27.4593270939        9.6029778697  MEMB      150             0.0000000000
     18745       150  PYPG      C28            51.7058522562       27.3203722251        8.0413202902  MEMB      150             0.0000000000
     18746       150  PYPG      H8R            51.3775751199       28.3570541201        8.2690169650  MEMB      150             0.0000000000
     18747       150  PYPG      H8S            50.8655621478       26.6540070161        7.7511636474  MEMB      150             0.0000000000
     18748       150  PYPG      C29            52.7733714790       27.3568059233        6.9635858575  MEMB      150             0.0000000000
     18749       150  PYPG      H9R            53.0960682125       26.3595265270        6.6299688969  MEMB      150             0.0000000000
     18750       150  PYPG      C210           53.1047479034       28.3764935796        6.1788819520  MEMB      150             0.0000000000
     18751       150  PYPG      H10R           53.8751863679       28.2009665447        5.4136270594  MEMB      150             0.0000000000
     18752       150  PYPG      C211           52.3860181123       29.7237483968        6.3364117951  MEMB      150             0.0000000000
     18753       150  PYPG      H11R           52.7785683543       30.2974766315        7.2030493239  MEMB      150             0.0000000000
     18754       150  PYPG      H11S           51.3022056511       29.5256809196        6.4793830464  MEMB      150             0.0000000000
     18755       150  PYPG      C212           52.5639030961       30.5716487365        5.0828437636  MEMB      150             0.0000000000
     18756       150  PYPG      H12R           51.9618621219       31.5009968073        5.1732863568  MEMB      150             0.0000000000
     18757       150  PYPG      H12S           52.2924550381       29.9234685566        4.2223209152  MEMB      150             0.0000000000
     18758       150  PYPG      C213           54.0257672114       31.1349992116        4.8541031593  MEMB      150             0.0000000000
     18759       150  PYPG      H13R           54.7654338561       30.3452580169        4.6020659743  MEMB      150             0.0000000000
     18760       150  PYPG      H13S           54.4774886297       31.7439995890        5.6661300060  MEMB      150             0.0000000000
     18761       150  PYPG      C214           54.0840528239       32.1573877116        3.7414904986  MEMB      150             0.0000000000
     18762       150  PYPG      H14R           53.4142632719       32.9973446852        4.0246430919  MEMB      150             0.0000000000
     18763       150  PYPG      H14S           55.0649646457       32.6790511447        3.7412558863  MEMB      150             0.0000000000
     18764       150  PYPG      C215           53.7439412012       31.5508514009        2.3003359303  MEMB      150             0.0000000000
     18765       150  PYPG      H15R           52.6945226434       31.2167109355        2.4465945502  MEMB      150             0.0000000000
     18766       150  PYPG      H15S           54.3032029394       30.6220992618        2.0575051338  MEMB      150             0.0000000000
     18767       150  PYPG      C216           53.7572709061       32.5731139028        1.1666532764  MEMB      150             0.0000000000
     18768       150  PYPG      H16R           52.9264912968       33.3088366737        1.2199287205  MEMB      150             0.0000000000
     18769       150  PYPG      H16S           53.6766975848       31.9651919948        0.2402297063  MEMB      150             0.0000000000
     18770       150  PYPG      H16T           54.7565123668       33.0555698794        1.2220983832  MEMB      150             0.0000000000
     18771       150  PYPG      C33            47.6941001509       33.6056729242       10.9730582343  MEMB      150             0.0000000000
     18772       150  PYPG      H3X            47.9898367842       34.6059819243       10.5906413017  MEMB      150             0.0000000000
     18773       150  PYPG      H3Y            46.9904938890       33.8373262051       11.8010648155  MEMB      150             0.0000000000
     18774       150  PYPG      C34            46.9861387588       32.7984195171        9.8213921930  MEMB      150             0.0000000000
     18775       150  PYPG      H4X            46.0079209176       33.3251165076        9.8221142837  MEMB      150             0.0000000000
     18776       150  PYPG      H4Y            46.7165614252       31.8235811000       10.2811088633  MEMB      150             0.0000000000
     18777       150  PYPG      C35            47.6426654745       32.6784088571        8.4618016303  MEMB      150             0.0000000000
     18778       150  PYPG      H5X            46.7867045109       32.4792746694        7.7820978309  MEMB      150             0.0000000000
     18779       150  PYPG      H5Y            48.2456653550       31.7576730420        8.3102829460  MEMB      150             0.0000000000
     18780       150  PYPG      C36            48.3769544544       33.8883503341        7.8952412028  MEMB      150             0.0000000000
     18781       150  PYPG      H6X            49.3062124357       33.9126603620        8.5036897574  MEMB      150             0.0000000000
     18782       150  PYPG      H6Y            47.8397361654       34.8446255081        8.0720331562  MEMB      150             0.0000000000
     18783       150  PYPG      C37            48.9093649813       33.6165845497        6.4885707625  MEMB      150             0.0000000000
     18784       150  PYPG      H7X            49.5195855987       34.4406511196        6.0609418035  MEMB      150             0.0000000000
     18785       150  PYPG      H7Y            49.3848169048       32.6144474550        6.5517168489  MEMB      150             0.0000000000
     18786       150  PYPG      C38            47.7786330166       33.6464416419        5.4751286667  MEMB      150             0.0000000000
     18787       150  PYPG      H8X            47.9470733017       34.2811562713        4.5789779470  MEMB      150             0.0000000000
     18788       150  PYPG      H8Y            46.9979830734       34.1968471731        6.0425445344  MEMB      150             0.0000000000
     18789       150  PYPG      C39            47.5109198797       32.2698015570        4.7997763445  MEMB      150             0.0000000000
     18790       150  PYPG      H9X            46.7310263946       32.5964082221        4.0790714566  MEMB      150             0.0000000000
     18791       150  PYPG      H9Y            47.1030218869       31.5678421725        5.5581911985  MEMB      150             0.0000000000
     18792       150  PYPG      C310           48.7442926546       31.5885903344        4.0322288158  MEMB      150             0.0000000000
     18793       150  PYPG      H10X           48.3125552229       30.8245696839        3.3509093700  MEMB      150             0.0000000000
     18794       150  PYPG      H10Y           49.4020564714       31.0344000120        4.7354649908  MEMB      150             0.0000000000
     18795       150  PYPG      C311           49.7161009380       32.6201203069        3.3122109392  MEMB      150             0.0000000000
     18796       150  PYPG      H11X           50.6728218178       32.0632018669        3.2181470462  MEMB      150             0.0000000000
     18797       150  PYPG      H11Y           49.9875669407       33.4926995265        3.9440590269  MEMB      150             0.0000000000
     18798       150  PYPG      C312           49.2071541367       33.1683505371        1.9478703214  MEMB      150             0.0000000000
     18799       150  PYPG      H12X           48.3583777509       33.8709961786        2.0899567263  MEMB      150             0.0000000000
     18800       150  PYPG      H12Y           50.0692700163       33.6099371495        1.4037404944  MEMB      150             0.0000000000
     18801       150  PYPG      C313           48.8495057199       32.0353612616        0.9273018675  MEMB      150             0.0000000000
     18802       150  PYPG      H13X           49.6783941537       31.3239262821        0.7245067917  MEMB      150             0.0000000000
     18803       150  PYPG      H13Y           47.8800145377       31.5602416987        1.1893491055  MEMB      150             0.0000000000
     18804       150  PYPG      C314           48.6248780557       32.6951740826       -0.4783747509  MEMB      150             0.0000000000
     18805       150  PYPG      H14X           49.6023837913       33.0763071744       -0.8438083476  MEMB      150             0.0000000000
     18806       150  PYPG      H14Y           48.2490109453       31.8714397359       -1.1221966656  MEMB      150             0.0000000000
     18807       150  PYPG      C315           47.5112206451       33.7086502550       -0.4669534719  MEMB      150             0.0000000000
     18808       150  PYPG      H15X           47.7323792815       34.6663240974        0.0509954300  MEMB      150             0.0000000000
     18809       150  PYPG      H15Y           47.2848933343       34.0242150952       -1.5078734032  MEMB      150             0.0000000000
     18810       150  PYPG      C316           46.1914030672       33.1391559758        0.1353826028  MEMB      150             0.0000000000
     18811       150  PYPG      H16X           46.2490425859       33.0023963836        1.2364257575  MEMB      150             0.0000000000
     18812       150  PYPG      H16Y           45.8391804639       32.1933037994       -0.3289709897  MEMB      150             0.0000000000
     18813       150  PYPG      H16Z           45.3983472517       33.9043149300       -0.0057381772  MEMB      150             0.0000000000
     18814       151  OYPE      N             -14.3391462436      -53.9261719928       19.9793338363  MEMB      151             0.0000000000
     18815       151  OYPE      HN1           -14.9515803769      -54.6853103513       20.3402124309  MEMB      151             0.0000000000
     18816       151  OYPE      HN2           -13.3521104016      -54.2082566551       20.1460313095  MEMB      151             0.0000000000
     18817       151  OYPE      HN3           -14.5485378751      -53.0358346088       20.4743638002  MEMB      151             0.0000000000
     18818       151  OYPE      C12           -14.5734339342      -53.7837106218       18.5328757137  MEMB      151             0.0000000000
     18819       151  OYPE      H12A          -14.9242318332      -54.8013924733       18.2579476092  MEMB      151             0.0000000000
     18820       151  OYPE      H12B          -13.5827669362      -53.6914318476       18.0385228404  MEMB      151             0.0000000000
     18821       151  OYPE      C11           -15.5311057897      -52.5981110599       18.1673496739  MEMB      151             0.0000000000
     18822       151  OYPE      H11A          -16.0615615667      -52.5672904888       17.1916510674  MEMB      151             0.0000000000
     18823       151  OYPE      H11B          -14.8465249040      -51.7331930387       18.2999647763  MEMB      151             0.0000000000
     18824       151  OYPE      P             -17.8549248641      -53.1974108596       19.0838888942  MEMB      151             0.0000000000
     18825       151  OYPE      O13           -18.9339823780      -52.3736089580       19.6928376069  MEMB      151             0.0000000000
     18826       151  OYPE      O14           -17.4645887756      -54.5018235924       19.7489547436  MEMB      151             0.0000000000
     18827       151  OYPE      O11           -18.1790575660      -53.4114125429       17.6393886287  MEMB      151             0.0000000000
     18828       151  OYPE      O12           -16.4996100481      -52.3879119737       19.1553708707  MEMB      151             0.0000000000
     18829       151  OYPE      C1            -19.3295429370      -54.1481458511       17.2266120630  MEMB      151             0.0000000000
     18830       151  OYPE      HA            -19.5498193284      -53.8093529031       16.1917117419  MEMB      151             0.0000000000
     18831       151  OYPE      HB            -20.2438441802      -53.8008317829       17.7536292351  MEMB      151             0.0000000000
     18832       151  OYPE      C2            -19.1534459998      -55.7058998128       17.2717559750  MEMB      151             0.0000000000
     18833       151  OYPE      HS            -19.2188304652      -56.0880013250       18.3129305152  MEMB      151             0.0000000000
     18834       151  OYPE      O21           -17.7884211669      -55.8727061637       16.7861725252  MEMB      151             0.0000000000
     18835       151  OYPE      C21           -17.1053359228      -56.7847855790       17.3093713108  MEMB      151             0.0000000000
     18836       151  OYPE      O22           -17.4154655793      -57.4543091674       18.3177779748  MEMB      151             0.0000000000
     18837       151  OYPE      C22           -15.8649259818      -57.0814105544       16.5799385402  MEMB      151             0.0000000000
     18838       151  OYPE      H2R           -15.3048131003      -57.8341944391       17.1748428878  MEMB      151             0.0000000000
     18839       151  OYPE      H2S           -15.3079113943      -56.1250125445       16.4831991591  MEMB      151             0.0000000000
     18840       151  OYPE      C3            -20.0863097729      -56.4373569202       16.3132550977  MEMB      151             0.0000000000
     18841       151  OYPE      HX            -21.1483316704      -56.4750249827       16.6373105497  MEMB      151             0.0000000000
     18842       151  OYPE      HY            -19.6690928487      -57.4603803889       16.1963193366  MEMB      151             0.0000000000
     18843       151  OYPE      O31           -20.0970719693      -55.6693236100       15.1244241124  MEMB      151             0.0000000000
     18844       151  OYPE      C31           -19.8656580142      -56.3300089287       14.0045156243  MEMB      151             0.0000000000
     18845       151  OYPE      O32           -19.2632144334      -57.3584096416       13.8912418275  MEMB      151             0.0000000000
     18846       151  OYPE      C32           -20.3341725433      -55.4940815334       12.8443663369  MEMB      151             0.0000000000
     18847       151  OYPE      H2X           -21.3232195678      -55.0498881533       13.0868522667  MEMB      151             0.0000000000
     18848       151  OYPE      H2Y           -19.6473354077      -54.6209719071       12.8283887875  MEMB      151             0.0000000000
     18849       151  OYPE      C23           -16.2683940798      -57.6888903698       15.2252559193  MEMB      151             0.0000000000
     18850       151  OYPE      H3R           -16.8411842407      -56.8925145767       14.7037025856  MEMB      151             0.0000000000
     18851       151  OYPE      H3S           -16.8160075097      -58.6555548138       15.2256292629  MEMB      151             0.0000000000
     18852       151  OYPE      C24           -15.1405426337      -57.8933293639       14.1838524667  MEMB      151             0.0000000000
     18853       151  OYPE      H4R           -15.5067207767      -58.2924302790       13.2138252058  MEMB      151             0.0000000000
     18854       151  OYPE      H4S           -14.3552944450      -58.5495045690       14.6164486104  MEMB      151             0.0000000000
     18855       151  OYPE      C25           -14.3061583793      -56.6361099519       13.8813838605  MEMB      151             0.0000000000
     18856       151  OYPE      H5R           -13.5004568051      -56.8988434577       13.1629567240  MEMB      151             0.0000000000
     18857       151  OYPE      H5S           -13.7292413428      -56.3154457408       14.7750625389  MEMB      151             0.0000000000
     18858       151  OYPE      C26           -15.1281047702      -55.3892404415       13.2515489421  MEMB      151             0.0000000000
     18859       151  OYPE      H6R           -14.3559055715      -54.7688955792       12.7483578028  MEMB      151             0.0000000000
     18860       151  OYPE      H6S           -15.5184848107      -54.8148382578       14.1187209169  MEMB      151             0.0000000000
     18861       151  OYPE      C27           -16.1643076285      -55.7088708612       12.1213779488  MEMB      151             0.0000000000
     18862       151  OYPE      H7R           -16.5840938991      -54.7157137554       11.8535354323  MEMB      151             0.0000000000
     18863       151  OYPE      H7S           -16.9717723923      -56.3508514918       12.5339101309  MEMB      151             0.0000000000
     18864       151  OYPE      C28           -15.5563853596      -56.3724817982       10.7997768831  MEMB      151             0.0000000000
     18865       151  OYPE      H8R           -16.4621920661      -56.4649218845       10.1631530030  MEMB      151             0.0000000000
     18866       151  OYPE      H8S           -15.0486827553      -57.3221591226       11.0730398507  MEMB      151             0.0000000000
     18867       151  OYPE      C29           -14.5315834577      -55.3743900996       10.0965823093  MEMB      151             0.0000000000
     18868       151  OYPE      H9R           -13.5496694493      -55.2275152346       10.5701574954  MEMB      151             0.0000000000
     18869       151  OYPE      C210          -14.6955669068      -54.6935232540        8.9280545366  MEMB      151             0.0000000000
     18870       151  OYPE      H10R          -13.9120246318      -53.9909476032        8.6079772543  MEMB      151             0.0000000000
     18871       151  OYPE      C211          -15.9531098119      -54.8077977101        8.0960349572  MEMB      151             0.0000000000
     18872       151  OYPE      H11R          -16.1884851256      -53.7876996644        7.7241218935  MEMB      151             0.0000000000
     18873       151  OYPE      H11S          -16.7547404662      -55.1031008765        8.8063209195  MEMB      151             0.0000000000
     18874       151  OYPE      C212          -15.8852269717      -55.7106615597        6.9206175954  MEMB      151             0.0000000000
     18875       151  OYPE      H12R          -16.9346701377      -55.7085896054        6.5559454483  MEMB      151             0.0000000000
     18876       151  OYPE      H12S          -15.5395501505      -56.7010789535        7.2865432589  MEMB      151             0.0000000000
     18877       151  OYPE      C213          -14.9797044623      -55.3048543674        5.8133325273  MEMB      151             0.0000000000
     18878       151  OYPE      H13R          -14.0245920721      -55.1808940728        6.3671517232  MEMB      151             0.0000000000
     18879       151  OYPE      H13S          -15.2792943219      -54.3509251954        5.3289925571  MEMB      151             0.0000000000
     18880       151  OYPE      C214          -14.8025528632      -56.4694324978        4.8034303198  MEMB      151             0.0000000000
     18881       151  OYPE      H14R          -14.5151047911      -57.3780387439        5.3745078730  MEMB      151             0.0000000000
     18882       151  OYPE      H14S          -13.8757846089      -56.1959329455        4.2551427430  MEMB      151             0.0000000000
     18883       151  OYPE      C215          -15.8728775023      -56.6125481120        3.7078997753  MEMB      151             0.0000000000
     18884       151  OYPE      H15R          -16.2756855013      -55.6213588928        3.4085492979  MEMB      151             0.0000000000
     18885       151  OYPE      H15S          -16.7382706038      -57.0346999346        4.2621588918  MEMB      151             0.0000000000
     18886       151  OYPE      C216          -15.4877983956      -57.3942025713        2.4193665719  MEMB      151             0.0000000000
     18887       151  OYPE      H16R          -16.4078843652      -57.5697128316        1.8219071727  MEMB      151             0.0000000000
     18888       151  OYPE      H16S          -14.9834917986      -58.3382302842        2.7173741601  MEMB      151             0.0000000000
     18889       151  OYPE      H16T          -14.6730198584      -56.8225472961        1.9257399090  MEMB      151             0.0000000000
     18890       151  OYPE      C33           -20.3826664157      -56.3161746240       11.5712943534  MEMB      151             0.0000000000
     18891       151  OYPE      H3X           -21.2243825269      -57.0412947198       11.5772750089  MEMB      151             0.0000000000
     18892       151  OYPE      H3Y           -19.4464703757      -56.9040294690       11.4604581037  MEMB      151             0.0000000000
     18893       151  OYPE      C34           -20.4998973042      -55.5753649004       10.2596820171  MEMB      151             0.0000000000
     18894       151  OYPE      H4X           -21.5406683673      -55.2281456360       10.0848805337  MEMB      151             0.0000000000
     18895       151  OYPE      H4Y           -19.7849750072      -54.7263500040       10.3084725849  MEMB      151             0.0000000000
     18896       151  OYPE      C35           -20.1563850519      -56.5130255599        9.0933721147  MEMB      151             0.0000000000
     18897       151  OYPE      H5X           -20.9020786420      -57.3347046600        9.1491003141  MEMB      151             0.0000000000
     18898       151  OYPE      H5Y           -19.1898233709      -57.0190071502        9.3032826495  MEMB      151             0.0000000000
     18899       151  OYPE      C36           -20.1683261844      -55.8801889272        7.7298997511  MEMB      151             0.0000000000
     18900       151  OYPE      H6X           -21.0560398988      -55.2320139335        7.5681765532  MEMB      151             0.0000000000
     18901       151  OYPE      H6Y           -19.3110557806      -55.1765752681        7.7957524672  MEMB      151             0.0000000000
     18902       151  OYPE      C37           -20.0436755123      -57.0193530639        6.7532280328  MEMB      151             0.0000000000
     18903       151  OYPE      H7X           -19.1654203437      -57.6728879679        6.9426503247  MEMB      151             0.0000000000
     18904       151  OYPE      H7Y           -20.9625405422      -57.6400893930        6.8217470966  MEMB      151             0.0000000000
     18905       151  OYPE      C38           -19.8871894944      -56.4976095248        5.3214684196  MEMB      151             0.0000000000
     18906       151  OYPE      H8X           -18.9596654819      -55.9097187713        5.1529309838  MEMB      151             0.0000000000
     18907       151  OYPE      H8Y           -19.7621131813      -57.4417505299        4.7493891028  MEMB      151             0.0000000000
     18908       151  OYPE      C39           -21.2440972654      -55.9499749111        4.9176797568  MEMB      151             0.0000000000
     18909       151  OYPE      H9X           -22.0503932340      -56.6843565843        4.7742557290  MEMB      151             0.0000000000
     18910       151  OYPE      C310          -21.4916440792      -54.6708406703        4.6184564600  MEMB      151             0.0000000000
     18911       151  OYPE      H10X          -22.4978404246      -54.3479121449        4.3130293579  MEMB      151             0.0000000000
     18912       151  OYPE      C311          -20.4698920156      -53.6088279063        4.5841721706  MEMB      151             0.0000000000
     18913       151  OYPE      H11X          -19.5120543729      -54.0025942319        4.9864358676  MEMB      151             0.0000000000
     18914       151  OYPE      H11Y          -20.2696379715      -53.1462587859        3.5940970835  MEMB      151             0.0000000000
     18915       151  OYPE      C312          -20.8287866005      -52.4166969568        5.5061458005  MEMB      151             0.0000000000
     18916       151  OYPE      H12X          -20.8426561103      -52.8616220503        6.5240704222  MEMB      151             0.0000000000
     18917       151  OYPE      H12Y          -21.7791657664      -51.8923715709        5.2691143556  MEMB      151             0.0000000000
     18918       151  OYPE      C313          -19.7450181020      -51.3157427656        5.5474555010  MEMB      151             0.0000000000
     18919       151  OYPE      H13X          -20.0124965300      -50.8341039921        4.5826751562  MEMB      151             0.0000000000
     18920       151  OYPE      H13Y          -19.8030623074      -50.6042049679        6.3987283796  MEMB      151             0.0000000000
     18921       151  OYPE      C314          -18.2899112515      -51.8054016693        5.4396910401  MEMB      151             0.0000000000
     18922       151  OYPE      H14X          -18.2751469346      -52.3760636821        4.4865659453  MEMB      151             0.0000000000
     18923       151  OYPE      H14Y          -17.9240175310      -52.3406461853        6.3418869204  MEMB      151             0.0000000000
     18924       151  OYPE      C315          -17.3802039967      -50.6569313268        5.2837264715  MEMB      151             0.0000000000
     18925       151  OYPE      H15X          -17.5392126851      -49.9483790906        6.1245533509  MEMB      151             0.0000000000
     18926       151  OYPE      H15Y          -17.6467439079      -50.0253464304        4.4094390214  MEMB      151             0.0000000000
     18927       151  OYPE      C316          -15.9086921391      -50.9725162028        5.2021817543  MEMB      151             0.0000000000
     18928       151  OYPE      H16X          -15.5631733316      -51.3186511267        6.1997422766  MEMB      151             0.0000000000
     18929       151  OYPE      H16Y          -15.4995732647      -49.9428429344        5.1202324043  MEMB      151             0.0000000000
     18930       151  OYPE      C317          -15.2943696946      -51.8448765425        4.1290433303  MEMB      151             0.0000000000
     18931       151  OYPE      H17X          -15.7516870418      -52.8566565707        4.0905342946  MEMB      151             0.0000000000
     18932       151  OYPE      H17Y          -14.1864345931      -51.9247933801        4.1493959542  MEMB      151             0.0000000000
     18933       151  OYPE      C318          -15.4981576090      -51.1106355138        2.7516988838  MEMB      151             0.0000000000
     18934       151  OYPE      H18X          -16.5636360298      -51.2669314378        2.4784784178  MEMB      151             0.0000000000
     18935       151  OYPE      H18Y          -15.2660165819      -50.0243916098        2.7292126202  MEMB      151             0.0000000000
     18936       151  OYPE      H18Z          -14.8437287948      -51.6476020268        2.0321773581  MEMB      151             0.0000000000
     18937       152  PYPG      C13            24.8924415741       52.5853090005       18.5562702456  MEMB      152             0.0000000000
     18938       152  PYPG      H13A           24.8607253543       51.6737527044       19.1906048386  MEMB      152             0.0000000000
     18939       152  PYPG      H13B           25.1471484247       52.3478782875       17.5012479843  MEMB      152             0.0000000000
     18940       152  PYPG      OC3            25.9889202527       53.3266127618       19.0378814777  MEMB      152             0.0000000000
     18941       152  PYPG      HO3            25.7969944358       54.1652186610       18.6118477870  MEMB      152             0.0000000000
     18942       152  PYPG      C12            23.5162305275       53.2764212363       18.8323881869  MEMB      152             0.0000000000
     18943       152  PYPG      H12A           23.4652713253       54.1829939184       18.1856207079  MEMB      152             0.0000000000
     18944       152  PYPG      OC2            23.4436684629       53.7017953638       20.1939433597  MEMB      152             0.0000000000
     18945       152  PYPG      HO2            22.5088988756       53.9888630292       20.2862191098  MEMB      152             0.0000000000
     18946       152  PYPG      C11            22.3075893300       52.3388314456       18.4711269263  MEMB      152             0.0000000000
     18947       152  PYPG      H11A           22.3017964063       52.2642030942       17.3626513894  MEMB      152             0.0000000000
     18948       152  PYPG      H11B           21.4237145242       52.8280724948       18.9334359814  MEMB      152             0.0000000000
     18949       152  PYPG      P              21.3910751632       49.9670292596       19.0854466246  MEMB      152             0.0000000000
     18950       152  PYPG      O13            20.1586635763       50.7580675592       19.1285408339  MEMB      152             0.0000000000
     18951       152  PYPG      O14            21.7136048001       48.9844338064       20.1595425064  MEMB      152             0.0000000000
     18952       152  PYPG      O11            21.3824237315       49.2731075761       17.6167020461  MEMB      152             0.0000000000
     18953       152  PYPG      O12            22.5511225823       50.9783829890       18.9181577932  MEMB      152             0.0000000000
     18954       152  PYPG      C1             22.6149727794       48.8260047084       17.0699544850  MEMB      152             0.0000000000
     18955       152  PYPG      HA             22.7531417180       47.7409708019       17.2647152117  MEMB      152             0.0000000000
     18956       152  PYPG      HB             23.5229475912       49.4271414738       17.2902662490  MEMB      152             0.0000000000
     18957       152  PYPG      C2             22.4500618587       48.8847645928       15.5415889520  MEMB      152             0.0000000000
     18958       152  PYPG      HS             23.4325084860       48.5962968005       15.1104208587  MEMB      152             0.0000000000
     18959       152  PYPG      O21            22.0785589416       50.2416020243       15.1423123181  MEMB      152             0.0000000000
     18960       152  PYPG      C21            23.0832583335       51.0255651877       14.8343907318  MEMB      152             0.0000000000
     18961       152  PYPG      O22            24.2714534323       50.8297801352       15.0850995850  MEMB      152             0.0000000000
     18962       152  PYPG      C22            22.4627680838       52.2760246964       14.1737306600  MEMB      152             0.0000000000
     18963       152  PYPG      H2R            21.8668964423       52.8380572926       14.9243154038  MEMB      152             0.0000000000
     18964       152  PYPG      H2S            21.7203907788       52.0667320196       13.3741100115  MEMB      152             0.0000000000
     18965       152  PYPG      C3             21.3357967208       47.9938069758       15.1101852212  MEMB      152             0.0000000000
     18966       152  PYPG      HX             20.3487624271       48.4383185441       15.3601728727  MEMB      152             0.0000000000
     18967       152  PYPG      HY             21.4824708612       47.0130136911       15.6110364019  MEMB      152             0.0000000000
     18968       152  PYPG      O31            21.3110827276       47.7405452838       13.7085174746  MEMB      152             0.0000000000
     18969       152  PYPG      C31            20.8394086351       48.6083998318       12.8064057870  MEMB      152             0.0000000000
     18970       152  PYPG      O32            20.4524406820       49.7337922454       13.0394193097  MEMB      152             0.0000000000
     18971       152  PYPG      C32            20.5715334676       47.7871695462       11.4678837693  MEMB      152             0.0000000000
     18972       152  PYPG      H2X            20.1799183712       46.7487055472       11.5183905884  MEMB      152             0.0000000000
     18973       152  PYPG      H2Y            19.8679318697       48.3964353304       10.8612031399  MEMB      152             0.0000000000
     18974       152  PYPG      C23            23.5372820024       53.3358911382       13.6922397132  MEMB      152             0.0000000000
     18975       152  PYPG      H3R            24.0640221633       53.7940629978       14.5564988616  MEMB      152             0.0000000000
     18976       152  PYPG      H3S            22.9635474060       54.1927352232       13.2787566582  MEMB      152             0.0000000000
     18977       152  PYPG      C24            24.5219420227       52.8722121679       12.5332635054  MEMB      152             0.0000000000
     18978       152  PYPG      H4R            25.2368033854       52.2057430809       13.0615753246  MEMB      152             0.0000000000
     18979       152  PYPG      H4S            24.9814286649       53.8177539162       12.1738975514  MEMB      152             0.0000000000
     18980       152  PYPG      C25            23.7580972828       52.2141345949       11.3890027560  MEMB      152             0.0000000000
     18981       152  PYPG      H5R            23.5830135859       51.1618556888       11.6994474608  MEMB      152             0.0000000000
     18982       152  PYPG      H5S            24.4303925027       52.1409011924       10.5075397630  MEMB      152             0.0000000000
     18983       152  PYPG      C26            22.5223305645       52.9405893386       10.8243758111  MEMB      152             0.0000000000
     18984       152  PYPG      H6R            22.6256005520       54.0289241218       11.0223248190  MEMB      152             0.0000000000
     18985       152  PYPG      H6S            21.6287807916       52.5131497989       11.3275508301  MEMB      152             0.0000000000
     18986       152  PYPG      C27            22.3868215707       52.6790304181        9.3196398363  MEMB      152             0.0000000000
     18987       152  PYPG      H7R            22.4768635741       51.6137935833        9.0171773311  MEMB      152             0.0000000000
     18988       152  PYPG      H7S            23.0822004821       53.2751918260        8.6908626625  MEMB      152             0.0000000000
     18989       152  PYPG      C28            21.0011585386       52.9558344048        8.7302898479  MEMB      152             0.0000000000
     18990       152  PYPG      H8R            21.0506154711       54.0403549944        8.4943024030  MEMB      152             0.0000000000
     18991       152  PYPG      H8S            20.3417948445       52.7765142683        9.6063058360  MEMB      152             0.0000000000
     18992       152  PYPG      C29            20.5295375036       52.1336157681        7.5700822662  MEMB      152             0.0000000000
     18993       152  PYPG      H9R            20.1307229814       51.1403991718        7.8239868379  MEMB      152             0.0000000000
     18994       152  PYPG      C210           20.4575761158       52.5515300715        6.3187592259  MEMB      152             0.0000000000
     18995       152  PYPG      H10R           20.2071727458       51.8695422684        5.4928104794  MEMB      152             0.0000000000
     18996       152  PYPG      C211           20.9173780024       53.9524242009        5.8480875017  MEMB      152             0.0000000000
     18997       152  PYPG      H11R           21.9870133185       54.2157567928        5.9925081357  MEMB      152             0.0000000000
     18998       152  PYPG      H11S           20.3178709600       54.7807662301        6.2825543066  MEMB      152             0.0000000000
     18999       152  PYPG      C212           20.6991939289       54.1871129871        4.2944556352  MEMB      152             0.0000000000
     19000       152  PYPG      H12R           20.6481970275       55.2598187826        4.0098100884  MEMB      152             0.0000000000
     19001       152  PYPG      H12S           19.6334142187       53.9421214846        4.0984605900  MEMB      152             0.0000000000
     19002       152  PYPG      C213           21.5130003907       53.3268028420        3.3166668611  MEMB      152             0.0000000000
     19003       152  PYPG      H13R           21.0687640178       52.3104319798        3.2536981547  MEMB      152             0.0000000000
     19004       152  PYPG      H13S           22.4645238549       53.1436507490        3.8601553839  MEMB      152             0.0000000000
     19005       152  PYPG      C214           21.6273875748       53.9736973694        1.9113286669  MEMB      152             0.0000000000
     19006       152  PYPG      H14R           22.0888849092       54.9806255558        1.8250923695  MEMB      152             0.0000000000
     19007       152  PYPG      H14S           22.2769149509       53.2703853365        1.3476018234  MEMB      152             0.0000000000
     19008       152  PYPG      C215           20.2632961776       54.0114863585        1.1980513909  MEMB      152             0.0000000000
     19009       152  PYPG      H15R           20.4996963349       54.6363156347        0.3103449560  MEMB      152             0.0000000000
     19010       152  PYPG      H15S           19.6932209458       54.6789758850        1.8790746003  MEMB      152             0.0000000000
     19011       152  PYPG      C216           19.7305034488       52.6593056553        0.9162906819  MEMB      152             0.0000000000
     19012       152  PYPG      H16R           18.7754058655       52.6296183676        0.3495210058  MEMB      152             0.0000000000
     19013       152  PYPG      H16S           19.4618501818       52.0577449856        1.8108692731  MEMB      152             0.0000000000
     19014       152  PYPG      H16T           20.4028796122       52.1118511371        0.2216496138  MEMB      152             0.0000000000
     19015       152  PYPG      C33            21.9391187694       47.5954826693       10.8346488401  MEMB      152             0.0000000000
     19016       152  PYPG      H3X            22.5379599731       46.8040744417       11.3340314586  MEMB      152             0.0000000000
     19017       152  PYPG      H3Y            22.5017825000       48.5488185445       10.9288882260  MEMB      152             0.0000000000
     19018       152  PYPG      C34            21.9314976429       47.1438892302        9.3399360483  MEMB      152             0.0000000000
     19019       152  PYPG      H4X            21.2447182886       46.2717456981        9.3848915096  MEMB      152             0.0000000000
     19020       152  PYPG      H4Y            22.9668150319       46.8907263743        9.0263324479  MEMB      152             0.0000000000
     19021       152  PYPG      C35            21.2265770310       48.1216313340        8.3778505477  MEMB      152             0.0000000000
     19022       152  PYPG      H5X            21.6509555069       49.1404417099        8.5053237992  MEMB      152             0.0000000000
     19023       152  PYPG      H5Y            20.1829476230       48.2482884658        8.7371789200  MEMB      152             0.0000000000
     19024       152  PYPG      C36            21.3204297270       47.6378151647        6.9152901473  MEMB      152             0.0000000000
     19025       152  PYPG      H6X            21.1955390824       46.5356165432        6.8529868112  MEMB      152             0.0000000000
     19026       152  PYPG      H6Y            22.3279603097       47.7566712198        6.4624360660  MEMB      152             0.0000000000
     19027       152  PYPG      C37            20.2251489086       48.2271969715        6.1258913646  MEMB      152             0.0000000000
     19028       152  PYPG      H7X            19.4232230367       48.4115022101        6.8723947348  MEMB      152             0.0000000000
     19029       152  PYPG      H7Y            20.4889609776       49.1981614902        5.6547733253  MEMB      152             0.0000000000
     19030       152  PYPG      C38            19.5840280826       47.3218513586        5.0562102712  MEMB      152             0.0000000000
     19031       152  PYPG      H8X            19.3859897966       46.2744188891        5.3692390158  MEMB      152             0.0000000000
     19032       152  PYPG      H8Y            20.3087090576       47.1975788153        4.2233151750  MEMB      152             0.0000000000
     19033       152  PYPG      C39            18.3239411687       47.9960931344        4.4874611193  MEMB      152             0.0000000000
     19034       152  PYPG      H9X            18.7450211592       48.9506747746        4.1056410330  MEMB      152             0.0000000000
     19035       152  PYPG      H9Y            17.6162918488       48.1624433478        5.3276285434  MEMB      152             0.0000000000
     19036       152  PYPG      C310           17.5210794590       47.1958281285        3.4101707316  MEMB      152             0.0000000000
     19037       152  PYPG      H10X           16.4951384809       47.6118310491        3.3168575539  MEMB      152             0.0000000000
     19038       152  PYPG      H10Y           17.4147523250       46.2054066703        3.9021880161  MEMB      152             0.0000000000
     19039       152  PYPG      C311           18.1007523665       47.1204699240        2.0191228528  MEMB      152             0.0000000000
     19040       152  PYPG      H11X           17.3946481341       46.5779709829        1.3547205188  MEMB      152             0.0000000000
     19041       152  PYPG      H11Y           19.0748159621       46.5872372072        1.9847105953  MEMB      152             0.0000000000
     19042       152  PYPG      C312           18.3957978890       48.5209527773        1.3621463379  MEMB      152             0.0000000000
     19043       152  PYPG      H12X           17.4633080334       49.1232558123        1.4070313068  MEMB      152             0.0000000000
     19044       152  PYPG      H12Y           19.1888347081       48.9702062952        1.9974302202  MEMB      152             0.0000000000
     19045       152  PYPG      C313           18.7535279876       48.3215739825       -0.1281210612  MEMB      152             0.0000000000
     19046       152  PYPG      H13X           19.6962025412       47.7578108263       -0.2950235725  MEMB      152             0.0000000000
     19047       152  PYPG      H13Y           17.9519112786       47.7923275209       -0.6863569521  MEMB      152             0.0000000000
     19048       152  PYPG      C314           18.9971779214       49.7229698408       -0.8149429740  MEMB      152             0.0000000000
     19049       152  PYPG      H14X           18.0725941702       50.3191702918       -0.6599878480  MEMB      152             0.0000000000
     19050       152  PYPG      H14Y           19.7876715615       50.1798296784       -0.1819166045  MEMB      152             0.0000000000
     19051       152  PYPG      C315           19.3808863406       49.6319067000       -2.2699215155  MEMB      152             0.0000000000
     19052       152  PYPG      H15X           20.2247568310       48.9231407420       -2.4108285130  MEMB      152             0.0000000000
     19053       152  PYPG      H15Y           18.4934779728       49.1252399312       -2.7059457535  MEMB      152             0.0000000000
     19054       152  PYPG      C316           19.5731969207       50.9971368729       -2.9517393323  MEMB      152             0.0000000000
     19055       152  PYPG      H16X           18.5681531496       51.4328152833       -3.1371919406  MEMB      152             0.0000000000
     19056       152  PYPG      H16Y           20.1978762629       50.8990439687       -3.8652348113  MEMB      152             0.0000000000
     19057       152  PYPG      H16Z           20.1010127988       51.6524046745       -2.2262360570  MEMB      152             0.0000000000
     19058       153  PMPE      N              51.1556133142      -16.2827885937       18.0806349731  MEMB      153             0.0000000000
     19059       153  PMPE      HN1            51.7811445158      -16.9997087982       17.6607107839  MEMB      153             0.0000000000
     19060       153  PMPE      HN2            51.0865570580      -16.4988352447       19.0956005152  MEMB      153             0.0000000000
     19061       153  PMPE      HN3            50.1968334856      -16.2163109111       17.6832412332  MEMB      153             0.0000000000
     19062       153  PMPE      C12            51.8643956802      -14.9781333396       18.1007865508  MEMB      153             0.0000000000
     19063       153  PMPE      H12A           51.1139611205      -14.1840215295       18.3021704656  MEMB      153             0.0000000000
     19064       153  PMPE      H12B           52.2112347278      -14.7392166911       17.0727095285  MEMB      153             0.0000000000
     19065       153  PMPE      C11            52.9531018091      -14.9882611825       19.1098086291  MEMB      153             0.0000000000
     19066       153  PMPE      H11A           52.6519380037      -15.3616307863       20.1119146927  MEMB      153             0.0000000000
     19067       153  PMPE      H11B           53.4469353407      -13.9937373813       19.1468437023  MEMB      153             0.0000000000
     19068       153  PMPE      P              55.2351875128      -16.3743012246       19.4292557446  MEMB      153             0.0000000000
     19069       153  PMPE      O13            55.2093839303      -17.8643994154       19.5877760851  MEMB      153             0.0000000000
     19070       153  PMPE      O14            55.3129694128      -15.5757104174       20.6829184810  MEMB      153             0.0000000000
     19071       153  PMPE      O11            56.3742845080      -15.8953666221       18.3883761999  MEMB      153             0.0000000000
     19072       153  PMPE      O12            53.9868126202      -15.8655528064       18.6204433364  MEMB      153             0.0000000000
     19073       153  PMPE      C1             56.5475118384      -16.7891718361       17.2861628066  MEMB      153             0.0000000000
     19074       153  PMPE      HA             55.5615883977      -17.1217519516       16.8967191407  MEMB      153             0.0000000000
     19075       153  PMPE      HB             57.1458336211      -17.6797778590       17.5745253016  MEMB      153             0.0000000000
     19076       153  PMPE      C2             57.3857907968      -16.1799137910       16.1463718118  MEMB      153             0.0000000000
     19077       153  PMPE      HS             58.3907454824      -16.0092328649       16.5882483904  MEMB      153             0.0000000000
     19078       153  PMPE      O21            56.6995651709      -14.9345217882       15.8098051280  MEMB      153             0.0000000000
     19079       153  PMPE      C21            57.4694846664      -13.9504196459       15.2542257131  MEMB      153             0.0000000000
     19080       153  PMPE      O22            58.6793665470      -13.9124429743       15.2421480956  MEMB      153             0.0000000000
     19081       153  PMPE      C22            56.4921916128      -12.8510194076       14.7275677544  MEMB      153             0.0000000000
     19082       153  PMPE      H2R            55.8540675721      -12.4305370366       15.5339877923  MEMB      153             0.0000000000
     19083       153  PMPE      H2S            55.8852746662      -13.3790824741       13.9613287343  MEMB      153             0.0000000000
     19084       153  PMPE      C3             57.4343305147      -17.1525199151       14.9183573864  MEMB      153             0.0000000000
     19085       153  PMPE      HX             57.9147002757      -18.1308423020       15.1338824863  MEMB      153             0.0000000000
     19086       153  PMPE      HY             58.0767167448      -16.6639601743       14.1548325931  MEMB      153             0.0000000000
     19087       153  PMPE      O31            56.0831910187      -17.4591196914       14.4692825008  MEMB      153             0.0000000000
     19088       153  PMPE      C31            55.6153916144      -16.9439279856       13.3701482079  MEMB      153             0.0000000000
     19089       153  PMPE      O32            56.1238626286      -15.9551824704       12.7981608149  MEMB      153             0.0000000000
     19090       153  PMPE      C32            54.4323078599      -17.7310587230       12.7709244057  MEMB      153             0.0000000000
     19091       153  PMPE      H2X            53.5212149704      -17.5383219368       13.3767986214  MEMB      153             0.0000000000
     19092       153  PMPE      H2Y            54.6296090736      -18.8228905359       12.8283368560  MEMB      153             0.0000000000
     19093       153  PMPE      C23            57.3406932855      -11.7756440967       13.9181102797  MEMB      153             0.0000000000
     19094       153  PMPE      H3R            58.3592137917      -11.6938329217       14.3542796497  MEMB      153             0.0000000000
     19095       153  PMPE      H3S            56.7521318884      -10.8549537012       14.1187243726  MEMB      153             0.0000000000
     19096       153  PMPE      C24            57.4724732081      -12.0474766958       12.3691042870  MEMB      153             0.0000000000
     19097       153  PMPE      H4R            57.7097705627      -11.0537457556       11.9326306008  MEMB      153             0.0000000000
     19098       153  PMPE      H4S            56.4921440898      -12.2810954088       11.9014526244  MEMB      153             0.0000000000
     19099       153  PMPE      C25            58.4219004651      -13.1435754955       11.9628672377  MEMB      153             0.0000000000
     19100       153  PMPE      H5R            57.9764206323      -14.0938766602       12.3272791805  MEMB      153             0.0000000000
     19101       153  PMPE      H5S            59.3994995078      -13.0390249686       12.4802552790  MEMB      153             0.0000000000
     19102       153  PMPE      C26            58.6388365426      -13.2812580530       10.4708576124  MEMB      153             0.0000000000
     19103       153  PMPE      H6R            59.5956887787      -13.8149518325       10.2866686677  MEMB      153             0.0000000000
     19104       153  PMPE      H6S            58.6919575749      -12.2509844690       10.0585038210  MEMB      153             0.0000000000
     19105       153  PMPE      C27            57.4855372421      -14.0211699427        9.8028974142  MEMB      153             0.0000000000
     19106       153  PMPE      H7R            56.5893692670      -13.3879418329        9.9767530847  MEMB      153             0.0000000000
     19107       153  PMPE      H7S            57.3618558494      -14.9982439546       10.3170474395  MEMB      153             0.0000000000
     19108       153  PMPE      C28            57.6964477240      -14.2158157135        8.3093047883  MEMB      153             0.0000000000
     19109       153  PMPE      H8R            58.6701048283      -14.7265991872        8.1498903966  MEMB      153             0.0000000000
     19110       153  PMPE      H8S            57.7812176873      -13.2082881477        7.8488446061  MEMB      153             0.0000000000
     19111       153  PMPE      C29            56.5848981760      -14.8999109054        7.5506567110  MEMB      153             0.0000000000
     19112       153  PMPE      H9R            56.3255475650      -15.8686604029        8.0287604200  MEMB      153             0.0000000000
     19113       153  PMPE      C217           56.6927107695      -14.7967084687        6.0272279819  MEMB      153             0.0000000000
     19114       153  PMPE      H17R           56.3278418415      -15.6110334386        5.4135224510  MEMB      153             0.0000000000
     19115       153  PMPE      H17S           57.4054568789      -14.0952864147        5.6114284691  MEMB      153             0.0000000000
     19116       153  PMPE      C210           55.5419326200      -14.1338823267        6.7766192840  MEMB      153             0.0000000000
     19117       153  PMPE      H10R           54.5262245805      -14.5840577038        6.7760966443  MEMB      153             0.0000000000
     19118       153  PMPE      C211           55.4978023084      -12.5842312951        6.9696394600  MEMB      153             0.0000000000
     19119       153  PMPE      H11R           56.2378692554      -12.0200923847        6.3627053790  MEMB      153             0.0000000000
     19120       153  PMPE      H11S           55.5650410830      -12.4446938707        8.0697889644  MEMB      153             0.0000000000
     19121       153  PMPE      C212           54.0994514186      -12.2262186315        6.6216258419  MEMB      153             0.0000000000
     19122       153  PMPE      H12R           53.9106762163      -11.1604795708        6.8723940353  MEMB      153             0.0000000000
     19123       153  PMPE      H12S           53.4976540829      -12.8739877848        7.2943496120  MEMB      153             0.0000000000
     19124       153  PMPE      C213           53.6926819315      -12.5746955292        5.1605827209  MEMB      153             0.0000000000
     19125       153  PMPE      H13R           52.5817432432      -12.5709344650        5.1716335035  MEMB      153             0.0000000000
     19126       153  PMPE      H13S           54.0546997904      -13.5608449410        4.7989564160  MEMB      153             0.0000000000
     19127       153  PMPE      C214           54.1585050968      -11.4381823332        4.2722198235  MEMB      153             0.0000000000
     19128       153  PMPE      H14R           55.2625204042      -11.3994088409        4.1540350764  MEMB      153             0.0000000000
     19129       153  PMPE      H14S           53.7927533843      -10.4999805130        4.7416073109  MEMB      153             0.0000000000
     19130       153  PMPE      C215           53.4807898280      -11.3816165394        2.8898388211  MEMB      153             0.0000000000
     19131       153  PMPE      H15R           53.8301594484      -12.3552272575        2.4844460824  MEMB      153             0.0000000000
     19132       153  PMPE      H15S           53.7509505400      -10.5196837509        2.2429957695  MEMB      153             0.0000000000
     19133       153  PMPE      C216           51.9135828088      -11.4499566309        2.8337068525  MEMB      153             0.0000000000
     19134       153  PMPE      H16R           51.5420222898      -11.1518817232        1.8300063535  MEMB      153             0.0000000000
     19135       153  PMPE      H16S           51.4803964849      -12.4725766120        2.8640241985  MEMB      153             0.0000000000
     19136       153  PMPE      H16T           51.4428982154      -10.8140887505        3.6137387425  MEMB      153             0.0000000000
     19137       153  PMPE      C33            54.0774927438      -17.3011745541       11.2816184868  MEMB      153             0.0000000000
     19138       153  PMPE      H3X            54.9835857169      -17.5690423851       10.6971843857  MEMB      153             0.0000000000
     19139       153  PMPE      H3Y            54.0486733358      -16.2060492902       11.0967105660  MEMB      153             0.0000000000
     19140       153  PMPE      C34            52.8374725075      -18.0003700260       10.6358121232  MEMB      153             0.0000000000
     19141       153  PMPE      H4X            51.8894786234      -17.7541774614       11.1602336951  MEMB      153             0.0000000000
     19142       153  PMPE      H4Y            52.9556803844      -19.0756043225       10.8892269483  MEMB      153             0.0000000000
     19143       153  PMPE      C35            52.7548712360      -17.9848430297        9.0893080313  MEMB      153             0.0000000000
     19144       153  PMPE      H5X            52.9110230225      -18.9892103537        8.6407738372  MEMB      153             0.0000000000
     19145       153  PMPE      H5Y            53.6117946613      -17.3584198650        8.7612884056  MEMB      153             0.0000000000
     19146       153  PMPE      C36            51.4809501584      -17.4325487757        8.3938699504  MEMB      153             0.0000000000
     19147       153  PMPE      H6X            51.4230669195      -16.3261843214        8.4771050477  MEMB      153             0.0000000000
     19148       153  PMPE      H6Y            50.6349529007      -17.8073352549        9.0088033478  MEMB      153             0.0000000000
     19149       153  PMPE      C37            51.0717467957      -17.9344905257        6.9904703754  MEMB      153             0.0000000000
     19150       153  PMPE      H7X            50.2482951319      -17.2789576462        6.6347657126  MEMB      153             0.0000000000
     19151       153  PMPE      H7Y            50.7273170167      -18.9900447085        7.0291296272  MEMB      153             0.0000000000
     19152       153  PMPE      C38            52.2724001744      -17.8247630465        5.9523249509  MEMB      153             0.0000000000
     19153       153  PMPE      H8X            53.1148471480      -18.4002526730        6.3921156764  MEMB      153             0.0000000000
     19154       153  PMPE      H8Y            52.6156165652      -16.7696762661        5.8947450108  MEMB      153             0.0000000000
     19155       153  PMPE      C39            52.0358650128      -18.3200384138        4.5020708764  MEMB      153             0.0000000000
     19156       153  PMPE      H9X            50.9477521803      -18.1296732866        4.3833576869  MEMB      153             0.0000000000
     19157       153  PMPE      H9Y            52.1870860819      -19.4194019219        4.4486568288  MEMB      153             0.0000000000
     19158       153  PMPE      C310           52.9939898305      -17.6876154319        3.4748010259  MEMB      153             0.0000000000
     19159       153  PMPE      H10X           54.0663965030      -17.8537291937        3.7128574893  MEMB      153             0.0000000000
     19160       153  PMPE      H10Y           52.8995078701      -16.6104730188        3.7300624952  MEMB      153             0.0000000000
     19161       153  PMPE      C311           52.5870942449      -17.9721454471        2.0437557089  MEMB      153             0.0000000000
     19162       153  PMPE      H11X           51.5790673559      -18.3955343117        1.8464118423  MEMB      153             0.0000000000
     19163       153  PMPE      H11Y           53.2032634027      -18.8428327755        1.7330153511  MEMB      153             0.0000000000
     19164       153  PMPE      C312           52.7984992496      -16.6963023139        1.1388168580  MEMB      153             0.0000000000
     19165       153  PMPE      H12X           53.7996931680      -16.3103073151        1.4268099013  MEMB      153             0.0000000000
     19166       153  PMPE      H12Y           52.0519760196      -15.8817780338        1.2553268584  MEMB      153             0.0000000000
     19167       153  PMPE      C313           52.6842811177      -16.9044242969       -0.3458441784  MEMB      153             0.0000000000
     19168       153  PMPE      H13X           51.6882391465      -17.3513044965       -0.5520459770  MEMB      153             0.0000000000
     19169       153  PMPE      H13Y           53.4190137576      -17.6777585332       -0.6563968366  MEMB      153             0.0000000000
     19170       153  PMPE      C314           52.7695237320      -15.6169613262       -1.2091172959  MEMB      153             0.0000000000
     19171       153  PMPE      H14X           51.7708780598      -15.1457990133       -1.0865067222  MEMB      153             0.0000000000
     19172       153  PMPE      H14Y           52.9230691958      -15.8167242626       -2.2911715998  MEMB      153             0.0000000000
     19173       153  PMPE      C315           53.9163960585      -14.6481203152       -0.6280910770  MEMB      153             0.0000000000
     19174       153  PMPE      H15X           53.7466975857      -14.4576465086        0.4532258629  MEMB      153             0.0000000000
     19175       153  PMPE      H15Y           53.8035305288      -13.7005213154       -1.1969821934  MEMB      153             0.0000000000
     19176       153  PMPE      C316           55.2993142231      -15.2326875346       -0.8305996104  MEMB      153             0.0000000000
     19177       153  PMPE      H16X           55.3093396929      -16.2999827964       -0.5222142700  MEMB      153             0.0000000000
     19178       153  PMPE      H16Y           56.0727299826      -14.6564949594       -0.2791000953  MEMB      153             0.0000000000
     19179       153  PMPE      H16Z           55.5111131847      -15.1362501436       -1.9169514752  MEMB      153             0.0000000000
     19180       154  OYPE      N             -32.2282679478       43.7121630819       21.0948500847  MEMB      154             0.0000000000
     19181       154  OYPE      HN1           -31.6290563162       43.7705131740       20.2468284118  MEMB      154             0.0000000000
     19182       154  OYPE      HN2           -31.7185401340       43.9967574134       21.9555380501  MEMB      154             0.0000000000
     19183       154  OYPE      HN3           -32.6451090906       42.7612330100       21.1546445543  MEMB      154             0.0000000000
     19184       154  OYPE      C12           -33.4282159101       44.6035227029       20.9055293365  MEMB      154             0.0000000000
     19185       154  OYPE      H12A          -33.9955895583       44.7015544711       21.8556860006  MEMB      154             0.0000000000
     19186       154  OYPE      H12B          -34.1094351541       44.0249988879       20.2455508702  MEMB      154             0.0000000000
     19187       154  OYPE      C11           -33.1088121280       46.0115481684       20.3913423168  MEMB      154             0.0000000000
     19188       154  OYPE      H11A          -32.3231822277       46.4605690763       21.0359250625  MEMB      154             0.0000000000
     19189       154  OYPE      H11B          -33.9964018851       46.6677435170       20.5174895802  MEMB      154             0.0000000000
     19190       154  OYPE      P             -33.7051694000       45.9825309543       17.8623264281  MEMB      154             0.0000000000
     19191       154  OYPE      O13           -33.0602082342       46.9182946086       16.9189008417  MEMB      154             0.0000000000
     19192       154  OYPE      O14           -35.0688233729       46.2975767954       18.4022688035  MEMB      154             0.0000000000
     19193       154  OYPE      O11           -33.6562382131       44.5041729759       17.3079014019  MEMB      154             0.0000000000
     19194       154  OYPE      O12           -32.7100207656       45.9227082856       19.1168808122  MEMB      154             0.0000000000
     19195       154  OYPE      C1            -32.4811324723       43.7204589807       17.4231120511  MEMB      154             0.0000000000
     19196       154  OYPE      HA            -32.4832270312       43.1373975945       18.3688160908  MEMB      154             0.0000000000
     19197       154  OYPE      HB            -31.5483819046       44.3140179509       17.3136351815  MEMB      154             0.0000000000
     19198       154  OYPE      C2            -32.5491811803       42.5267149869       16.3782071483  MEMB      154             0.0000000000
     19199       154  OYPE      HS            -31.5569356579       42.0286056847       16.3375015137  MEMB      154             0.0000000000
     19200       154  OYPE      O21           -32.8145603795       43.0744331093       15.0452201875  MEMB      154             0.0000000000
     19201       154  OYPE      C21           -31.8174532547       43.5487396291       14.3883016196  MEMB      154             0.0000000000
     19202       154  OYPE      O22           -30.6500076732       43.6985020783       14.8442351846  MEMB      154             0.0000000000
     19203       154  OYPE      C22           -32.2905103293       44.0008949096       13.0129065184  MEMB      154             0.0000000000
     19204       154  OYPE      H2R           -32.4136676213       45.1007998798       13.1096647494  MEMB      154             0.0000000000
     19205       154  OYPE      H2S           -33.2223844158       43.4887374175       12.6909960593  MEMB      154             0.0000000000
     19206       154  OYPE      C3            -33.7044416055       41.5615048910       16.7840259472  MEMB      154             0.0000000000
     19207       154  OYPE      HX            -33.9106043064       41.3065659743       17.8455457183  MEMB      154             0.0000000000
     19208       154  OYPE      HY            -33.4854833694       40.5774542044       16.3170967840  MEMB      154             0.0000000000
     19209       154  OYPE      O31           -34.8777651836       42.0236930487       16.0879859385  MEMB      154             0.0000000000
     19210       154  OYPE      C31           -35.8503308093       42.6136190574       16.7316079075  MEMB      154             0.0000000000
     19211       154  OYPE      O32           -35.9495985774       42.7095549755       17.9400234408  MEMB      154             0.0000000000
     19212       154  OYPE      C32           -36.8948754392       43.1080660798       15.7001410574  MEMB      154             0.0000000000
     19213       154  OYPE      H2X           -37.2076947303       42.1943856173       15.1509115221  MEMB      154             0.0000000000
     19214       154  OYPE      H2Y           -37.8336088115       43.5057342517       16.1416847817  MEMB      154             0.0000000000
     19215       154  OYPE      C23           -31.1154244391       43.9515931277       12.0235417947  MEMB      154             0.0000000000
     19216       154  OYPE      H3R           -30.1930927495       44.3792491460       12.4715767694  MEMB      154             0.0000000000
     19217       154  OYPE      H3S           -31.3768696273       44.5726597984       11.1402278117  MEMB      154             0.0000000000
     19218       154  OYPE      C24           -30.8915031792       42.4354110686       11.6265136505  MEMB      154             0.0000000000
     19219       154  OYPE      H4R           -31.7770869888       42.1732673445       11.0089836583  MEMB      154             0.0000000000
     19220       154  OYPE      H4S           -30.7421876377       41.8421224934       12.5538940207  MEMB      154             0.0000000000
     19221       154  OYPE      C25           -29.5253227405       42.1691472370       10.7518494342  MEMB      154             0.0000000000
     19222       154  OYPE      H5R           -29.5730629682       41.0843861119       10.5166149184  MEMB      154             0.0000000000
     19223       154  OYPE      H5S           -28.6461315526       42.4457688181       11.3721913464  MEMB      154             0.0000000000
     19224       154  OYPE      C26           -29.4197527183       43.0530110274        9.5430696595  MEMB      154             0.0000000000
     19225       154  OYPE      H6R           -29.0194015248       44.0143648184        9.9301598965  MEMB      154             0.0000000000
     19226       154  OYPE      H6S           -30.4875670489       43.1604490884        9.2557535172  MEMB      154             0.0000000000
     19227       154  OYPE      C27           -28.7124005795       42.4624311331        8.3282235967  MEMB      154             0.0000000000
     19228       154  OYPE      H7R           -29.1371819169       41.4424314780        8.2121087753  MEMB      154             0.0000000000
     19229       154  OYPE      H7S           -27.6368840791       42.3348823024        8.5758449171  MEMB      154             0.0000000000
     19230       154  OYPE      C28           -28.9627157322       43.2412210863        7.0209465518  MEMB      154             0.0000000000
     19231       154  OYPE      H8R           -28.2882078988       44.1226022242        7.0712204512  MEMB      154             0.0000000000
     19232       154  OYPE      H8S           -30.0035379982       43.5735602520        6.8195494997  MEMB      154             0.0000000000
     19233       154  OYPE      C29           -28.3679652815       42.4607945003        5.8965427207  MEMB      154             0.0000000000
     19234       154  OYPE      H9R           -27.4198024394       42.9141047130        5.5717402837  MEMB      154             0.0000000000
     19235       154  OYPE      C210          -28.8961790778       41.4526778648        5.1654171042  MEMB      154             0.0000000000
     19236       154  OYPE      H10R          -28.3822254216       40.8858609745        4.3751194252  MEMB      154             0.0000000000
     19237       154  OYPE      C211          -30.2623988024       40.8223776040        5.2846121877  MEMB      154             0.0000000000
     19238       154  OYPE      H11R          -30.8068161664       41.3367135045        6.1052158185  MEMB      154             0.0000000000
     19239       154  OYPE      H11S          -30.1924106569       39.7532452202        5.5785150606  MEMB      154             0.0000000000
     19240       154  OYPE      C212          -31.1832259304       40.9248735409        4.0529815040  MEMB      154             0.0000000000
     19241       154  OYPE      H12R          -31.2046240705       42.0128918966        3.8291979331  MEMB      154             0.0000000000
     19242       154  OYPE      H12S          -32.1920819544       40.5510789354        4.3301242158  MEMB      154             0.0000000000
     19243       154  OYPE      C213          -30.7076431687       40.1151745937        2.8696581704  MEMB      154             0.0000000000
     19244       154  OYPE      H13R          -31.0883411987       39.0722065970        2.9097542196  MEMB      154             0.0000000000
     19245       154  OYPE      H13S          -29.5973355589       40.0784574294        2.8834574447  MEMB      154             0.0000000000
     19246       154  OYPE      C214          -31.0164387824       40.7834859541        1.4930738918  MEMB      154             0.0000000000
     19247       154  OYPE      H14R          -30.2957109023       41.6032029368        1.2858622060  MEMB      154             0.0000000000
     19248       154  OYPE      H14S          -32.0489623613       41.1650007538        1.6436134056  MEMB      154             0.0000000000
     19249       154  OYPE      C215          -30.9915102344       39.7946246661        0.3113927668  MEMB      154             0.0000000000
     19250       154  OYPE      H15R          -31.3760549457       40.4226411314       -0.5204975911  MEMB      154             0.0000000000
     19251       154  OYPE      H15S          -31.8704815525       39.1414035648        0.4985635487  MEMB      154             0.0000000000
     19252       154  OYPE      C216          -29.6502107813       38.9962379919       -0.0402760331  MEMB      154             0.0000000000
     19253       154  OYPE      H16R          -29.7524838739       38.2348513048       -0.8428650748  MEMB      154             0.0000000000
     19254       154  OYPE      H16S          -29.2352995407       38.4242975877        0.8170767763  MEMB      154             0.0000000000
     19255       154  OYPE      H16T          -28.8831000006       39.7864737557       -0.1865266982  MEMB      154             0.0000000000
     19256       154  OYPE      C33           -36.2966199965       44.0336760091       14.6167893496  MEMB      154             0.0000000000
     19257       154  OYPE      H3X           -35.3795057123       43.5725793308       14.1918044753  MEMB      154             0.0000000000
     19258       154  OYPE      H3Y           -36.2277855507       45.0841312809       14.9719325428  MEMB      154             0.0000000000
     19259       154  OYPE      C34           -37.3006830841       44.0283287531       13.4365894605  MEMB      154             0.0000000000
     19260       154  OYPE      H4X           -37.1297781476       43.0890306578       12.8684067640  MEMB      154             0.0000000000
     19261       154  OYPE      H4Y           -38.3444113480       44.1784231657       13.7864817265  MEMB      154             0.0000000000
     19262       154  OYPE      C35           -36.9944723081       45.2632741779       12.4974505640  MEMB      154             0.0000000000
     19263       154  OYPE      H5X           -37.1792795125       46.1399107758       13.1544703957  MEMB      154             0.0000000000
     19264       154  OYPE      H5Y           -37.7458944183       45.2201851551       11.6802427120  MEMB      154             0.0000000000
     19265       154  OYPE      C36           -35.5252783796       45.3193043285       11.8822362825  MEMB      154             0.0000000000
     19266       154  OYPE      H6X           -34.8558375176       45.1211619111       12.7464755502  MEMB      154             0.0000000000
     19267       154  OYPE      H6Y           -35.4885161903       44.4245489603       11.2246780648  MEMB      154             0.0000000000
     19268       154  OYPE      C37           -35.2531779854       46.5669478859       11.0496536758  MEMB      154             0.0000000000
     19269       154  OYPE      H7X           -36.0519887438       46.6371231068       10.2806950212  MEMB      154             0.0000000000
     19270       154  OYPE      H7Y           -35.3489371626       47.4265695082       11.7469354138  MEMB      154             0.0000000000
     19271       154  OYPE      C38           -33.8227284273       46.6892063799       10.4904292293  MEMB      154             0.0000000000
     19272       154  OYPE      H8X           -33.6309563249       47.7469421617       10.2098235069  MEMB      154             0.0000000000
     19273       154  OYPE      H8Y           -33.1380159898       46.6686003581       11.3651094740  MEMB      154             0.0000000000
     19274       154  OYPE      C39           -33.5746091533       45.6481766323        9.4335446873  MEMB      154             0.0000000000
     19275       154  OYPE      H9X           -33.0776652020       44.7216544414        9.7569688303  MEMB      154             0.0000000000
     19276       154  OYPE      C310          -33.9423422892       45.7244632639        8.1620503987  MEMB      154             0.0000000000
     19277       154  OYPE      H10X          -33.8578240931       44.7744101074        7.6140937138  MEMB      154             0.0000000000
     19278       154  OYPE      C311          -34.5671726858       46.8523262221        7.4032180370  MEMB      154             0.0000000000
     19279       154  OYPE      H11X          -35.6071331694       46.6034907770        7.1017488213  MEMB      154             0.0000000000
     19280       154  OYPE      H11Y          -34.8051979042       47.6988636106        8.0822165846  MEMB      154             0.0000000000
     19281       154  OYPE      C312          -33.7628088537       47.3740066078        6.1239671927  MEMB      154             0.0000000000
     19282       154  OYPE      H12X          -34.3383966673       48.2675616073        5.8005803057  MEMB      154             0.0000000000
     19283       154  OYPE      H12Y          -33.7554350784       46.6799796887        5.2564457840  MEMB      154             0.0000000000
     19284       154  OYPE      C313          -32.2515054795       47.6619899444        6.2251829608  MEMB      154             0.0000000000
     19285       154  OYPE      H13X          -32.0921274274       48.5645316039        6.8531466170  MEMB      154             0.0000000000
     19286       154  OYPE      H13Y          -31.8325035969       46.9108695600        6.9284441669  MEMB      154             0.0000000000
     19287       154  OYPE      C314          -31.4491696929       47.6873942821        4.9072892099  MEMB      154             0.0000000000
     19288       154  OYPE      H14X          -30.4680518612       48.1933475529        5.0327493592  MEMB      154             0.0000000000
     19289       154  OYPE      H14Y          -31.9661254429       48.4687008015        4.3100974240  MEMB      154             0.0000000000
     19290       154  OYPE      C315          -31.3118382623       46.3463947226        4.1021270819  MEMB      154             0.0000000000
     19291       154  OYPE      H15X          -32.2766341278       46.0814178499        3.6191392489  MEMB      154             0.0000000000
     19292       154  OYPE      H15Y          -31.1407077254       45.5710835700        4.8792552059  MEMB      154             0.0000000000
     19293       154  OYPE      C316          -30.1335494821       46.4916161871        3.1402397390  MEMB      154             0.0000000000
     19294       154  OYPE      H16X          -29.2731196047       46.7750393156        3.7833980758  MEMB      154             0.0000000000
     19295       154  OYPE      H16Y          -30.4163922449       47.3728600864        2.5256423309  MEMB      154             0.0000000000
     19296       154  OYPE      C317          -29.9611685512       45.3004504263        2.2578299982  MEMB      154             0.0000000000
     19297       154  OYPE      H17X          -29.5839374130       44.4321764876        2.8393088689  MEMB      154             0.0000000000
     19298       154  OYPE      H17Y          -29.0819667499       45.4730701988        1.6009231343  MEMB      154             0.0000000000
     19299       154  OYPE      C318          -31.1668277362       44.9190900612        1.3566319435  MEMB      154             0.0000000000
     19300       154  OYPE      H18X          -31.7887466797       45.8142135170        1.1414754020  MEMB      154             0.0000000000
     19301       154  OYPE      H18Y          -30.7502255983       44.5028373820        0.4145617095  MEMB      154             0.0000000000
     19302       154  OYPE      H18Z          -31.6567038181       44.0607422758        1.8641568163  MEMB      154             0.0000000000
     19303       155  QMPE      N              54.9421486729       19.7629996746       18.5488312716  MEMB      155             0.0000000000
     19304       155  QMPE      HN1            55.1434158035       20.5603794116       17.9122175181  MEMB      155             0.0000000000
     19305       155  QMPE      HN2            55.7873584739       19.5048077895       19.0970625959  MEMB      155             0.0000000000
     19306       155  QMPE      HN3            54.6620211847       18.9375977323       17.9815215855  MEMB      155             0.0000000000
     19307       155  QMPE      C12            53.8940778866       20.2976522338       19.4495733739  MEMB      155             0.0000000000
     19308       155  QMPE      H12A           54.3342680992       21.0076113876       20.1820428617  MEMB      155             0.0000000000
     19309       155  QMPE      H12B           53.4552761164       19.4195892618       19.9699381256  MEMB      155             0.0000000000
     19310       155  QMPE      C11            52.9121537551       20.9972402649       18.5493023791  MEMB      155             0.0000000000
     19311       155  QMPE      H11A           52.5604587862       20.2595380212       17.7966888868  MEMB      155             0.0000000000
     19312       155  QMPE      H11B           53.4173615387       21.8972139830       18.1380439541  MEMB      155             0.0000000000
     19313       155  QMPE      P              50.9697961142       22.7322072147       19.1571364382  MEMB      155             0.0000000000
     19314       155  QMPE      O13            51.5494594092       23.6919688884       20.0765609335  MEMB      155             0.0000000000
     19315       155  QMPE      O14            49.5361302103       22.4324865261       19.3088732690  MEMB      155             0.0000000000
     19316       155  QMPE      O11            51.2017327914       23.1932681033       17.6583656145  MEMB      155             0.0000000000
     19317       155  QMPE      O12            51.7154275789       21.3914267172       19.2513567238  MEMB      155             0.0000000000
     19318       155  QMPE      C1             50.7415975924       22.4419849561       16.5531488215  MEMB      155             0.0000000000
     19319       155  QMPE      HA             49.6352843508       22.5316446286       16.6016584873  MEMB      155             0.0000000000
     19320       155  QMPE      HB             50.9029177093       21.3485395909       16.6657273157  MEMB      155             0.0000000000
     19321       155  QMPE      C2             51.2053529811       23.0100334799       15.1786228059  MEMB      155             0.0000000000
     19322       155  QMPE      HS             51.0743167130       22.1584774807       14.4771937937  MEMB      155             0.0000000000
     19323       155  QMPE      O21            52.5846851087       23.5519033149       15.2234785538  MEMB      155             0.0000000000
     19324       155  QMPE      C21            53.4540329376       22.6095829901       15.2108501805  MEMB      155             0.0000000000
     19325       155  QMPE      O22            53.2367354168       21.4182656724       15.3639606929  MEMB      155             0.0000000000
     19326       155  QMPE      C22            54.7524603720       23.2954765073       14.8904306806  MEMB      155             0.0000000000
     19327       155  QMPE      H2R            54.9520510228       23.9178553138       15.7888344634  MEMB      155             0.0000000000
     19328       155  QMPE      H2S            54.7124368460       24.0220734757       14.0509215132  MEMB      155             0.0000000000
     19329       155  QMPE      C3             50.2348496684       24.1213170891       14.8232938878  MEMB      155             0.0000000000
     19330       155  QMPE      HX             50.3299476607       24.9059792145       15.6040517973  MEMB      155             0.0000000000
     19331       155  QMPE      HY             49.1724977197       23.8012684909       14.8807244753  MEMB      155             0.0000000000
     19332       155  QMPE      O31            50.5773788605       24.6610388673       13.5082296477  MEMB      155             0.0000000000
     19333       155  QMPE      C31            51.2922986868       25.7833063400       13.5150046962  MEMB      155             0.0000000000
     19334       155  QMPE      O32            51.8381974925       26.3685124069       14.4752462275  MEMB      155             0.0000000000
     19335       155  QMPE      C32            51.3047583371       26.3933706653       12.0473237876  MEMB      155             0.0000000000
     19336       155  QMPE      H2X            50.2298425306       26.4935761855       11.7849582846  MEMB      155             0.0000000000
     19337       155  QMPE      H2Y            51.8347565321       27.3637753214       12.1556637381  MEMB      155             0.0000000000
     19338       155  QMPE      C23            55.8847024604       22.2946644789       14.8942807468  MEMB      155             0.0000000000
     19339       155  QMPE      H3R            55.7820035958       21.3628282008       14.2980806458  MEMB      155             0.0000000000
     19340       155  QMPE      H3S            55.9665662449       21.9470442054       15.9463167572  MEMB      155             0.0000000000
     19341       155  QMPE      C24            57.2169753377       22.9556603022       14.6515192735  MEMB      155             0.0000000000
     19342       155  QMPE      H4R            58.1319146028       22.3866117913       14.9224265068  MEMB      155             0.0000000000
     19343       155  QMPE      H4S            57.1261589973       23.7209788762       15.4517444982  MEMB      155             0.0000000000
     19344       155  QMPE      C25            57.5057983325       23.5643071395       13.2180025858  MEMB      155             0.0000000000
     19345       155  QMPE      H5R            58.5626772033       23.9059937348       13.1939434539  MEMB      155             0.0000000000
     19346       155  QMPE      H5S            56.9487129423       24.5241729719       13.1666768307  MEMB      155             0.0000000000
     19347       155  QMPE      C26            57.0427329426       22.7082620969       11.9988578003  MEMB      155             0.0000000000
     19348       155  QMPE      H6R            57.2245256296       23.2567070383       11.0499215046  MEMB      155             0.0000000000
     19349       155  QMPE      H6S            55.9742690788       22.4241880713       12.1084384718  MEMB      155             0.0000000000
     19350       155  QMPE      C27            57.8334145424       21.3485368927       11.7941543134  MEMB      155             0.0000000000
     19351       155  QMPE      H7R            57.5638517403       20.6732518957       12.6341826375  MEMB      155             0.0000000000
     19352       155  QMPE      H7S            58.9277297940       21.5403513045       11.7928057713  MEMB      155             0.0000000000
     19353       155  QMPE      C28            57.6417463921       20.5931366558       10.4554692330  MEMB      155             0.0000000000
     19354       155  QMPE      H8R            58.3020682431       19.7061057991       10.3483564536  MEMB      155             0.0000000000
     19355       155  QMPE      H8S            58.0133907396       21.4190066062        9.8119311101  MEMB      155             0.0000000000
     19356       155  QMPE      C29            56.2283760175       20.3072258258        9.9908615915  MEMB      155             0.0000000000
     19357       155  QMPE      H9R            55.4504422637       21.0324657121       10.3120579950  MEMB      155             0.0000000000
     19358       155  QMPE      C217           55.7546186966       18.8668646053       10.0015931705  MEMB      155             0.0000000000
     19359       155  QMPE      H17R           56.5820330468       18.2104125677       10.2410617642  MEMB      155             0.0000000000
     19360       155  QMPE      H17S           54.7442260590       18.7251633105       10.3647957130  MEMB      155             0.0000000000
     19361       155  QMPE      C210           55.8917120109       19.5682108031        8.7325487238  MEMB      155             0.0000000000
     19362       155  QMPE      H10R           54.9965283108       19.9448361059        8.1929930509  MEMB      155             0.0000000000
     19363       155  QMPE      C211           56.9727310551       19.0018659597        7.8098613506  MEMB      155             0.0000000000
     19364       155  QMPE      H11R           57.9144154554       18.9652886901        8.3982602887  MEMB      155             0.0000000000
     19365       155  QMPE      H11S           56.8835733347       17.9712697262        7.4045919249  MEMB      155             0.0000000000
     19366       155  QMPE      C212           57.2114867690       19.9420174065        6.6165429014  MEMB      155             0.0000000000
     19367       155  QMPE      H12R           58.2478951942       19.8916695040        6.2194994990  MEMB      155             0.0000000000
     19368       155  QMPE      H12S           57.1231599697       20.8950583972        7.1806635407  MEMB      155             0.0000000000
     19369       155  QMPE      C213           56.1502044068       19.9982493199        5.5312761213  MEMB      155             0.0000000000
     19370       155  QMPE      H13R           55.1635234561       20.2365530000        5.9829313043  MEMB      155             0.0000000000
     19371       155  QMPE      H13S           56.1045812183       18.9371500604        5.2052266316  MEMB      155             0.0000000000
     19372       155  QMPE      C214           56.6537849308       20.9380173585        4.4538365744  MEMB      155             0.0000000000
     19373       155  QMPE      H14R           57.5613361116       20.5232216919        3.9653521892  MEMB      155             0.0000000000
     19374       155  QMPE      H14S           56.9564692452       21.9560837548        4.7797873911  MEMB      155             0.0000000000
     19375       155  QMPE      C215           55.6170167911       20.9843114320        3.3062059122  MEMB      155             0.0000000000
     19376       155  QMPE      H15R           54.5864544234       21.0291396124        3.7188241650  MEMB      155             0.0000000000
     19377       155  QMPE      H15S           55.7172881754       20.0272661906        2.7509320309  MEMB      155             0.0000000000
     19378       155  QMPE      C216           55.9488332630       22.1101359429        2.3217827410  MEMB      155             0.0000000000
     19379       155  QMPE      H16R           55.6620372979       23.0950497903        2.7484135075  MEMB      155             0.0000000000
     19380       155  QMPE      H16S           55.5215150786       21.8983787665        1.3183477918  MEMB      155             0.0000000000
     19381       155  QMPE      H16T           57.0358147071       22.1006122654        2.0922144533  MEMB      155             0.0000000000
     19382       155  QMPE      C33            51.9661859913       25.4868720786       11.0540629623  MEMB      155             0.0000000000
     19383       155  QMPE      H3X            51.9305891749       25.7269069875        9.9698874892  MEMB      155             0.0000000000
     19384       155  QMPE      H3Y            51.5201295768       24.4707284781       11.0010804390  MEMB      155             0.0000000000
     19385       155  QMPE      C34            53.4667727409       25.2846740178       11.4068918451  MEMB      155             0.0000000000
     19386       155  QMPE      H4X            53.5682368541       24.9408027105       12.4584517049  MEMB      155             0.0000000000
     19387       155  QMPE      H4Y            53.9302689402       26.2943730928       11.4066187476  MEMB      155             0.0000000000
     19388       155  QMPE      C35            54.2574259016       24.2961554638       10.5451207649  MEMB      155             0.0000000000
     19389       155  QMPE      H5X            53.5970053642       23.4078115002       10.6400476336  MEMB      155             0.0000000000
     19390       155  QMPE      H5Y            55.2050627274       24.1315719851       11.1011943142  MEMB      155             0.0000000000
     19391       155  QMPE      C36            54.6073971997       24.6290095802        9.0794145510  MEMB      155             0.0000000000
     19392       155  QMPE      H6X            55.1277103250       25.5828794487        8.8476218166  MEMB      155             0.0000000000
     19393       155  QMPE      H6Y            53.6280272256       24.6715600742        8.5565904352  MEMB      155             0.0000000000
     19394       155  QMPE      C37            55.3296242035       23.4358876108        8.4790814421  MEMB      155             0.0000000000
     19395       155  QMPE      H7X            56.3610172648       23.3861824106        8.8890557988  MEMB      155             0.0000000000
     19396       155  QMPE      H7Y            54.7437028783       22.5207216766        8.7103574514  MEMB      155             0.0000000000
     19397       155  QMPE      C38            55.3405876677       23.5275758626        6.9136606466  MEMB      155             0.0000000000
     19398       155  QMPE      H8X            55.9443393528       24.2906063563        6.3773870883  MEMB      155             0.0000000000
     19399       155  QMPE      H8Y            55.9106122354       22.5901089105        6.7388785635  MEMB      155             0.0000000000
     19400       155  QMPE      C39            53.9402392238       23.2527858118        6.3628721922  MEMB      155             0.0000000000
     19401       155  QMPE      H9X            53.2573197487       22.9102817879        7.1694909959  MEMB      155             0.0000000000
     19402       155  QMPE      H9Y            53.9223489595       22.3531590816        5.7112033970  MEMB      155             0.0000000000
     19403       155  QMPE      C310           53.2220935709       24.4939871271        5.7801169624  MEMB      155             0.0000000000
     19404       155  QMPE      H10X           53.8498842259       24.7812676610        4.9096741970  MEMB      155             0.0000000000
     19405       155  QMPE      H10Y           53.2227558170       25.2673631731        6.5777442259  MEMB      155             0.0000000000
     19406       155  QMPE      C311           51.7214728094       24.2233520675        5.4771348782  MEMB      155             0.0000000000
     19407       155  QMPE      H11X           51.0680518042       25.1016274273        5.2874131319  MEMB      155             0.0000000000
     19408       155  QMPE      H11Y           51.2954818973       23.8601835176        6.4368020337  MEMB      155             0.0000000000
     19409       155  QMPE      C312           51.4485454131       23.1395235261        4.3561026364  MEMB      155             0.0000000000
     19410       155  QMPE      H12X           50.5450382001       22.5423221376        4.6037854207  MEMB      155             0.0000000000
     19411       155  QMPE      H12Y           52.2864296976       22.4107163962        4.3894339119  MEMB      155             0.0000000000
     19412       155  QMPE      C313           51.2289715611       23.8043935200        2.9700362999  MEMB      155             0.0000000000
     19413       155  QMPE      H13X           50.4600414267       24.5776284856        2.7574929350  MEMB      155             0.0000000000
     19414       155  QMPE      H13Y           52.2224404531       24.2182397041        2.6942241021  MEMB      155             0.0000000000
     19415       155  QMPE      C314           50.9574919644       22.6683054437        1.9993403295  MEMB      155             0.0000000000
     19416       155  QMPE      H14X           51.6125784397       21.7724713022        2.0509540778  MEMB      155             0.0000000000
     19417       155  QMPE      H14Y           51.2215128941       23.0262645396        0.9812628967  MEMB      155             0.0000000000
     19418       155  QMPE      C315           49.5277493785       22.1167580824        2.0630261270  MEMB      155             0.0000000000
     19419       155  QMPE      H15X           48.7867682044       22.9437246543        2.1003696046  MEMB      155             0.0000000000
     19420       155  QMPE      H15Y           49.4052213230       21.3374802594        1.2806994513  MEMB      155             0.0000000000
     19421       155  QMPE      H15Z           49.4221223016       21.4040886476        2.9087591404  MEMB      155             0.0000000000
     19422       156  PMPE      N             -18.1497311137       54.2321425427       19.4077733143  MEMB      156             0.0000000000
     19423       156  PMPE      HN1           -18.7807080757       55.0278662026       19.1835147791  MEMB      156             0.0000000000
     19424       156  PMPE      HN2           -18.3387788567       53.8284881786       20.3474138780  MEMB      156             0.0000000000
     19425       156  PMPE      HN3           -17.1583350585       54.5463622136       19.4079488318  MEMB      156             0.0000000000
     19426       156  PMPE      C12           -18.3072693156       53.1193983825       18.4268491886  MEMB      156             0.0000000000
     19427       156  PMPE      H12A          -17.3837560521       52.5046349022       18.3676040334  MEMB      156             0.0000000000
     19428       156  PMPE      H12B          -18.5040126046       53.5034912664       17.4030886138  MEMB      156             0.0000000000
     19429       156  PMPE      C11           -19.5502027399       52.2642156533       18.6183199002  MEMB      156             0.0000000000
     19430       156  PMPE      H11A          -19.3018958832       51.6537274597       19.5127296861  MEMB      156             0.0000000000
     19431       156  PMPE      H11B          -19.7246775452       51.4851622847       17.8456909970  MEMB      156             0.0000000000
     19432       156  PMPE      P             -22.0418484694       52.2591898009       19.0894661346  MEMB      156             0.0000000000
     19433       156  PMPE      O13           -21.6598098147       51.1550312480       20.0408268737  MEMB      156             0.0000000000
     19434       156  PMPE      O14           -22.6449289732       51.7768876040       17.7968626933  MEMB      156             0.0000000000
     19435       156  PMPE      O11           -23.0785768092       53.1951266262       19.7802308472  MEMB      156             0.0000000000
     19436       156  PMPE      O12           -20.6935191738       53.0782081456       18.8396710304  MEMB      156             0.0000000000
     19437       156  PMPE      C1            -22.8991870232       54.5970889777       19.6300761067  MEMB      156             0.0000000000
     19438       156  PMPE      HA            -21.8203531497       54.8548096295       19.6934673324  MEMB      156             0.0000000000
     19439       156  PMPE      HB            -23.3891260964       54.9936308411       20.5449723620  MEMB      156             0.0000000000
     19440       156  PMPE      C2            -23.3709107337       55.2576213814       18.2926981686  MEMB      156             0.0000000000
     19441       156  PMPE      HS            -24.0976504925       56.0222929538       18.6411912637  MEMB      156             0.0000000000
     19442       156  PMPE      O21           -23.9368030540       54.3763623837       17.3745068374  MEMB      156             0.0000000000
     19443       156  PMPE      C21           -24.6595533438       54.8246970830       16.3534667894  MEMB      156             0.0000000000
     19444       156  PMPE      O22           -25.0976324450       55.9841778961       16.3221646987  MEMB      156             0.0000000000
     19445       156  PMPE      C22           -25.0210365236       53.7553164759       15.3341886675  MEMB      156             0.0000000000
     19446       156  PMPE      H2R           -25.6459140646       53.0879643602       15.9654494407  MEMB      156             0.0000000000
     19447       156  PMPE      H2S           -24.0861180946       53.2587546444       14.9970319412  MEMB      156             0.0000000000
     19448       156  PMPE      C3            -22.1236309743       55.9779984534       17.6359029932  MEMB      156             0.0000000000
     19449       156  PMPE      HX            -21.4479765408       56.4260188103       18.3955672860  MEMB      156             0.0000000000
     19450       156  PMPE      HY            -22.3727919033       56.8457471279       16.9884065551  MEMB      156             0.0000000000
     19451       156  PMPE      O31           -21.3589805894       55.0585500731       16.8950983349  MEMB      156             0.0000000000
     19452       156  PMPE      C31           -20.7747579328       55.5105633142       15.7916801024  MEMB      156             0.0000000000
     19453       156  PMPE      O32           -20.7415632503       56.5768390101       15.3334361925  MEMB      156             0.0000000000
     19454       156  PMPE      C32           -20.2885672869       54.2341076110       15.1137200914  MEMB      156             0.0000000000
     19455       156  PMPE      H2X           -20.4764958718       53.3326388600       15.7352971916  MEMB      156             0.0000000000
     19456       156  PMPE      H2Y           -19.1834775505       54.2866042065       15.0120260189  MEMB      156             0.0000000000
     19457       156  PMPE      C23           -25.9018254445       54.2456779457       14.1604916765  MEMB      156             0.0000000000
     19458       156  PMPE      H3R           -25.5349241354       55.1284118825       13.5943778901  MEMB      156             0.0000000000
     19459       156  PMPE      H3S           -26.8703227588       54.6169516972       14.5585990951  MEMB      156             0.0000000000
     19460       156  PMPE      C24           -26.1208038609       53.1383183197       13.1158760930  MEMB      156             0.0000000000
     19461       156  PMPE      H4R           -26.9747028297       53.4430397186       12.4737520226  MEMB      156             0.0000000000
     19462       156  PMPE      H4S           -26.3257065377       52.1601185994       13.6011193816  MEMB      156             0.0000000000
     19463       156  PMPE      C25           -25.0041406642       52.8421851759       12.0984006708  MEMB      156             0.0000000000
     19464       156  PMPE      H5R           -25.4905515337       52.2807654504       11.2722450673  MEMB      156             0.0000000000
     19465       156  PMPE      H5S           -24.2037854131       52.1293814800       12.3910840000  MEMB      156             0.0000000000
     19466       156  PMPE      C26           -24.4171310299       54.1061029878       11.3768355861  MEMB      156             0.0000000000
     19467       156  PMPE      H6R           -23.6728526299       54.3951416791       12.1493813510  MEMB      156             0.0000000000
     19468       156  PMPE      H6S           -25.2245721220       54.8687019798       11.3485085039  MEMB      156             0.0000000000
     19469       156  PMPE      C27           -23.7647578293       53.9745973826       10.0385505216  MEMB      156             0.0000000000
     19470       156  PMPE      H7R           -22.9852756415       53.1829422805       10.0418332748  MEMB      156             0.0000000000
     19471       156  PMPE      H7S           -23.2942583940       54.9727260931        9.9093597700  MEMB      156             0.0000000000
     19472       156  PMPE      C28           -24.7482174071       53.7471022613        8.8957254605  MEMB      156             0.0000000000
     19473       156  PMPE      H8R           -25.3349217353       54.6795112035        8.7518055568  MEMB      156             0.0000000000
     19474       156  PMPE      H8S           -25.4259849996       52.9223347947        9.2034762941  MEMB      156             0.0000000000
     19475       156  PMPE      C29           -24.1471226782       53.2917002307        7.5676547270  MEMB      156             0.0000000000
     19476       156  PMPE      H9R           -23.9394062416       52.2019634104        7.5072514533  MEMB      156             0.0000000000
     19477       156  PMPE      C217          -22.9921986695       54.0552235658        7.0132879812  MEMB      156             0.0000000000
     19478       156  PMPE      H17R          -22.2350699357       53.4472568231        6.5336830127  MEMB      156             0.0000000000
     19479       156  PMPE      H17S          -22.8574979859       55.0128263289        7.5008761672  MEMB      156             0.0000000000
     19480       156  PMPE      C210          -24.3416571630       54.0268257256        6.2175898094  MEMB      156             0.0000000000
     19481       156  PMPE      H10R          -24.5623793359       53.3573526733        5.3588651785  MEMB      156             0.0000000000
     19482       156  PMPE      C211          -25.1577021750       55.3721320832        6.3080138548  MEMB      156             0.0000000000
     19483       156  PMPE      H11R          -24.7813766278       56.0607331873        7.0944790705  MEMB      156             0.0000000000
     19484       156  PMPE      H11S          -26.2073579227       55.0983087970        6.5479405841  MEMB      156             0.0000000000
     19485       156  PMPE      C212          -25.1186581249       56.2817030308        5.0784682375  MEMB      156             0.0000000000
     19486       156  PMPE      H12R          -24.2670836405       56.9522246702        5.3224812130  MEMB      156             0.0000000000
     19487       156  PMPE      H12S          -26.0494877486       56.8867460845        5.1208982866  MEMB      156             0.0000000000
     19488       156  PMPE      C213          -24.7559281179       55.7427159117        3.7222625033  MEMB      156             0.0000000000
     19489       156  PMPE      H13R          -23.9634552712       54.9664492618        3.7832335013  MEMB      156             0.0000000000
     19490       156  PMPE      H13S          -24.3130569994       56.5940613336        3.1624437959  MEMB      156             0.0000000000
     19491       156  PMPE      C214          -25.8085986176       54.9395566753        2.9567787438  MEMB      156             0.0000000000
     19492       156  PMPE      H14R          -26.8117859477       55.3979063968        2.8231644936  MEMB      156             0.0000000000
     19493       156  PMPE      H14S          -25.9447952332       53.9673409038        3.4769392188  MEMB      156             0.0000000000
     19494       156  PMPE      C215          -25.3051743551       54.5449776682        1.5239689401  MEMB      156             0.0000000000
     19495       156  PMPE      H15R          -24.3968328335       53.9531822719        1.7668998040  MEMB      156             0.0000000000
     19496       156  PMPE      H15S          -25.1139010978       55.4657268067        0.9323980940  MEMB      156             0.0000000000
     19497       156  PMPE      C216          -26.2028556612       53.5076729890        0.7935557134  MEMB      156             0.0000000000
     19498       156  PMPE      H16R          -26.5363030914       52.6837632298        1.4601183304  MEMB      156             0.0000000000
     19499       156  PMPE      H16S          -27.0920197325       53.9550055847        0.2999954164  MEMB      156             0.0000000000
     19500       156  PMPE      H16T          -25.6176130032       53.1996842797       -0.0991681107  MEMB      156             0.0000000000
     19501       156  PMPE      C33           -20.9524929640       53.9486508826       13.7841113399  MEMB      156             0.0000000000
     19502       156  PMPE      H3X           -20.6314117995       54.7118029844       13.0432830640  MEMB      156             0.0000000000
     19503       156  PMPE      H3Y           -22.0303957639       54.1572107904       13.9542566325  MEMB      156             0.0000000000
     19504       156  PMPE      C34           -20.6417304366       52.4923378847       13.3786078200  MEMB      156             0.0000000000
     19505       156  PMPE      H4X           -21.1181473967       51.8681419575       14.1645641170  MEMB      156             0.0000000000
     19506       156  PMPE      H4Y           -19.5495744974       52.3295296633       13.5011223158  MEMB      156             0.0000000000
     19507       156  PMPE      C35           -21.1078002882       52.1851465655       11.8721400572  MEMB      156             0.0000000000
     19508       156  PMPE      H5X           -20.4151957857       52.8055084989       11.2640520578  MEMB      156             0.0000000000
     19509       156  PMPE      H5Y           -22.1663352451       52.5195259964       11.8272453070  MEMB      156             0.0000000000
     19510       156  PMPE      C36           -21.1064478948       50.6962426060       11.5115864023  MEMB      156             0.0000000000
     19511       156  PMPE      H6X           -21.3300544671       50.1087920135       12.4276773681  MEMB      156             0.0000000000
     19512       156  PMPE      H6Y           -20.1375878001       50.2330375921       11.2268543148  MEMB      156             0.0000000000
     19513       156  PMPE      C37           -22.0948702922       50.3698180866       10.3825100965  MEMB      156             0.0000000000
     19514       156  PMPE      H7X           -23.0368168189       50.8602875304       10.7088494917  MEMB      156             0.0000000000
     19515       156  PMPE      H7Y           -22.3039810644       49.2786901988       10.3767259374  MEMB      156             0.0000000000
     19516       156  PMPE      C38           -21.6489403730       50.8092897983        8.9232467417  MEMB      156             0.0000000000
     19517       156  PMPE      H8X           -21.2193857686       51.8337898984        8.9089892070  MEMB      156             0.0000000000
     19518       156  PMPE      H8Y           -22.5509041922       50.6187116295        8.3031969623  MEMB      156             0.0000000000
     19519       156  PMPE      C39           -20.4713101321       49.9025911028        8.4236129381  MEMB      156             0.0000000000
     19520       156  PMPE      H9X           -20.6608174246       48.8414795372        8.6927788224  MEMB      156             0.0000000000
     19521       156  PMPE      H9Y           -19.6443180299       50.2856940921        9.0589375046  MEMB      156             0.0000000000
     19522       156  PMPE      C310          -20.1717324187       50.0498728049        6.9248425884  MEMB      156             0.0000000000
     19523       156  PMPE      H10X          -19.3280567776       49.3426681715        6.7751952218  MEMB      156             0.0000000000
     19524       156  PMPE      H10Y          -19.7626873320       51.0639279010        6.7281308463  MEMB      156             0.0000000000
     19525       156  PMPE      C311          -21.2022678372       49.6509203213        5.8749194189  MEMB      156             0.0000000000
     19526       156  PMPE      H11X          -22.2290629663       49.9954213329        6.1225718849  MEMB      156             0.0000000000
     19527       156  PMPE      H11Y          -21.1876401363       48.5416679291        5.9354693142  MEMB      156             0.0000000000
     19528       156  PMPE      C312          -20.8726167505       50.1625951440        4.4866601875  MEMB      156             0.0000000000
     19529       156  PMPE      H12X          -19.9292741829       49.6814371774        4.1506350525  MEMB      156             0.0000000000
     19530       156  PMPE      H12Y          -20.9091428338       51.2725460371        4.4551039691  MEMB      156             0.0000000000
     19531       156  PMPE      C313          -21.9560495106       49.6025655799        3.4444898196  MEMB      156             0.0000000000
     19532       156  PMPE      H13X          -22.0928729097       48.5000907083        3.4567174809  MEMB      156             0.0000000000
     19533       156  PMPE      H13Y          -21.6095896617       49.9063540543        2.4335506060  MEMB      156             0.0000000000
     19534       156  PMPE      C314          -23.2669738927       50.4342938007        3.3949706507  MEMB      156             0.0000000000
     19535       156  PMPE      H14X          -23.2470962806       51.5450376209        3.4081634651  MEMB      156             0.0000000000
     19536       156  PMPE      H14Y          -23.7083150098       50.3910338569        4.4136299066  MEMB      156             0.0000000000
     19537       156  PMPE      C315          -24.3515768809       49.8805290550        2.4301544889  MEMB      156             0.0000000000
     19538       156  PMPE      H15X          -25.3886118853       50.1099106593        2.7561354002  MEMB      156             0.0000000000
     19539       156  PMPE      H15Y          -24.3556108090       48.7813485123        2.5917308079  MEMB      156             0.0000000000
     19540       156  PMPE      C316          -24.0627608582       49.9398421208        0.9016170195  MEMB      156             0.0000000000
     19541       156  PMPE      H16X          -24.0986241215       51.0355226556        0.7212870065  MEMB      156             0.0000000000
     19542       156  PMPE      H16Y          -24.8906320939       49.4033842708        0.3905758967  MEMB      156             0.0000000000
     19543       156  PMPE      H16Z          -23.1265033434       49.3826331355        0.6842210394  MEMB      156             0.0000000000
     19544       157  PMPE      N             -48.8189018165      -27.2560781872       19.9598176331  MEMB      157             0.0000000000
     19545       157  PMPE      HN1           -48.2433905582      -27.3625182500       19.1001332249  MEMB      157             0.0000000000
     19546       157  PMPE      HN2           -49.7644345912      -27.1030745610       19.5546536948  MEMB      157             0.0000000000
     19547       157  PMPE      HN3           -48.5634508307      -26.5176718115       20.6461855226  MEMB      157             0.0000000000
     19548       157  PMPE      C12           -48.8570891167      -28.5527614134       20.6705209591  MEMB      157             0.0000000000
     19549       157  PMPE      H12A          -49.4198264922      -28.3130357036       21.5979794928  MEMB      157             0.0000000000
     19550       157  PMPE      H12B          -47.8401304226      -28.7975603492       21.0449396891  MEMB      157             0.0000000000
     19551       157  PMPE      C11           -49.3613703332      -29.6925267713       19.7818060232  MEMB      157             0.0000000000
     19552       157  PMPE      H11A          -50.3960489749      -29.4291310194       19.4745864895  MEMB      157             0.0000000000
     19553       157  PMPE      H11B          -49.2550084038      -30.6181344158       20.3869991296  MEMB      157             0.0000000000
     19554       157  PMPE      P             -47.4024753257      -30.9416279125       18.3347170996  MEMB      157             0.0000000000
     19555       157  PMPE      O13           -47.9195180229      -32.3025148069       18.3416430413  MEMB      157             0.0000000000
     19556       157  PMPE      O14           -46.2967715577      -30.7108030715       19.2996957691  MEMB      157             0.0000000000
     19557       157  PMPE      O11           -46.7745769287      -30.6467845402       16.9424873298  MEMB      157             0.0000000000
     19558       157  PMPE      O12           -48.4717841017      -29.7726688977       18.6693121473  MEMB      157             0.0000000000
     19559       157  PMPE      C1            -46.2357789034      -29.3800109260       16.7198476421  MEMB      157             0.0000000000
     19560       157  PMPE      HA            -45.2269064344      -29.5219148050       16.2767215133  MEMB      157             0.0000000000
     19561       157  PMPE      HB            -45.8182001583      -28.9069250329       17.6342539592  MEMB      157             0.0000000000
     19562       157  PMPE      C2            -47.0581016989      -28.3497043583       15.8604628504  MEMB      157             0.0000000000
     19563       157  PMPE      HS            -47.9500210220      -27.9710913652       16.4040189818  MEMB      157             0.0000000000
     19564       157  PMPE      O21           -47.5127178261      -28.9992109882       14.7155902401  MEMB      157             0.0000000000
     19565       157  PMPE      C21           -48.1851054345      -28.3736781026       13.7981015778  MEMB      157             0.0000000000
     19566       157  PMPE      O22           -48.3685833103      -27.1375464806       13.7339676645  MEMB      157             0.0000000000
     19567       157  PMPE      C22           -48.7376028417      -29.4354161266       12.7805572352  MEMB      157             0.0000000000
     19568       157  PMPE      H2R           -49.4868445527      -28.8565025263       12.1993367006  MEMB      157             0.0000000000
     19569       157  PMPE      H2S           -49.2762469740      -30.2586519204       13.2967608375  MEMB      157             0.0000000000
     19570       157  PMPE      C3            -46.1140626861      -27.1784731869       15.6159096857  MEMB      157             0.0000000000
     19571       157  PMPE      HX            -45.4261495319      -26.9451129579       16.4565280416  MEMB      157             0.0000000000
     19572       157  PMPE      HY            -46.7701427563      -26.3400134239       15.2983167964  MEMB      157             0.0000000000
     19573       157  PMPE      O31           -45.1098096147      -27.5246087341       14.5691724741  MEMB      157             0.0000000000
     19574       157  PMPE      C31           -45.0830458466      -26.6888280438       13.5238156218  MEMB      157             0.0000000000
     19575       157  PMPE      O32           -45.6998642317      -25.6581215253       13.3950946442  MEMB      157             0.0000000000
     19576       157  PMPE      C32           -43.9595312666      -27.1969295625       12.6409170531  MEMB      157             0.0000000000
     19577       157  PMPE      H2X           -44.0999299542      -28.2965938632       12.5677871896  MEMB      157             0.0000000000
     19578       157  PMPE      H2Y           -43.0598224019      -26.8346964906       13.1827953637  MEMB      157             0.0000000000
     19579       157  PMPE      C23           -47.5393441109      -29.9291019601       11.9851726274  MEMB      157             0.0000000000
     19580       157  PMPE      H3R           -46.7852358102      -30.4252099021       12.6328751470  MEMB      157             0.0000000000
     19581       157  PMPE      H3S           -47.0735327554      -29.0007590232       11.5908122091  MEMB      157             0.0000000000
     19582       157  PMPE      C24           -47.9032386214      -30.8775204307       10.8085787437  MEMB      157             0.0000000000
     19583       157  PMPE      H4R           -48.5380436804      -30.3823047904       10.0430043710  MEMB      157             0.0000000000
     19584       157  PMPE      H4S           -48.3308547436      -31.8551142345       11.1180556033  MEMB      157             0.0000000000
     19585       157  PMPE      C25           -46.6352357170      -31.2933527390       10.0782056062  MEMB      157             0.0000000000
     19586       157  PMPE      H5R           -45.8693110463      -31.6488255440       10.8002305452  MEMB      157             0.0000000000
     19587       157  PMPE      H5S           -46.1218449923      -30.4151580996        9.6315235985  MEMB      157             0.0000000000
     19588       157  PMPE      C26           -46.7905871357      -32.4357243590        9.0249201927  MEMB      157             0.0000000000
     19589       157  PMPE      H6R           -47.3301095949      -33.3330763744        9.3963977097  MEMB      157             0.0000000000
     19590       157  PMPE      H6S           -45.7452169860      -32.6082663130        8.6906274702  MEMB      157             0.0000000000
     19591       157  PMPE      C27           -47.6574406567      -31.9177251592        7.7726834666  MEMB      157             0.0000000000
     19592       157  PMPE      H7R           -48.4976442594      -31.3348587346        8.2070168547  MEMB      157             0.0000000000
     19593       157  PMPE      H7S           -47.9575954458      -32.8879787592        7.3223103698  MEMB      157             0.0000000000
     19594       157  PMPE      C28           -46.8681451125      -31.1275311419        6.7466186956  MEMB      157             0.0000000000
     19595       157  PMPE      H8R           -46.3848650846      -30.2305004284        7.1894467828  MEMB      157             0.0000000000
     19596       157  PMPE      H8S           -47.6293396416      -30.7453253281        6.0332997851  MEMB      157             0.0000000000
     19597       157  PMPE      C29           -45.9960599841      -32.0272976150        5.9082402327  MEMB      157             0.0000000000
     19598       157  PMPE      H9R           -46.3439559750      -33.0358846956        5.5983343736  MEMB      157             0.0000000000
     19599       157  PMPE      C217          -44.4258803412      -32.0051988397        6.0279823470  MEMB      157             0.0000000000
     19600       157  PMPE      H17R          -44.1398339616      -33.0285549525        5.8186767829  MEMB      157             0.0000000000
     19601       157  PMPE      H17S          -44.0969678538      -31.2822575179        6.7642302668  MEMB      157             0.0000000000
     19602       157  PMPE      C210          -45.1545110497      -31.4398462747        4.7751659503  MEMB      157             0.0000000000
     19603       157  PMPE      H10R          -45.0117522269      -32.0103203792        3.8325627558  MEMB      157             0.0000000000
     19604       157  PMPE      C211          -44.9448885422      -29.8962344677        4.6120538667  MEMB      157             0.0000000000
     19605       157  PMPE      H11R          -44.1790003523      -29.7613683543        3.8186138876  MEMB      157             0.0000000000
     19606       157  PMPE      H11S          -44.4740563937      -29.4969733666        5.5357581484  MEMB      157             0.0000000000
     19607       157  PMPE      C212          -46.0941300915      -29.1774665079        4.0254845681  MEMB      157             0.0000000000
     19608       157  PMPE      H12R          -45.7953149485      -28.1084014722        3.9793293266  MEMB      157             0.0000000000
     19609       157  PMPE      H12S          -46.9418469855      -29.2871259835        4.7351829060  MEMB      157             0.0000000000
     19610       157  PMPE      C213          -46.4580835303      -29.6454021031        2.6083428782  MEMB      157             0.0000000000
     19611       157  PMPE      H13R          -46.6377767679      -30.7410664223        2.6477285644  MEMB      157             0.0000000000
     19612       157  PMPE      H13S          -45.5140999403      -29.4810560910        2.0460206914  MEMB      157             0.0000000000
     19613       157  PMPE      C214          -47.7232754045      -29.1880327296        1.9688093642  MEMB      157             0.0000000000
     19614       157  PMPE      H14R          -47.6361147031      -28.0952117363        1.7886270123  MEMB      157             0.0000000000
     19615       157  PMPE      H14S          -48.4983658511      -29.3502266439        2.7480718957  MEMB      157             0.0000000000
     19616       157  PMPE      C215          -48.2428318094      -29.8353618184        0.6451696674  MEMB      157             0.0000000000
     19617       157  PMPE      H15R          -49.2240812607      -29.3427005116        0.4755970978  MEMB      157             0.0000000000
     19618       157  PMPE      H15S          -48.4585354219      -30.9006914660        0.8750945903  MEMB      157             0.0000000000
     19619       157  PMPE      C216          -47.1884790177      -29.7661732247       -0.4865506611  MEMB      157             0.0000000000
     19620       157  PMPE      H16R          -46.4028929719      -30.5375181265       -0.3375440460  MEMB      157             0.0000000000
     19621       157  PMPE      H16S          -47.5733801750      -29.9276903297       -1.5161543547  MEMB      157             0.0000000000
     19622       157  PMPE      H16T          -46.9005583689      -28.6958901485       -0.4096297526  MEMB      157             0.0000000000
     19623       157  PMPE      C33           -44.0896547650      -26.5715763761       11.2634371856  MEMB      157             0.0000000000
     19624       157  PMPE      H3X           -43.0875560106      -26.6078376122       10.7851026999  MEMB      157             0.0000000000
     19625       157  PMPE      H3Y           -44.2924712153      -25.4980866105       11.4654419906  MEMB      157             0.0000000000
     19626       157  PMPE      C34           -44.9197200648      -27.2616448584       10.2001695539  MEMB      157             0.0000000000
     19627       157  PMPE      H4X           -45.9341030516      -26.8239234677       10.3174224655  MEMB      157             0.0000000000
     19628       157  PMPE      H4Y           -44.9731082267      -28.3529921075       10.4012474255  MEMB      157             0.0000000000
     19629       157  PMPE      C35           -44.3734783506      -26.9004193319        8.7708415451  MEMB      157             0.0000000000
     19630       157  PMPE      H5X           -43.3795794037      -27.3195364483        8.5047093209  MEMB      157             0.0000000000
     19631       157  PMPE      H5Y           -44.2582655551      -25.8022284188        8.6482703528  MEMB      157             0.0000000000
     19632       157  PMPE      C36           -45.3958033903      -27.2340373600        7.6740897491  MEMB      157             0.0000000000
     19633       157  PMPE      H6X           -45.1616844512      -28.2482596496        7.2856794877  MEMB      157             0.0000000000
     19634       157  PMPE      H6Y           -45.2794394423      -26.6073536424        6.7641183305  MEMB      157             0.0000000000
     19635       157  PMPE      C37           -46.9094307091      -27.2568593064        8.1036998993  MEMB      157             0.0000000000
     19636       157  PMPE      H7X           -47.1231301994      -26.3701391864        8.7380350761  MEMB      157             0.0000000000
     19637       157  PMPE      H7Y           -46.9609803911      -28.0784289688        8.8498146348  MEMB      157             0.0000000000
     19638       157  PMPE      C38           -47.8911515024      -27.5254191105        7.0163078833  MEMB      157             0.0000000000
     19639       157  PMPE      H8X           -47.6440879866      -28.4704221937        6.4869222278  MEMB      157             0.0000000000
     19640       157  PMPE      H8Y           -47.9283645038      -26.7000949334        6.2734919698  MEMB      157             0.0000000000
     19641       157  PMPE      C39           -49.2244493616      -27.6784150627        7.7135278942  MEMB      157             0.0000000000
     19642       157  PMPE      H9X           -49.5212526430      -26.6529153669        8.0210653474  MEMB      157             0.0000000000
     19643       157  PMPE      H9Y           -49.1198163809      -28.2180078092        8.6790390104  MEMB      157             0.0000000000
     19644       157  PMPE      C310          -50.4019527933      -28.1257814634        6.8295879118  MEMB      157             0.0000000000
     19645       157  PMPE      H10X          -51.3247880836      -27.8942769089        7.4032621609  MEMB      157             0.0000000000
     19646       157  PMPE      H10Y          -50.2864568966      -29.2174171286        6.6583769342  MEMB      157             0.0000000000
     19647       157  PMPE      C311          -50.6073062233      -27.1967322040        5.6137555626  MEMB      157             0.0000000000
     19648       157  PMPE      H11X          -49.7917970755      -27.1299821767        4.8622167870  MEMB      157             0.0000000000
     19649       157  PMPE      H11Y          -50.7982228704      -26.1374482117        5.8890534912  MEMB      157             0.0000000000
     19650       157  PMPE      C312          -51.8160077649      -27.6178887706        4.7784786923  MEMB      157             0.0000000000
     19651       157  PMPE      H12X          -52.1216371015      -26.7598798681        4.1422932519  MEMB      157             0.0000000000
     19652       157  PMPE      H12Y          -52.6246898863      -27.9417589619        5.4680165608  MEMB      157             0.0000000000
     19653       157  PMPE      C313          -51.6752997308      -28.8163418675        3.8762734484  MEMB      157             0.0000000000
     19654       157  PMPE      H13X          -51.2835191134      -29.6979848746        4.4272131505  MEMB      157             0.0000000000
     19655       157  PMPE      H13Y          -50.8019057301      -28.4773934376        3.2790986755  MEMB      157             0.0000000000
     19656       157  PMPE      C314          -52.9119730324      -28.9993011080        3.0116681460  MEMB      157             0.0000000000
     19657       157  PMPE      H14X          -53.1506306542      -27.9855250473        2.6248585413  MEMB      157             0.0000000000
     19658       157  PMPE      H14Y          -53.8072898801      -29.2700504607        3.6111871772  MEMB      157             0.0000000000
     19659       157  PMPE      C315          -52.8361188981      -29.9593338423        1.8328992571  MEMB      157             0.0000000000
     19660       157  PMPE      H15X          -52.3793653729      -29.4681699815        0.9472035676  MEMB      157             0.0000000000
     19661       157  PMPE      H15Y          -53.8133414132      -30.2644030560        1.4012861490  MEMB      157             0.0000000000
     19662       157  PMPE      C316          -52.1064232255      -31.2638210335        2.0986637672  MEMB      157             0.0000000000
     19663       157  PMPE      H16X          -51.0490291115      -31.0842865964        2.3885015469  MEMB      157             0.0000000000
     19664       157  PMPE      H16Y          -52.1230866126      -32.0681381216        1.3324287790  MEMB      157             0.0000000000
     19665       157  PMPE      H16Z          -52.4118518934      -31.7929206558        3.0266126717  MEMB      157             0.0000000000
     19666       158  QMPE      N              49.9930028889      -22.9066403414       21.0442558397  MEMB      158             0.0000000000
     19667       158  QMPE      HN1            50.7140154257      -23.6517659673       21.1250555509  MEMB      158             0.0000000000
     19668       158  QMPE      HN2            49.7128938088      -22.3973654053       21.9066815596  MEMB      158             0.0000000000
     19669       158  QMPE      HN3            49.2187903263      -23.2054387882       20.4174269795  MEMB      158             0.0000000000
     19670       158  QMPE      C12            50.5474823986      -21.8416544162       20.1416824221  MEMB      158             0.0000000000
     19671       158  QMPE      H12A           51.4407424206      -21.4450640671       20.6700040557  MEMB      158             0.0000000000
     19672       158  QMPE      H12B           49.8548347972      -20.9798877101       20.0325111881  MEMB      158             0.0000000000
     19673       158  QMPE      C11            50.9821724356      -22.3901753008       18.8078179018  MEMB      158             0.0000000000
     19674       158  QMPE      H11A           51.4431019058      -21.4871808590       18.3534325253  MEMB      158             0.0000000000
     19675       158  QMPE      H11B           50.0568759418      -22.7006924161       18.2770386813  MEMB      158             0.0000000000
     19676       158  QMPE      P              51.7475876598      -24.9252232766       18.4510036416  MEMB      158             0.0000000000
     19677       158  QMPE      O13            50.7988443595      -25.6489245815       19.3292959630  MEMB      158             0.0000000000
     19678       158  QMPE      O14            53.0947155639      -25.5349212740       18.2326460222  MEMB      158             0.0000000000
     19679       158  QMPE      O11            51.0688781085      -24.8081976536       17.0748294216  MEMB      158             0.0000000000
     19680       158  QMPE      O12            51.9700733593      -23.4361543485       18.9184687892  MEMB      158             0.0000000000
     19681       158  QMPE      C1             51.5865336340      -24.1777966610       15.9954246711  MEMB      158             0.0000000000
     19682       158  QMPE      HA             52.6893208350      -24.3106282678       16.0186009367  MEMB      158             0.0000000000
     19683       158  QMPE      HB             51.4397305135      -23.0779399039       16.0509662348  MEMB      158             0.0000000000
     19684       158  QMPE      C2             50.9059077683      -24.7472640133       14.6395461259  MEMB      158             0.0000000000
     19685       158  QMPE      HS             51.3140317403      -24.1393589475       13.8039581313  MEMB      158             0.0000000000
     19686       158  QMPE      O21            49.5139662138      -24.8303828196       14.6946315059  MEMB      158             0.0000000000
     19687       158  QMPE      C21            48.8007342525      -23.6527318510       14.7469124802  MEMB      158             0.0000000000
     19688       158  QMPE      O22            49.3000890487      -22.5451210034       14.9168725811  MEMB      158             0.0000000000
     19689       158  QMPE      C22            47.3823765374      -23.9143138867       14.3571493808  MEMB      158             0.0000000000
     19690       158  QMPE      H2R            46.7456536613      -23.8219266194       15.2628919916  MEMB      158             0.0000000000
     19691       158  QMPE      H2S            47.2970525838      -24.9533619731       13.9731960529  MEMB      158             0.0000000000
     19692       158  QMPE      C3             51.4826271938      -26.1507988932       14.5710996268  MEMB      158             0.0000000000
     19693       158  QMPE      HX             51.2846466182      -26.7349003280       15.4951939669  MEMB      158             0.0000000000
     19694       158  QMPE      HY             52.5904010685      -26.0695752302       14.5474145569  MEMB      158             0.0000000000
     19695       158  QMPE      O31            50.9252703501      -26.7246451932       13.3754460613  MEMB      158             0.0000000000
     19696       158  QMPE      C31            49.7999757263      -27.4090999194       13.4673957856  MEMB      158             0.0000000000
     19697       158  QMPE      O32            49.2234544380      -27.8115984479       14.4859023416  MEMB      158             0.0000000000
     19698       158  QMPE      C32            49.2668254339      -27.6432551776       12.0305488457  MEMB      158             0.0000000000
     19699       158  QMPE      H2X            49.4633989329      -28.7250085616       11.8708943392  MEMB      158             0.0000000000
     19700       158  QMPE      H2Y            48.2163884665      -27.2814860950       12.0254124817  MEMB      158             0.0000000000
     19701       158  QMPE      C23            47.0119175139      -22.8927966462       13.3102913591  MEMB      158             0.0000000000
     19702       158  QMPE      H3R            47.0745415736      -21.9504342112       13.8953999775  MEMB      158             0.0000000000
     19703       158  QMPE      H3S            46.0106029777      -23.0292067057       12.8486827752  MEMB      158             0.0000000000
     19704       158  QMPE      C24            48.0435435184      -22.7874132741       12.0288807436  MEMB      158             0.0000000000
     19705       158  QMPE      H4R            48.0401556166      -23.8538128885       11.7172695381  MEMB      158             0.0000000000
     19706       158  QMPE      H4S            49.0964107719      -22.4919484386       12.2250750018  MEMB      158             0.0000000000
     19707       158  QMPE      C25            47.5340468424      -21.9196039507       10.8520250124  MEMB      158             0.0000000000
     19708       158  QMPE      H5R            47.2309097177      -20.9498959446       11.3015747349  MEMB      158             0.0000000000
     19709       158  QMPE      H5S            46.5717749909      -22.3190050487       10.4662362840  MEMB      158             0.0000000000
     19710       158  QMPE      C26            48.5180905618      -21.8134934299        9.6664324862  MEMB      158             0.0000000000
     19711       158  QMPE      H6R            47.9150748587      -21.5858325038        8.7615212629  MEMB      158             0.0000000000
     19712       158  QMPE      H6S            48.9007374667      -22.8515270846        9.5645078604  MEMB      158             0.0000000000
     19713       158  QMPE      C27            49.7241939919      -20.7624324465        9.7002908123  MEMB      158             0.0000000000
     19714       158  QMPE      H7R            50.3610413723      -21.0920538957       10.5488753567  MEMB      158             0.0000000000
     19715       158  QMPE      H7S            49.2041433828      -19.8165656163        9.9633574545  MEMB      158             0.0000000000
     19716       158  QMPE      C28            50.6017474467      -20.5519798773        8.4101539914  MEMB      158             0.0000000000
     19717       158  QMPE      H8R            51.3652493663      -19.7749623242        8.6283952176  MEMB      158             0.0000000000
     19718       158  QMPE      H8S            49.9165089822      -20.1919792688        7.6131788485  MEMB      158             0.0000000000
     19719       158  QMPE      C29            51.3750296626      -21.8008297191        8.0005180252  MEMB      158             0.0000000000
     19720       158  QMPE      H9R            50.8779053565      -22.7454730326        7.6925613892  MEMB      158             0.0000000000
     19721       158  QMPE      C217           52.8204515739      -21.9403721587        8.6818905901  MEMB      158             0.0000000000
     19722       158  QMPE      H17R           53.3581532513      -21.0574864399        9.0048125545  MEMB      158             0.0000000000
     19723       158  QMPE      H17S           53.1159400840      -22.9656801336        8.8671442093  MEMB      158             0.0000000000
     19724       158  QMPE      C210           52.6147837759      -21.7033554979        7.1531766174  MEMB      158             0.0000000000
     19725       158  QMPE      H10R           52.6746945819      -22.5672708961        6.4572008456  MEMB      158             0.0000000000
     19726       158  QMPE      C211           53.0043851984      -20.3402307864        6.6016289106  MEMB      158             0.0000000000
     19727       158  QMPE      H11R           53.0163556959      -19.4878977752        7.3141636519  MEMB      158             0.0000000000
     19728       158  QMPE      H11S           54.0163372127      -20.3730879002        6.1442503900  MEMB      158             0.0000000000
     19729       158  QMPE      C212           52.0077627043      -20.0900589245        5.3494807903  MEMB      158             0.0000000000
     19730       158  QMPE      H12R           50.9875189983      -20.2232857300        5.7686167396  MEMB      158             0.0000000000
     19731       158  QMPE      H12S           52.3043507155      -20.9032284924        4.6529813494  MEMB      158             0.0000000000
     19732       158  QMPE      C213           52.3225952948      -18.7139840357        4.7034474026  MEMB      158             0.0000000000
     19733       158  QMPE      H13R           53.2728490237      -18.6867410157        4.1284725121  MEMB      158             0.0000000000
     19734       158  QMPE      H13S           52.2407867556      -17.8493469808        5.3962900122  MEMB      158             0.0000000000
     19735       158  QMPE      C214           51.1744036300      -18.5656025444        3.6402305957  MEMB      158             0.0000000000
     19736       158  QMPE      H14R           51.3966981142      -17.5956286681        3.1462086467  MEMB      158             0.0000000000
     19737       158  QMPE      H14S           50.1927573802      -18.4260099403        4.1414346525  MEMB      158             0.0000000000
     19738       158  QMPE      C215           51.1328012313      -19.6576629285        2.5466635925  MEMB      158             0.0000000000
     19739       158  QMPE      H15R           50.4484732924      -19.2352805659        1.7801081748  MEMB      158             0.0000000000
     19740       158  QMPE      H15S           50.6543619542      -20.5679665018        2.9670969196  MEMB      158             0.0000000000
     19741       158  QMPE      C216           52.4265050433      -20.0941498456        1.8015178105  MEMB      158             0.0000000000
     19742       158  QMPE      H16R           53.3502350424      -19.9667329187        2.4055112506  MEMB      158             0.0000000000
     19743       158  QMPE      H16S           52.6003944149      -19.5297629300        0.8604802074  MEMB      158             0.0000000000
     19744       158  QMPE      H16T           52.3248593706      -21.1904013119        1.6524470640  MEMB      158             0.0000000000
     19745       158  QMPE      C33            50.1209934588      -26.8196584508       11.0403673342  MEMB      158             0.0000000000
     19746       158  QMPE      H3X            51.2107477700      -27.0159591239       11.1310461885  MEMB      158             0.0000000000
     19747       158  QMPE      H3Y            49.9710297232      -25.7455918108       11.2816406880  MEMB      158             0.0000000000
     19748       158  QMPE      C34            49.6710445599      -26.8637613476        9.5415507543  MEMB      158             0.0000000000
     19749       158  QMPE      H4X            48.5637867907      -26.7972150114        9.4793232115  MEMB      158             0.0000000000
     19750       158  QMPE      H4Y            49.9571782649      -27.8467001966        9.1099495754  MEMB      158             0.0000000000
     19751       158  QMPE      C35            50.4011237334      -25.7693410217        8.8120883952  MEMB      158             0.0000000000
     19752       158  QMPE      H5X            51.4947724236      -25.6505280493        8.9674489540  MEMB      158             0.0000000000
     19753       158  QMPE      H5Y            50.0360636936      -24.8210089857        9.2612188676  MEMB      158             0.0000000000
     19754       158  QMPE      C36            50.1844649011      -25.7960078149        7.3101768761  MEMB      158             0.0000000000
     19755       158  QMPE      H6X            50.6218297074      -26.7209889391        6.8772302292  MEMB      158             0.0000000000
     19756       158  QMPE      H6Y            50.5867756034      -24.8673401429        6.8518716889  MEMB      158             0.0000000000
     19757       158  QMPE      C37            48.6975532803      -25.6298155437        6.9499951690  MEMB      158             0.0000000000
     19758       158  QMPE      H7X            48.1220340340      -26.4868792584        7.3605321757  MEMB      158             0.0000000000
     19759       158  QMPE      H7Y            48.3623310044      -24.6523195759        7.3579764150  MEMB      158             0.0000000000
     19760       158  QMPE      C38            48.3310585389      -25.6196409662        5.4331299449  MEMB      158             0.0000000000
     19761       158  QMPE      H8X            48.4822776253      -26.5979152878        4.9287157343  MEMB      158             0.0000000000
     19762       158  QMPE      H8Y            47.2440228804      -25.4582270225        5.2699719060  MEMB      158             0.0000000000
     19763       158  QMPE      C39            49.0526655673      -24.5334072413        4.6299722638  MEMB      158             0.0000000000
     19764       158  QMPE      H9X            49.9657551626      -24.9381242633        4.1433591868  MEMB      158             0.0000000000
     19765       158  QMPE      H9Y            49.4546265466      -23.7765645865        5.3370346817  MEMB      158             0.0000000000
     19766       158  QMPE      C310           48.0666272218      -23.9314763505        3.5532488697  MEMB      158             0.0000000000
     19767       158  QMPE      H10X           47.2573787401      -23.4650344611        4.1548050912  MEMB      158             0.0000000000
     19768       158  QMPE      H10Y           47.7179132581      -24.7442097866        2.8808031021  MEMB      158             0.0000000000
     19769       158  QMPE      C311           48.8205726055      -22.8892195277        2.7945882652  MEMB      158             0.0000000000
     19770       158  QMPE      H11X           49.6655293352      -23.3315719770        2.2247691191  MEMB      158             0.0000000000
     19771       158  QMPE      H11Y           49.2729463412      -22.1097696920        3.4443088955  MEMB      158             0.0000000000
     19772       158  QMPE      C312           47.8509221479      -22.1303653474        1.8867027133  MEMB      158             0.0000000000
     19773       158  QMPE      H12X           48.4566171527      -21.3207618432        1.4262694391  MEMB      158             0.0000000000
     19774       158  QMPE      H12Y           47.0535111376      -21.5387152674        2.3851063841  MEMB      158             0.0000000000
     19775       158  QMPE      C313           47.3150533632      -22.8859041618        0.6482716050  MEMB      158             0.0000000000
     19776       158  QMPE      H13X           46.6303818971      -23.6914606694        0.9897737412  MEMB      158             0.0000000000
     19777       158  QMPE      H13Y           46.8066756766      -22.1403781344        0.0001467947  MEMB      158             0.0000000000
     19778       158  QMPE      C314           48.3554660568      -23.5643521716       -0.1092403546  MEMB      158             0.0000000000
     19779       158  QMPE      H14X           47.9073676461      -24.1565935149       -0.9355443083  MEMB      158             0.0000000000
     19780       158  QMPE      H14Y           48.7783564992      -24.3505859312        0.5520635198  MEMB      158             0.0000000000
     19781       158  QMPE      C315           49.5148228284      -22.7156248773       -0.6952194775  MEMB      158             0.0000000000
     19782       158  QMPE      H15X           49.2400524838      -21.6730967420       -0.9634679348  MEMB      158             0.0000000000
     19783       158  QMPE      H15Y           50.2884593069      -22.6335819587        0.0979244183  MEMB      158             0.0000000000
     19784       158  QMPE      H15Z           49.8141378535      -23.1871710553       -1.6556230840  MEMB      158             0.0000000000
     19785       159  PMPE      N              32.1305645061      -45.2545420740       20.4780537476  MEMB      159             0.0000000000
     19786       159  PMPE      HN1            32.1369214216      -46.2624854441       20.7341983334  MEMB      159             0.0000000000
     19787       159  PMPE      HN2            32.9809754692      -45.0279434117       19.9239292729  MEMB      159             0.0000000000
     19788       159  PMPE      HN3            31.9879545430      -44.8643830620       21.4314887461  MEMB      159             0.0000000000
     19789       159  PMPE      C12            31.0055160739      -44.9021771544       19.5502486495  MEMB      159             0.0000000000
     19790       159  PMPE      H12A           31.2337074226      -43.8663047956       19.2197670691  MEMB      159             0.0000000000
     19791       159  PMPE      H12B           30.0390143904      -44.8929953002       20.0980726138  MEMB      159             0.0000000000
     19792       159  PMPE      C11            30.9929082932      -45.9132271470       18.4503082164  MEMB      159             0.0000000000
     19793       159  PMPE      H11A           32.0265841645      -45.9411153001       18.0440356335  MEMB      159             0.0000000000
     19794       159  PMPE      H11B           30.4047132963      -45.5604573774       17.5762938408  MEMB      159             0.0000000000
     19795       159  PMPE      P              31.3592321659      -48.4086227308       18.7079492473  MEMB      159             0.0000000000
     19796       159  PMPE      O13            30.4469122848      -49.6029569882       18.6194218586  MEMB      159             0.0000000000
     19797       159  PMPE      O14            32.3279622594      -48.3720448472       19.8676701071  MEMB      159             0.0000000000
     19798       159  PMPE      O11            31.9502621668      -48.1089615284       17.3273767433  MEMB      159             0.0000000000
     19799       159  PMPE      O12            30.4880606606      -47.0807875601       18.9989714275  MEMB      159             0.0000000000
     19800       159  PMPE      C1             32.8195679552      -49.0957530559       16.7315681396  MEMB      159             0.0000000000
     19801       159  PMPE      HA             32.3883717982      -50.0796640017       17.0149586350  MEMB      159             0.0000000000
     19802       159  PMPE      HB             33.8580062833      -48.9928011947       17.1128395699  MEMB      159             0.0000000000
     19803       159  PMPE      C2             32.8747496488      -48.9693895962       15.1962082228  MEMB      159             0.0000000000
     19804       159  PMPE      HS             33.0308059038      -47.9012927182       14.9332699187  MEMB      159             0.0000000000
     19805       159  PMPE      O21            31.6070183365      -49.3379658240       14.6272449723  MEMB      159             0.0000000000
     19806       159  PMPE      C21            30.7451526853      -48.3473590400       14.2906181044  MEMB      159             0.0000000000
     19807       159  PMPE      O22            31.0391056742      -47.1373611347       14.2392815116  MEMB      159             0.0000000000
     19808       159  PMPE      C22            29.4247880007      -48.9454691743       13.9740418541  MEMB      159             0.0000000000
     19809       159  PMPE      H2R            28.6557333121      -48.1635287407       14.1513695063  MEMB      159             0.0000000000
     19810       159  PMPE      H2S            29.2633760461      -49.7764672524       14.6935622472  MEMB      159             0.0000000000
     19811       159  PMPE      C3             33.8865036018      -49.9287467016       14.5666977070  MEMB      159             0.0000000000
     19812       159  PMPE      HX             33.6041444065      -50.9861296523       14.7578407510  MEMB      159             0.0000000000
     19813       159  PMPE      HY             34.8725435176      -49.7814232837       15.0569452224  MEMB      159             0.0000000000
     19814       159  PMPE      O31            34.0865061103      -49.8732358718       13.1284022044  MEMB      159             0.0000000000
     19815       159  PMPE      C31            34.7307018228      -48.7819429207       12.6664955668  MEMB      159             0.0000000000
     19816       159  PMPE      O32            35.0984380262      -47.8732858033       13.4045305433  MEMB      159             0.0000000000
     19817       159  PMPE      C32            34.9845224460      -48.9030727000       11.1179280250  MEMB      159             0.0000000000
     19818       159  PMPE      H2X            34.4743330922      -49.8059893939       10.7194690731  MEMB      159             0.0000000000
     19819       159  PMPE      H2Y            36.0871691594      -48.9610613518       10.9949314340  MEMB      159             0.0000000000
     19820       159  PMPE      C23            29.3264290263      -49.6025744923       12.5942990139  MEMB      159             0.0000000000
     19821       159  PMPE      H3R            29.3209778827      -50.7041135294       12.7388782459  MEMB      159             0.0000000000
     19822       159  PMPE      H3S            30.1749965705      -49.3565925736       11.9206918083  MEMB      159             0.0000000000
     19823       159  PMPE      C24            28.0546015500      -49.2462402901       11.7922902185  MEMB      159             0.0000000000
     19824       159  PMPE      H4R            28.1306054579      -48.2060333237       11.4095184898  MEMB      159             0.0000000000
     19825       159  PMPE      H4S            27.2100534458      -49.3462643407       12.5071710787  MEMB      159             0.0000000000
     19826       159  PMPE      C25            27.7911023959      -50.2631371681       10.6330547551  MEMB      159             0.0000000000
     19827       159  PMPE      H5R            26.7897905957      -50.0788209628       10.1883937819  MEMB      159             0.0000000000
     19828       159  PMPE      H5S            27.7347859765      -51.3032790668       11.0193888802  MEMB      159             0.0000000000
     19829       159  PMPE      C26            28.8049539807      -50.1324742130        9.5149874693  MEMB      159             0.0000000000
     19830       159  PMPE      H6R            29.8661560140      -50.0566238906        9.8350163553  MEMB      159             0.0000000000
     19831       159  PMPE      H6S            28.4813195943      -49.1494557782        9.1109375389  MEMB      159             0.0000000000
     19832       159  PMPE      C27            28.6039909893      -51.2362295326        8.4596851975  MEMB      159             0.0000000000
     19833       159  PMPE      H7R            27.5293397200      -51.3892895873        8.2230030782  MEMB      159             0.0000000000
     19834       159  PMPE      H7S            29.0275115231      -52.0900077202        9.0306615491  MEMB      159             0.0000000000
     19835       159  PMPE      C28            29.3223595023      -51.1258725409        7.1488990532  MEMB      159             0.0000000000
     19836       159  PMPE      H8R            29.3290688414      -52.0841612617        6.5867973707  MEMB      159             0.0000000000
     19837       159  PMPE      H8S            30.3813901177      -50.9612324816        7.4415920922  MEMB      159             0.0000000000
     19838       159  PMPE      C29            28.6657058209      -49.9684362102        6.3382794092  MEMB      159             0.0000000000
     19839       159  PMPE      H9R            28.6054773403      -48.9756969420        6.8334177613  MEMB      159             0.0000000000
     19840       159  PMPE      C217           27.3947707201      -50.2600239514        5.4255445311  MEMB      159             0.0000000000
     19841       159  PMPE      H17R           26.6996271232      -49.4345588154        5.5164915156  MEMB      159             0.0000000000
     19842       159  PMPE      H17S           27.1445658639      -51.3133804844        5.4524952314  MEMB      159             0.0000000000
     19843       159  PMPE      C210           28.7138589150      -49.9051455596        4.8020785305  MEMB      159             0.0000000000
     19844       159  PMPE      H10R           28.6433581315      -48.8568732231        4.4408645578  MEMB      159             0.0000000000
     19845       159  PMPE      C211           29.3276278448      -50.9875047737        3.9240027101  MEMB      159             0.0000000000
     19846       159  PMPE      H11R           28.9435187955      -51.1408198787        2.8928489428  MEMB      159             0.0000000000
     19847       159  PMPE      H11S           29.2604213542      -52.0076760484        4.3588070049  MEMB      159             0.0000000000
     19848       159  PMPE      C212           30.8098876869      -50.7730326986        3.8990198933  MEMB      159             0.0000000000
     19849       159  PMPE      H12R           31.2098672852      -50.3840197204        4.8597521133  MEMB      159             0.0000000000
     19850       159  PMPE      H12S           31.0312174939      -50.0723453112        3.0657303363  MEMB      159             0.0000000000
     19851       159  PMPE      C213           31.6777406367      -52.0489269514        3.8294858964  MEMB      159             0.0000000000
     19852       159  PMPE      H13R           31.3689936711      -52.8502016761        4.5344366437  MEMB      159             0.0000000000
     19853       159  PMPE      H13S           32.7128366946      -51.7708713272        4.1220298382  MEMB      159             0.0000000000
     19854       159  PMPE      C214           31.9327088425      -52.7653811510        2.4490496604  MEMB      159             0.0000000000
     19855       159  PMPE      H14R           32.5793187294      -53.6563655796        2.5985947605  MEMB      159             0.0000000000
     19856       159  PMPE      H14S           32.3754631765      -51.9791668871        1.8008552130  MEMB      159             0.0000000000
     19857       159  PMPE      C215           30.6169430682      -53.2319816941        1.6410990995  MEMB      159             0.0000000000
     19858       159  PMPE      H15R           29.9571455385      -52.3808606431        1.3680041149  MEMB      159             0.0000000000
     19859       159  PMPE      H15S           30.0385937282      -53.8772180010        2.3364425481  MEMB      159             0.0000000000
     19860       159  PMPE      C216           30.9056941671      -54.1253265780        0.4016112874  MEMB      159             0.0000000000
     19861       159  PMPE      H16R           31.5572636236      -54.9336408678        0.7970927491  MEMB      159             0.0000000000
     19862       159  PMPE      H16S           29.9644203743      -54.5706671733        0.0143162428  MEMB      159             0.0000000000
     19863       159  PMPE      H16T           31.4267239569      -53.6112794124       -0.4342153173  MEMB      159             0.0000000000
     19864       159  PMPE      C33            34.6248288134      -47.6027437431       10.2605205945  MEMB      159             0.0000000000
     19865       159  PMPE      H3X            35.0248183515      -47.7928101808        9.2415970325  MEMB      159             0.0000000000
     19866       159  PMPE      H3Y            35.1253094430      -46.7772094184       10.8103685101  MEMB      159             0.0000000000
     19867       159  PMPE      C34            33.0881178356      -47.1891828008       10.1969453555  MEMB      159             0.0000000000
     19868       159  PMPE      H4X            33.0481292683      -46.0832112006       10.0992266782  MEMB      159             0.0000000000
     19869       159  PMPE      H4Y            32.5893414179      -47.3648468853       11.1740255536  MEMB      159             0.0000000000
     19870       159  PMPE      C35            32.3312515182      -47.9277164553        9.1077675770  MEMB      159             0.0000000000
     19871       159  PMPE      H5X            31.2738427353      -47.5901874759        9.1555362990  MEMB      159             0.0000000000
     19872       159  PMPE      H5Y            32.3347618397      -49.0190840735        9.3156744560  MEMB      159             0.0000000000
     19873       159  PMPE      C36            33.0336515094      -47.7337046249        7.7573772505  MEMB      159             0.0000000000
     19874       159  PMPE      H6X            33.6858539024      -48.6213739844        7.6124762286  MEMB      159             0.0000000000
     19875       159  PMPE      H6Y            33.4936224632      -46.7335407833        7.6076444350  MEMB      159             0.0000000000
     19876       159  PMPE      C37            32.0923726891      -47.7862944300        6.5937906410  MEMB      159             0.0000000000
     19877       159  PMPE      H7X            31.2589136975      -47.0560065308        6.6734566024  MEMB      159             0.0000000000
     19878       159  PMPE      H7Y            31.6037460242      -48.7829157650        6.5457195058  MEMB      159             0.0000000000
     19879       159  PMPE      C38            32.8196440509      -47.5556984058        5.2845448547  MEMB      159             0.0000000000
     19880       159  PMPE      H8X            33.3792911952      -48.4600560890        4.9632143539  MEMB      159             0.0000000000
     19881       159  PMPE      H8Y            33.5356671951      -46.7063930742        5.3022125681  MEMB      159             0.0000000000
     19882       159  PMPE      C39            31.8387379913      -46.9807889241        4.1934173757  MEMB      159             0.0000000000
     19883       159  PMPE      H9X            31.6836711103      -45.9000554831        4.3990639340  MEMB      159             0.0000000000
     19884       159  PMPE      H9Y            30.8703326386      -47.4902744138        4.3856060779  MEMB      159             0.0000000000
     19885       159  PMPE      C310           32.2992748739      -47.1014239468        2.7428354041  MEMB      159             0.0000000000
     19886       159  PMPE      H10X           32.7076460144      -48.0970727729        2.4667234173  MEMB      159             0.0000000000
     19887       159  PMPE      H10Y           33.1039121322      -46.3627902502        2.5396112571  MEMB      159             0.0000000000
     19888       159  PMPE      C311           31.1964596863      -46.7710343756        1.6237536456  MEMB      159             0.0000000000
     19889       159  PMPE      H11X           30.5342708535      -45.9920460114        2.0584991665  MEMB      159             0.0000000000
     19890       159  PMPE      H11Y           30.6175386182      -47.6951757112        1.4113051146  MEMB      159             0.0000000000
     19891       159  PMPE      C312           31.8187485086      -46.3056108586        0.2386562082  MEMB      159             0.0000000000
     19892       159  PMPE      H12X           32.6655857023      -45.6713391787        0.5776067241  MEMB      159             0.0000000000
     19893       159  PMPE      H12Y           31.1446293872      -45.6043743817       -0.2981429634  MEMB      159             0.0000000000
     19894       159  PMPE      C313           32.1091489864      -47.5387277512       -0.5981592741  MEMB      159             0.0000000000
     19895       159  PMPE      H13X           32.3671287401      -48.4883563334       -0.0824336101  MEMB      159             0.0000000000
     19896       159  PMPE      H13Y           33.0514707708      -47.3308333083       -1.1487313497  MEMB      159             0.0000000000
     19897       159  PMPE      C314           31.1777851385      -47.8384882476       -1.8054561567  MEMB      159             0.0000000000
     19898       159  PMPE      H14X           31.7856594182      -48.5696324916       -2.3801193514  MEMB      159             0.0000000000
     19899       159  PMPE      H14Y           31.1169521678      -46.9995321828       -2.5312471910  MEMB      159             0.0000000000
     19900       159  PMPE      C315           29.6690324590      -48.2800322653       -1.4237485934  MEMB      159             0.0000000000
     19901       159  PMPE      H15X           29.1522931397      -47.5685411166       -0.7447187998  MEMB      159             0.0000000000
     19902       159  PMPE      H15Y           29.5412087319      -49.2470401639       -0.8918866920  MEMB      159             0.0000000000
     19903       159  PMPE      C316           28.8988783680      -48.4145932402       -2.7364618996  MEMB      159             0.0000000000
     19904       159  PMPE      H16X           29.2615657723      -49.2727879054       -3.3416723331  MEMB      159             0.0000000000
     19905       159  PMPE      H16Y           28.9253649507      -47.6084816375       -3.5005320227  MEMB      159             0.0000000000
     19906       159  PMPE      H16Z           27.8223904138      -48.6421008697       -2.5824002870  MEMB      159             0.0000000000
     19907       160  POPE      N             -56.0267328047      -10.1712782262       21.0951293568  MEMB      160             0.0000000000
     19908       160  POPE      HN1           -56.6808931203       -9.3666432583       21.1741013528  MEMB      160             0.0000000000
     19909       160  POPE      HN2           -56.4067520080      -10.9045390317       21.7272007647  MEMB      160             0.0000000000
     19910       160  POPE      HN3           -55.0500578013      -10.0244350976       21.4209255147  MEMB      160             0.0000000000
     19911       160  POPE      C12           -56.1250633161      -10.4624949279       19.5959357538  MEMB      160             0.0000000000
     19912       160  POPE      H12A          -57.1448408123      -10.8637977152       19.4133683818  MEMB      160             0.0000000000
     19913       160  POPE      H12B          -55.4426759790      -11.2754906808       19.2677486560  MEMB      160             0.0000000000
     19914       160  POPE      C11           -55.9707148281       -9.1946785537       18.6731882182  MEMB      160             0.0000000000
     19915       160  POPE      H11A          -56.4416739112       -9.4073441038       17.6896782209  MEMB      160             0.0000000000
     19916       160  POPE      H11B          -54.9247997309       -8.8692275073       18.4875426937  MEMB      160             0.0000000000
     19917       160  POPE      P             -56.5651236235       -6.7157481307       18.5609596333  MEMB      160             0.0000000000
     19918       160  POPE      O13           -55.2174871768       -6.3645724531       18.0649774055  MEMB      160             0.0000000000
     19919       160  POPE      O14           -57.2138946156       -5.7345767380       19.4666925547  MEMB      160             0.0000000000
     19920       160  POPE      O11           -57.4272838877       -6.9916198508       17.3018600419  MEMB      160             0.0000000000
     19921       160  POPE      O12           -56.6337389524       -8.1171285278       19.2412570282  MEMB      160             0.0000000000
     19922       160  POPE      C1            -57.7525598371       -5.8934113003       16.4327000779  MEMB      160             0.0000000000
     19923       160  POPE      HA            -57.0098085834       -5.0701891583       16.5030338242  MEMB      160             0.0000000000
     19924       160  POPE      HB            -58.7645476850       -5.5164664697       16.6936867206  MEMB      160             0.0000000000
     19925       160  POPE      C2            -57.7060456946       -6.2839612402       14.9023625220  MEMB      160             0.0000000000
     19926       160  POPE      HS            -58.1575486208       -5.3807343980       14.4390623567  MEMB      160             0.0000000000
     19927       160  POPE      O21           -58.5668495863       -7.4310871636       14.7951551678  MEMB      160             0.0000000000
     19928       160  POPE      C21           -58.9381678621       -7.6263560451       13.5397869184  MEMB      160             0.0000000000
     19929       160  POPE      O22           -58.7396743426       -6.8277683174       12.6577219810  MEMB      160             0.0000000000
     19930       160  POPE      C22           -59.9151965486       -8.7652481352       13.4550429791  MEMB      160             0.0000000000
     19931       160  POPE      H2R           -60.9599281383       -8.4231932683       13.2942456385  MEMB      160             0.0000000000
     19932       160  POPE      H2S           -59.8315491184       -9.3874565443       14.3716568527  MEMB      160             0.0000000000
     19933       160  POPE      C3            -56.2882652719       -6.6289570276       14.3605094745  MEMB      160             0.0000000000
     19934       160  POPE      HX            -55.6448190978       -5.7822480455       14.6820398897  MEMB      160             0.0000000000
     19935       160  POPE      HY            -56.3899261975       -6.5914210199       13.2548074189  MEMB      160             0.0000000000
     19936       160  POPE      O31           -55.8931602181       -7.9538724695       14.7912987748  MEMB      160             0.0000000000
     19937       160  POPE      C31           -54.7028011855       -8.3504616777       14.3838843919  MEMB      160             0.0000000000
     19938       160  POPE      O32           -53.7954474232       -7.6775253896       13.9174968854  MEMB      160             0.0000000000
     19939       160  POPE      C32           -54.4542461846       -9.8597096545       14.6779947316  MEMB      160             0.0000000000
     19940       160  POPE      H2X           -55.4202489215      -10.3673647249       14.4695578408  MEMB      160             0.0000000000
     19941       160  POPE      H2Y           -54.2501227148      -10.0443332480       15.7543632381  MEMB      160             0.0000000000
     19942       160  POPE      C23           -59.5435368256       -9.6038369370       12.2436529127  MEMB      160             0.0000000000
     19943       160  POPE      H3R           -59.3840308742       -9.1454801634       11.2442590827  MEMB      160             0.0000000000
     19944       160  POPE      H3S           -60.3649219972      -10.3331227184       12.0769509682  MEMB      160             0.0000000000
     19945       160  POPE      C24           -58.3072731951      -10.5327307379       12.5165106058  MEMB      160             0.0000000000
     19946       160  POPE      H4R           -58.4572306312      -11.0119930270       13.5075413127  MEMB      160             0.0000000000
     19947       160  POPE      H4S           -57.3980254269       -9.9238183667       12.7083836053  MEMB      160             0.0000000000
     19948       160  POPE      C25           -58.0322967386      -11.6632607118       11.5778394912  MEMB      160             0.0000000000
     19949       160  POPE      H5R           -58.9509186003      -12.2806023830       11.4811760261  MEMB      160             0.0000000000
     19950       160  POPE      H5S           -57.3318100493      -12.3648647137       12.0792288261  MEMB      160             0.0000000000
     19951       160  POPE      C26           -57.5621839899      -11.2946833822       10.1282208543  MEMB      160             0.0000000000
     19952       160  POPE      H6R           -56.5520404854      -10.8324770925       10.1110051489  MEMB      160             0.0000000000
     19953       160  POPE      H6S           -58.1889374505      -10.4616670327        9.7440530989  MEMB      160             0.0000000000
     19954       160  POPE      C27           -57.8338871036      -12.4000482366        9.0800314834  MEMB      160             0.0000000000
     19955       160  POPE      H7R           -58.8326159050      -12.8752376348        9.1851841464  MEMB      160             0.0000000000
     19956       160  POPE      H7S           -57.0672954318      -13.1678976011        9.3189155169  MEMB      160             0.0000000000
     19957       160  POPE      C28           -57.6689693370      -12.0446309502        7.5482600255  MEMB      160             0.0000000000
     19958       160  POPE      H8R           -56.6767155519      -11.5453761348        7.5705794713  MEMB      160             0.0000000000
     19959       160  POPE      H8S           -58.4261497255      -11.2674045226        7.3096853567  MEMB      160             0.0000000000
     19960       160  POPE      C29           -57.7758942886      -13.1474956573        6.5662877675  MEMB      160             0.0000000000
     19961       160  POPE      H91           -58.7956262142      -13.5525138275        6.6444364431  MEMB      160             0.0000000000
     19962       160  POPE      C210          -56.9195112507      -13.4412000543        5.6017978082  MEMB      160             0.0000000000
     19963       160  POPE      H101          -57.2361422860      -14.0382345693        4.7338729446  MEMB      160             0.0000000000
     19964       160  POPE      C211          -55.6473758745      -12.6874030946        5.2500022892  MEMB      160             0.0000000000
     19965       160  POPE      H11R          -54.9237057355      -13.4398748654        4.8699909096  MEMB      160             0.0000000000
     19966       160  POPE      H11S          -55.1464792598      -12.2406966382        6.1353699401  MEMB      160             0.0000000000
     19967       160  POPE      C212          -55.8244434271      -11.5986691165        4.1607817243  MEMB      160             0.0000000000
     19968       160  POPE      H12R          -54.8915524933      -11.0817640952        3.8495834146  MEMB      160             0.0000000000
     19969       160  POPE      H12S          -56.5567583062      -10.8443692770        4.5200420701  MEMB      160             0.0000000000
     19970       160  POPE      C213          -56.3407382615      -12.2161167224        2.7852558225  MEMB      160             0.0000000000
     19971       160  POPE      H13R          -57.3371344185      -12.6869112139        2.9262091333  MEMB      160             0.0000000000
     19972       160  POPE      H13S          -55.8100958987      -13.1670437601        2.5650786171  MEMB      160             0.0000000000
     19973       160  POPE      C214          -56.2716672905      -11.4312155686        1.4646022731  MEMB      160             0.0000000000
     19974       160  POPE      H14R          -55.1947182262      -11.2523345772        1.2584397383  MEMB      160             0.0000000000
     19975       160  POPE      H14S          -56.8287641697      -10.4775181208        1.5847074567  MEMB      160             0.0000000000
     19976       160  POPE      C215          -56.7006760037      -12.2857138461        0.3197318907  MEMB      160             0.0000000000
     19977       160  POPE      H15R          -57.7927600145      -12.4854600376        0.3618596488  MEMB      160             0.0000000000
     19978       160  POPE      H15S          -56.1499015667      -13.2470709971        0.2375082190  MEMB      160             0.0000000000
     19979       160  POPE      C216          -56.6174950410      -11.5244536319       -1.0068046979  MEMB      160             0.0000000000
     19980       160  POPE      H16R          -56.8590349879      -12.3229251093       -1.7405786794  MEMB      160             0.0000000000
     19981       160  POPE      H16S          -55.5634312937      -11.2692682604       -1.2479500939  MEMB      160             0.0000000000
     19982       160  POPE      C217          -57.5363300643      -10.3603319779       -1.0721404121  MEMB      160             0.0000000000
     19983       160  POPE      H17R          -57.0306849237       -9.5220052345       -0.5469240159  MEMB      160             0.0000000000
     19984       160  POPE      H17S          -58.5201514793      -10.3726950750       -0.5561335269  MEMB      160             0.0000000000
     19985       160  POPE      C218          -57.6111957266       -9.7723991579       -2.5363397842  MEMB      160             0.0000000000
     19986       160  POPE      H18R          -58.3690422662       -8.9600223024       -2.5305606701  MEMB      160             0.0000000000
     19987       160  POPE      H18S          -57.9219442127      -10.5902034643       -3.2211409840  MEMB      160             0.0000000000
     19988       160  POPE      H18T          -56.6064923953       -9.4665657015       -2.8987723115  MEMB      160             0.0000000000
     19989       160  POPE      C33           -53.2527035598      -10.4184234616       13.9817211220  MEMB      160             0.0000000000
     19990       160  POPE      H3X           -53.0920188751      -11.4613505817       14.3292905941  MEMB      160             0.0000000000
     19991       160  POPE      H3Y           -52.3252093551       -9.8191846747       14.1041471888  MEMB      160             0.0000000000
     19992       160  POPE      C34           -53.5433784548      -10.6502070129       12.4540967639  MEMB      160             0.0000000000
     19993       160  POPE      H4X           -53.8078065039       -9.7156607172       11.9146321845  MEMB      160             0.0000000000
     19994       160  POPE      H4Y           -54.4169783997      -11.3319162568       12.3739926905  MEMB      160             0.0000000000
     19995       160  POPE      C35           -52.5006333973      -11.3665536521       11.7247377201  MEMB      160             0.0000000000
     19996       160  POPE      H5X           -52.3774660145      -12.3865042823       12.1476460209  MEMB      160             0.0000000000
     19997       160  POPE      H5Y           -51.5205186885      -10.8442798884       11.7551727996  MEMB      160             0.0000000000
     19998       160  POPE      C36           -52.7818842732      -11.5011411953       10.2142004338  MEMB      160             0.0000000000
     19999       160  POPE      H6X           -53.5038661995      -12.3422430004       10.1392930357  MEMB      160             0.0000000000
     20000       160  POPE      H6Y           -51.8961013739      -12.0463854381        9.8237924729  MEMB      160             0.0000000000
     20001       160  POPE      C37           -53.3209683107      -10.2690897995        9.3674468251  MEMB      160             0.0000000000
     20002       160  POPE      H7X           -52.6514905790       -9.3837265380        9.4149048762  MEMB      160             0.0000000000
     20003       160  POPE      H7Y           -54.2623975969      -10.0147393422        9.8997410104  MEMB      160             0.0000000000
     20004       160  POPE      C38           -53.5828927409      -10.6966893306        7.9335224005  MEMB      160             0.0000000000
     20005       160  POPE      H8X           -54.2828306608      -11.5593843054        7.9463705874  MEMB      160             0.0000000000
     20006       160  POPE      H8Y           -52.6396749929      -11.0512570273        7.4656095067  MEMB      160             0.0000000000
     20007       160  POPE      C39           -54.0003514682       -9.5486468767        6.9536562102  MEMB      160             0.0000000000
     20008       160  POPE      H9X           -54.7293332614       -8.9550740528        7.5457523347  MEMB      160             0.0000000000
     20009       160  POPE      H9Y           -54.3169020127      -10.1768058756        6.0936956768  MEMB      160             0.0000000000
     20010       160  POPE      C310          -52.9244851111       -8.6267944503        6.4803790651  MEMB      160             0.0000000000
     20011       160  POPE      H10X          -51.9509283311       -9.0906953632        6.2133510606  MEMB      160             0.0000000000
     20012       160  POPE      H10Y          -52.7084707930       -8.0292867537        7.3917749661  MEMB      160             0.0000000000
     20013       160  POPE      C311          -53.3828174038       -7.6054687002        5.3466774866  MEMB      160             0.0000000000
     20014       160  POPE      H11X          -52.6014225030       -6.8156983788        5.3490315777  MEMB      160             0.0000000000
     20015       160  POPE      H11Y          -54.3497917143       -7.1691872825        5.6767380899  MEMB      160             0.0000000000
     20016       160  POPE      C312          -53.7245979413       -8.2478549295        3.9966981010  MEMB      160             0.0000000000
     20017       160  POPE      H12X          -54.6910240684       -8.7728767810        4.1538404806  MEMB      160             0.0000000000
     20018       160  POPE      H12Y          -52.9335231568       -8.9723566267        3.7075294999  MEMB      160             0.0000000000
     20019       160  POPE      C313          -53.6888659411       -7.4237937696        2.7591817175  MEMB      160             0.0000000000
     20020       160  POPE      H13X          -52.7307277461       -6.8614507698        2.7512621656  MEMB      160             0.0000000000
     20021       160  POPE      H13Y          -54.5612591084       -6.7475017417        2.6331654910  MEMB      160             0.0000000000
     20022       160  POPE      C314          -53.7174730216       -8.2485361017        1.4714695474  MEMB      160             0.0000000000
     20023       160  POPE      H14X          -54.5343844767       -8.9958647955        1.5635384497  MEMB      160             0.0000000000
     20024       160  POPE      H14Y          -52.8727789707       -8.9680034611        1.5278538349  MEMB      160             0.0000000000
     20025       160  POPE      C315          -53.6446873609       -7.5610887890        0.1608004064  MEMB      160             0.0000000000
     20026       160  POPE      H15X          -53.4572226197       -8.2870502524       -0.6590527553  MEMB      160             0.0000000000
     20027       160  POPE      H15Y          -52.7925702317       -6.8490222533        0.1951382092  MEMB      160             0.0000000000
     20028       160  POPE      C316          -54.8845983667       -6.7793139212       -0.1989601557  MEMB      160             0.0000000000
     20029       160  POPE      H16X          -55.0855214303       -5.8710155673        0.4084479522  MEMB      160             0.0000000000
     20030       160  POPE      H16Y          -55.6670396121       -7.5659361752       -0.1412350517  MEMB      160             0.0000000000
     20031       160  POPE      H16Z          -54.8112321439       -6.3976395699       -1.2397595298  MEMB      160             0.0000000000
     20032       161  PMPG      C13           -42.5519379575      -36.3484204322       21.1953976177  MEMB      161             0.0000000000
     20033       161  PMPG      H13A          -43.1662092409      -35.5332208753       21.6340791624  MEMB      161             0.0000000000
     20034       161  PMPG      H13B          -43.0789301987      -37.2531884968       21.5668743906  MEMB      161             0.0000000000
     20035       161  PMPG      OC3           -41.2605410157      -36.3159862368       21.6374220862  MEMB      161             0.0000000000
     20036       161  PMPG      HO3           -40.9352486219      -37.1839970457       21.3877378775  MEMB      161             0.0000000000
     20037       161  PMPG      C12           -42.6082187433      -36.1907919480       19.6390671783  MEMB      161             0.0000000000
     20038       161  PMPG      H12A          -42.0048537482      -35.2912597056       19.3753031409  MEMB      161             0.0000000000
     20039       161  PMPG      OC2           -43.9526971570      -35.9590933493       19.2162972118  MEMB      161             0.0000000000
     20040       161  PMPG      HO2           -43.8889538255      -36.0128899878       18.2376453077  MEMB      161             0.0000000000
     20041       161  PMPG      C11           -42.0624517452      -37.2873638899       18.6411645342  MEMB      161             0.0000000000
     20042       161  PMPG      H11A          -40.9853079956      -37.5408754421       18.7402319186  MEMB      161             0.0000000000
     20043       161  PMPG      H11B          -42.2630787692      -36.9567799126       17.5996348725  MEMB      161             0.0000000000
     20044       161  PMPG      P             -42.8152257754      -39.5737273397       17.8678087166  MEMB      161             0.0000000000
     20045       161  PMPG      O13           -43.7396400050      -39.0567150738       16.8231492859  MEMB      161             0.0000000000
     20046       161  PMPG      O14           -43.1930802472      -40.7446084817       18.6267998481  MEMB      161             0.0000000000
     20047       161  PMPG      O11           -41.3288469219      -39.6600185542       17.3646262750  MEMB      161             0.0000000000
     20048       161  PMPG      O12           -42.6751053954      -38.4917697141       18.9882672549  MEMB      161             0.0000000000
     20049       161  PMPG      C1            -40.3048758637      -40.2603173995       18.1853632134  MEMB      161             0.0000000000
     20050       161  PMPG      HA            -40.7556154597      -40.6379770430       19.1279808685  MEMB      161             0.0000000000
     20051       161  PMPG      HB            -39.7537243635      -39.3677313564       18.5512089804  MEMB      161             0.0000000000
     20052       161  PMPG      C2            -39.5082335612      -41.2937170758       17.4526078140  MEMB      161             0.0000000000
     20053       161  PMPG      HS            -38.6036152133      -41.6346729028       18.0000892436  MEMB      161             0.0000000000
     20054       161  PMPG      O21           -39.1778445363      -40.7721285577       16.1143490880  MEMB      161             0.0000000000
     20055       161  PMPG      C21           -38.0501627963      -40.0355854809       16.1373591717  MEMB      161             0.0000000000
     20056       161  PMPG      O22           -37.3704857498      -39.7339620464       17.1461550212  MEMB      161             0.0000000000
     20057       161  PMPG      C22           -37.7764453275      -39.5484452339       14.6442093329  MEMB      161             0.0000000000
     20058       161  PMPG      H2R           -36.8594229100      -40.1388661372       14.4325632396  MEMB      161             0.0000000000
     20059       161  PMPG      H2S           -37.5570208882      -38.4599275544       14.6803076721  MEMB      161             0.0000000000
     20060       161  PMPG      C3            -40.3983367312      -42.6446420814       17.2483846857  MEMB      161             0.0000000000
     20061       161  PMPG      HX            -40.5600868859      -43.2996438923       18.1310681928  MEMB      161             0.0000000000
     20062       161  PMPG      HY            -39.7443839160      -43.2922586198       16.6260834577  MEMB      161             0.0000000000
     20063       161  PMPG      O31           -41.7357978574      -42.2848676103       16.7539545729  MEMB      161             0.0000000000
     20064       161  PMPG      C31           -41.8244160975      -42.4535652976       15.4613251574  MEMB      161             0.0000000000
     20065       161  PMPG      O32           -41.0729219152      -42.9724678078       14.6947790174  MEMB      161             0.0000000000
     20066       161  PMPG      C32           -43.2420038666      -42.0289498161       14.9496415245  MEMB      161             0.0000000000
     20067       161  PMPG      H2X           -43.9306005474      -41.9165869947       15.8142397238  MEMB      161             0.0000000000
     20068       161  PMPG      H2Y           -43.6075032880      -42.8734349645       14.3270850415  MEMB      161             0.0000000000
     20069       161  PMPG      C23           -38.8875657199      -39.9305783455       13.6168595038  MEMB      161             0.0000000000
     20070       161  PMPG      H3R           -39.8365627977      -39.3807403251       13.7940701868  MEMB      161             0.0000000000
     20071       161  PMPG      H3S           -39.1227972767      -41.0115091440       13.7196981731  MEMB      161             0.0000000000
     20072       161  PMPG      C24           -38.5145073550      -39.5284738754       12.1998793044  MEMB      161             0.0000000000
     20073       161  PMPG      H4R           -37.4989711113      -39.9254190761       11.9867103379  MEMB      161             0.0000000000
     20074       161  PMPG      H4S           -38.5419603894      -38.4179583613       12.1819180462  MEMB      161             0.0000000000
     20075       161  PMPG      C25           -39.4166756154      -40.0040746721       11.0598567070  MEMB      161             0.0000000000
     20076       161  PMPG      H5R           -39.1447339137      -39.4912340227       10.1125642575  MEMB      161             0.0000000000
     20077       161  PMPG      H5S           -40.4751933020      -39.8110166599       11.3366056487  MEMB      161             0.0000000000
     20078       161  PMPG      C26           -39.1707954276      -41.5394217930       10.9026369242  MEMB      161             0.0000000000
     20079       161  PMPG      H6R           -39.4452583429      -42.2024329445       11.7508159156  MEMB      161             0.0000000000
     20080       161  PMPG      H6S           -38.0754276190      -41.6693517098       10.7699385077  MEMB      161             0.0000000000
     20081       161  PMPG      C27           -40.0557944047      -42.1854613246        9.8016280624  MEMB      161             0.0000000000
     20082       161  PMPG      H7R           -39.6967317131      -43.2340508759        9.7251108749  MEMB      161             0.0000000000
     20083       161  PMPG      H7S           -39.6456998149      -41.7815221406        8.8513773679  MEMB      161             0.0000000000
     20084       161  PMPG      C28           -41.5693209152      -42.2117435918        9.9454697681  MEMB      161             0.0000000000
     20085       161  PMPG      H8R           -42.0812140660      -41.2349377130        9.8107964715  MEMB      161             0.0000000000
     20086       161  PMPG      H8S           -41.8148439294      -42.5167004428       10.9852005699  MEMB      161             0.0000000000
     20087       161  PMPG      C29           -42.2541192358      -43.1416185062        8.9478898088  MEMB      161             0.0000000000
     20088       161  PMPG      H9R           -42.4929079256      -44.1721768891        9.2873755166  MEMB      161             0.0000000000
     20089       161  PMPG      C217          -43.4607319132      -42.5899612580        8.2979728012  MEMB      161             0.0000000000
     20090       161  PMPG      H17R          -44.2842054801      -43.2723840553        8.1274464852  MEMB      161             0.0000000000
     20091       161  PMPG      H17S          -43.5632022581      -41.5256748700        8.4702610396  MEMB      161             0.0000000000
     20092       161  PMPG      C210          -42.2127675989      -42.9021352167        7.3980666595  MEMB      161             0.0000000000
     20093       161  PMPG      H10R          -42.4272930816      -43.8166984940        6.8048762914  MEMB      161             0.0000000000
     20094       161  PMPG      C211          -41.5199774692      -41.6570747283        6.8077608318  MEMB      161             0.0000000000
     20095       161  PMPG      H11R          -41.6172183576      -40.8782248626        7.5940547611  MEMB      161             0.0000000000
     20096       161  PMPG      H11S          -40.4396928831      -41.8253546143        6.6103066527  MEMB      161             0.0000000000
     20097       161  PMPG      C212          -42.1774424904      -41.3635594111        5.4670542034  MEMB      161             0.0000000000
     20098       161  PMPG      H12R          -43.1733996908      -40.8736492383        5.5158202216  MEMB      161             0.0000000000
     20099       161  PMPG      H12S          -42.3568039353      -42.3434518392        4.9751587481  MEMB      161             0.0000000000
     20100       161  PMPG      C213          -41.1877169158      -40.6780529590        4.6248156746  MEMB      161             0.0000000000
     20101       161  PMPG      H13R          -40.2523050195      -41.2333180958        4.3989694959  MEMB      161             0.0000000000
     20102       161  PMPG      H13S          -40.8320174017      -39.7440292661        5.1099944539  MEMB      161             0.0000000000
     20103       161  PMPG      C214          -41.6603477207      -40.3565240127        3.1926003910  MEMB      161             0.0000000000
     20104       161  PMPG      H14R          -42.4525368018      -39.5814063668        3.1154636777  MEMB      161             0.0000000000
     20105       161  PMPG      H14S          -42.1759510980      -41.2474448672        2.7745888848  MEMB      161             0.0000000000
     20106       161  PMPG      C215          -40.5502755129      -39.9539938488        2.2422034076  MEMB      161             0.0000000000
     20107       161  PMPG      H15R          -39.9328623931      -40.8744489647        2.1654901205  MEMB      161             0.0000000000
     20108       161  PMPG      H15S          -39.9759589180      -39.1069192021        2.6745750555  MEMB      161             0.0000000000
     20109       161  PMPG      C216          -40.9825723208      -39.6713580212        0.7933706867  MEMB      161             0.0000000000
     20110       161  PMPG      H16R          -41.8693280111      -39.0071321251        0.7109729629  MEMB      161             0.0000000000
     20111       161  PMPG      H16S          -41.2484981291      -40.6316731730        0.3020475820  MEMB      161             0.0000000000
     20112       161  PMPG      H16T          -40.1203993440      -39.2110253692        0.2650975380  MEMB      161             0.0000000000
     20113       161  PMPG      C33           -43.1171004483      -40.7614506759       14.1009299368  MEMB      161             0.0000000000
     20114       161  PMPG      H3X           -42.2263454905      -40.8379151023       13.4413619817  MEMB      161             0.0000000000
     20115       161  PMPG      H3Y           -42.8248134277      -39.8616295362       14.6833477846  MEMB      161             0.0000000000
     20116       161  PMPG      C34           -44.3140734918      -40.5194860150       13.1482158177  MEMB      161             0.0000000000
     20117       161  PMPG      H4X           -45.2807373359      -40.6667910683       13.6756470913  MEMB      161             0.0000000000
     20118       161  PMPG      H4Y           -44.4399941255      -41.3152342913       12.3831998286  MEMB      161             0.0000000000
     20119       161  PMPG      C35           -44.3725949733      -39.1978935180       12.4477221011  MEMB      161             0.0000000000
     20120       161  PMPG      H5X           -44.0265035899      -38.3073318258       13.0146800586  MEMB      161             0.0000000000
     20121       161  PMPG      H5Y           -45.3783202170      -38.9326228048       12.0572494126  MEMB      161             0.0000000000
     20122       161  PMPG      C36           -43.6137408509      -39.2800946468       11.1027698628  MEMB      161             0.0000000000
     20123       161  PMPG      H6X           -44.0139984758      -40.0996231070       10.4683508539  MEMB      161             0.0000000000
     20124       161  PMPG      H6Y           -42.6160646490      -39.7359380589       11.2793198793  MEMB      161             0.0000000000
     20125       161  PMPG      C37           -43.3876538323      -38.0063690500       10.3767410156  MEMB      161             0.0000000000
     20126       161  PMPG      H7X           -42.8515686363      -37.1844282724       10.8976508884  MEMB      161             0.0000000000
     20127       161  PMPG      H7Y           -44.4310072557      -37.6987885805       10.1506240920  MEMB      161             0.0000000000
     20128       161  PMPG      C38           -42.7873825571      -38.2601099366        8.9878182396  MEMB      161             0.0000000000
     20129       161  PMPG      H8X           -43.2358492714      -39.2235062365        8.6636796746  MEMB      161             0.0000000000
     20130       161  PMPG      H8Y           -41.6772335011      -38.2942274674        8.9608714832  MEMB      161             0.0000000000
     20131       161  PMPG      C39           -43.3392718423      -37.3238458456        7.8346364815  MEMB      161             0.0000000000
     20132       161  PMPG      H9X           -43.1041075268      -36.2797380240        8.1327257805  MEMB      161             0.0000000000
     20133       161  PMPG      H9Y           -44.4431199058      -37.4317416888        7.8994363981  MEMB      161             0.0000000000
     20134       161  PMPG      C310          -42.9336673125      -37.5812883413        6.3228053980  MEMB      161             0.0000000000
     20135       161  PMPG      H10X          -42.9801823028      -38.6842177442        6.1974902132  MEMB      161             0.0000000000
     20136       161  PMPG      H10Y          -41.8482698533      -37.3441524613        6.3227304372  MEMB      161             0.0000000000
     20137       161  PMPG      C311          -43.7027867883      -36.8659330345        5.2080181463  MEMB      161             0.0000000000
     20138       161  PMPG      H11X          -43.0317397360      -36.8373350047        4.3230326239  MEMB      161             0.0000000000
     20139       161  PMPG      H11Y          -43.8841454834      -35.8582786711        5.6393673498  MEMB      161             0.0000000000
     20140       161  PMPG      C312          -45.0484047350      -37.2674701622        4.8170985615  MEMB      161             0.0000000000
     20141       161  PMPG      H12X          -45.6777816368      -36.4162639465        4.4799726004  MEMB      161             0.0000000000
     20142       161  PMPG      H12Y          -45.5012732183      -37.5795601695        5.7824125374  MEMB      161             0.0000000000
     20143       161  PMPG      C313          -45.0624838671      -38.3238708297        3.7674625093  MEMB      161             0.0000000000
     20144       161  PMPG      H13X          -46.0002766588      -38.9179158516        3.7230071404  MEMB      161             0.0000000000
     20145       161  PMPG      H13Y          -44.3232843111      -39.1207875551        3.9973075404  MEMB      161             0.0000000000
     20146       161  PMPG      C314          -44.8079194262      -37.7065057080        2.4493558760  MEMB      161             0.0000000000
     20147       161  PMPG      H14X          -43.8129743994      -37.2270105639        2.3289805851  MEMB      161             0.0000000000
     20148       161  PMPG      H14Y          -45.6221747880      -36.9525350856        2.3960908555  MEMB      161             0.0000000000
     20149       161  PMPG      C315          -44.9357490596      -38.6054925684        1.2180777165  MEMB      161             0.0000000000
     20150       161  PMPG      H15X          -44.1557297387      -39.3730015083        1.4099661768  MEMB      161             0.0000000000
     20151       161  PMPG      H15Y          -44.6817044208      -38.1185251863        0.2523422854  MEMB      161             0.0000000000
     20152       161  PMPG      C316          -46.2385603184      -39.3647902951        0.9471785644  MEMB      161             0.0000000000
     20153       161  PMPG      H16X          -46.4158254531      -40.0773593411        1.7809313749  MEMB      161             0.0000000000
     20154       161  PMPG      H16Y          -46.1009762446      -40.0306859084        0.0685588456  MEMB      161             0.0000000000
     20155       161  PMPG      H16Z          -47.1527058049      -38.7526118946        0.7925922931  MEMB      161             0.0000000000
     20156       162  QMPE      N              16.3418240945      -55.9096007804       19.2107081514  MEMB      162             0.0000000000
     20157       162  QMPE      HN1            15.4838964155      -56.3771784373       19.5669820694  MEMB      162             0.0000000000
     20158       162  QMPE      HN2            16.1650881344      -54.8850097350       19.2347411936  MEMB      162             0.0000000000
     20159       162  QMPE      HN3            16.5722287425      -56.1550197090       18.2266942278  MEMB      162             0.0000000000
     20160       162  QMPE      C12            17.5703037821      -56.2009175077       20.1262056698  MEMB      162             0.0000000000
     20161       162  QMPE      H12A           18.2297671776      -56.9508676733       19.6393753273  MEMB      162             0.0000000000
     20162       162  QMPE      H12B           17.2412467675      -56.7189542051       21.0523161082  MEMB      162             0.0000000000
     20163       162  QMPE      C11            18.2723258131      -54.8646188384       20.5094088362  MEMB      162             0.0000000000
     20164       162  QMPE      H11A           18.9090894639      -54.9358851277       21.4170288271  MEMB      162             0.0000000000
     20165       162  QMPE      H11B           17.4278258075      -54.1673307371       20.6963044830  MEMB      162             0.0000000000
     20166       162  QMPE      P              18.6549312282      -53.3407831489       18.4185880877  MEMB      162             0.0000000000
     20167       162  QMPE      O13            19.8374182316      -52.6313026657       17.8492446199  MEMB      162             0.0000000000
     20168       162  QMPE      O14            17.5034645567      -52.5724826892       18.9258120930  MEMB      162             0.0000000000
     20169       162  QMPE      O11            18.1576070322      -54.4034881885       17.3824911474  MEMB      162             0.0000000000
     20170       162  QMPE      O12            19.1461044662      -54.2912733820       19.5775413921  MEMB      162             0.0000000000
     20171       162  QMPE      C1             19.0260780171      -55.0228795444       16.4038860991  MEMB      162             0.0000000000
     20172       162  QMPE      HA             18.5894643911      -56.0331825380       16.2523035500  MEMB      162             0.0000000000
     20173       162  QMPE      HB             20.0029948609      -55.2448258667       16.8841924245  MEMB      162             0.0000000000
     20174       162  QMPE      C2             19.2023490238      -54.2510588997       15.0615264154  MEMB      162             0.0000000000
     20175       162  QMPE      HS             19.4627497600      -53.1852757674       15.2365087643  MEMB      162             0.0000000000
     20176       162  QMPE      O21            18.0726794356      -54.4180291720       14.2688900103  MEMB      162             0.0000000000
     20177       162  QMPE      C21            17.0372679304      -53.5658783634       14.3633301834  MEMB      162             0.0000000000
     20178       162  QMPE      O22            17.1113659247      -52.4960178462       14.9257049856  MEMB      162             0.0000000000
     20179       162  QMPE      C22            15.7939552241      -54.2169220263       13.7024899349  MEMB      162             0.0000000000
     20180       162  QMPE      H2R            14.8348722895      -53.8686218516       14.1419988189  MEMB      162             0.0000000000
     20181       162  QMPE      H2S            15.7770283801      -55.2870595503       14.0005507356  MEMB      162             0.0000000000
     20182       162  QMPE      C3             20.4019397739      -54.7222471206       14.2676518914  MEMB      162             0.0000000000
     20183       162  QMPE      HX             20.1633183439      -55.7897778732       14.0733352673  MEMB      162             0.0000000000
     20184       162  QMPE      HY             21.3030096635      -54.6277647377       14.9106662182  MEMB      162             0.0000000000
     20185       162  QMPE      O31            20.6982362317      -53.9011071080       13.1670171523  MEMB      162             0.0000000000
     20186       162  QMPE      C31            20.0061144279      -54.2626971490       12.1219254758  MEMB      162             0.0000000000
     20187       162  QMPE      O32            19.3744076184      -55.2838414313       11.9689126079  MEMB      162             0.0000000000
     20188       162  QMPE      C32            20.2104033505      -53.1092334295       11.1027200752  MEMB      162             0.0000000000
     20189       162  QMPE      H2X            19.9044503972      -52.1813943450       11.6317085283  MEMB      162             0.0000000000
     20190       162  QMPE      H2Y            21.2911962062      -52.8676944605       11.0140245621  MEMB      162             0.0000000000
     20191       162  QMPE      C23            15.7033093751      -54.0278640726       12.1875121696  MEMB      162             0.0000000000
     20192       162  QMPE      H3R            16.5606786567      -54.4868305141       11.6503073000  MEMB      162             0.0000000000
     20193       162  QMPE      H3S            15.6456644742      -52.9427151509       11.9563198075  MEMB      162             0.0000000000
     20194       162  QMPE      C24            14.6097193022      -54.7726046992       11.5053210634  MEMB      162             0.0000000000
     20195       162  QMPE      H4R            14.4031006244      -54.4181232637       10.4728610781  MEMB      162             0.0000000000
     20196       162  QMPE      H4S            13.6818399840      -54.5104168878       12.0572435831  MEMB      162             0.0000000000
     20197       162  QMPE      C25            14.7056863590      -56.3116004375       11.6296976346  MEMB      162             0.0000000000
     20198       162  QMPE      H5R            13.7251620228      -56.7622071391       11.3654112810  MEMB      162             0.0000000000
     20199       162  QMPE      H5S            14.9065977402      -56.5527791448       12.6954313326  MEMB      162             0.0000000000
     20200       162  QMPE      C26            15.8204940288      -56.9261776271       10.7404241872  MEMB      162             0.0000000000
     20201       162  QMPE      H6R            15.8028748787      -58.0138084239       10.9664105616  MEMB      162             0.0000000000
     20202       162  QMPE      H6S            16.8494505466      -56.5537802593       10.9324899771  MEMB      162             0.0000000000
     20203       162  QMPE      C27            15.5605015095      -56.9229006190        9.1962110336  MEMB      162             0.0000000000
     20204       162  QMPE      H7R            14.9437898149      -56.0961114499        8.7834067570  MEMB      162             0.0000000000
     20205       162  QMPE      H7S            15.1213026954      -57.9019211083        8.9082108432  MEMB      162             0.0000000000
     20206       162  QMPE      C28            16.8525738280      -56.8318496677        8.2369729463  MEMB      162             0.0000000000
     20207       162  QMPE      H8R            17.2308504367      -55.7961270539        8.3730115036  MEMB      162             0.0000000000
     20208       162  QMPE      H8S            16.3755882351      -56.9519292639        7.2407869627  MEMB      162             0.0000000000
     20209       162  QMPE      C29            17.8097456995      -58.0182981600        8.4081199328  MEMB      162             0.0000000000
     20210       162  QMPE      H9R            17.4036888552      -59.0215612313        8.6589231242  MEMB      162             0.0000000000
     20211       162  QMPE      C217           19.0390510638      -57.6437268174        9.1432145701  MEMB      162             0.0000000000
     20212       162  QMPE      H17R           19.3214404754      -56.6070678844        9.2791679375  MEMB      162             0.0000000000
     20213       162  QMPE      H17S           19.3737579112      -58.4757732504        9.7503053534  MEMB      162             0.0000000000
     20214       162  QMPE      C210           19.1017774367      -58.0386841804        7.6374976102  MEMB      162             0.0000000000
     20215       162  QMPE      H10R           19.5931319068      -59.0199899952        7.4644933981  MEMB      162             0.0000000000
     20216       162  QMPE      C211           19.6060064816      -56.8950873137        6.7486451413  MEMB      162             0.0000000000
     20217       162  QMPE      H11R           19.1465518605      -55.9502229587        7.1098281724  MEMB      162             0.0000000000
     20218       162  QMPE      H11S           20.7165494573      -56.8669119557        6.7337561837  MEMB      162             0.0000000000
     20219       162  QMPE      C212           19.1591907631      -57.0146719994        5.2543137789  MEMB      162             0.0000000000
     20220       162  QMPE      H12R           18.0992226681      -57.3466045905        5.2296300850  MEMB      162             0.0000000000
     20221       162  QMPE      H12S           19.7933073121      -57.8192997793        4.8244400673  MEMB      162             0.0000000000
     20222       162  QMPE      C213           19.2785639725      -55.6617226057        4.5763751014  MEMB      162             0.0000000000
     20223       162  QMPE      H13R           18.6577707800      -54.8523871001        5.0167302359  MEMB      162             0.0000000000
     20224       162  QMPE      H13S           18.7671248349      -55.8030429819        3.6002702663  MEMB      162             0.0000000000
     20225       162  QMPE      C214           20.6208641128      -54.9649414917        4.2262377207  MEMB      162             0.0000000000
     20226       162  QMPE      H14R           21.0555174741      -54.7650657305        5.2289575469  MEMB      162             0.0000000000
     20227       162  QMPE      H14S           20.4168974593      -54.0064535257        3.7027688051  MEMB      162             0.0000000000
     20228       162  QMPE      C215           21.5036289496      -55.8742371830        3.3138344728  MEMB      162             0.0000000000
     20229       162  QMPE      H15R           21.4907503417      -56.8368105280        3.8684584332  MEMB      162             0.0000000000
     20230       162  QMPE      H15S           22.5557929690      -55.5178484766        3.3299057820  MEMB      162             0.0000000000
     20231       162  QMPE      C216           20.8561959520      -55.8860524865        1.9190248477  MEMB      162             0.0000000000
     20232       162  QMPE      H16R           19.8368438488      -56.3258508137        1.8763743727  MEMB      162             0.0000000000
     20233       162  QMPE      H16S           21.5423483459      -56.3663436834        1.1890692160  MEMB      162             0.0000000000
     20234       162  QMPE      H16T           20.8968223796      -54.8379981707        1.5526204460  MEMB      162             0.0000000000
     20235       162  QMPE      C33            19.4260313881      -53.3552300552        9.7923365140  MEMB      162             0.0000000000
     20236       162  QMPE      H3X            18.8472108769      -54.3015245948        9.8540979239  MEMB      162             0.0000000000
     20237       162  QMPE      H3Y            20.1358694455      -53.4096137026        8.9394044250  MEMB      162             0.0000000000
     20238       162  QMPE      C34            18.3439415460      -52.2132710552        9.6257821566  MEMB      162             0.0000000000
     20239       162  QMPE      H4X            18.9273372737      -51.2697047304        9.6862247532  MEMB      162             0.0000000000
     20240       162  QMPE      H4Y            17.6922000325      -52.2013350366       10.5254556294  MEMB      162             0.0000000000
     20241       162  QMPE      C35            17.6314731010      -52.3675481182        8.3478906153  MEMB      162             0.0000000000
     20242       162  QMPE      H5X            17.1003977539      -53.3392306361        8.2578187665  MEMB      162             0.0000000000
     20243       162  QMPE      H5Y            18.3518775214      -52.2758457286        7.5071000176  MEMB      162             0.0000000000
     20244       162  QMPE      C36            16.6209834911      -51.1836203810        8.1883413792  MEMB      162             0.0000000000
     20245       162  QMPE      H6X            17.1711899878      -50.2238468237        8.2904596068  MEMB      162             0.0000000000
     20246       162  QMPE      H6Y            15.9237565325      -51.2048385618        9.0530637882  MEMB      162             0.0000000000
     20247       162  QMPE      C37            15.9386075320      -51.3938057626        6.8333568045  MEMB      162             0.0000000000
     20248       162  QMPE      H7X            15.3248987047      -50.5416391706        6.4707356246  MEMB      162             0.0000000000
     20249       162  QMPE      H7Y            16.7817252391      -51.5503681849        6.1269847529  MEMB      162             0.0000000000
     20250       162  QMPE      C38            14.9505871456      -52.6512990636        6.7641540753  MEMB      162             0.0000000000
     20251       162  QMPE      H8X            14.4687687083      -52.7828023887        7.7565649022  MEMB      162             0.0000000000
     20252       162  QMPE      H8Y            14.1697319353      -52.2810581998        6.0659364002  MEMB      162             0.0000000000
     20253       162  QMPE      C39            15.5743456218      -53.9565092441        6.2001251220  MEMB      162             0.0000000000
     20254       162  QMPE      H9X            15.8551360883      -54.5493769061        7.0967777441  MEMB      162             0.0000000000
     20255       162  QMPE      H9Y            16.5395458178      -53.6444320515        5.7470055508  MEMB      162             0.0000000000
     20256       162  QMPE      C310           14.7879442699      -54.8400169262        5.1546947927  MEMB      162             0.0000000000
     20257       162  QMPE      H10X           14.2072066313      -54.1226338478        4.5362880290  MEMB      162             0.0000000000
     20258       162  QMPE      H10Y           13.9414699569      -55.3749869232        5.6359528534  MEMB      162             0.0000000000
     20259       162  QMPE      C311           15.7259606563      -55.7693837962        4.3372971591  MEMB      162             0.0000000000
     20260       162  QMPE      H11X           16.0838609453      -56.4894899194        5.1038975343  MEMB      162             0.0000000000
     20261       162  QMPE      H11Y           16.5796546285      -55.2161157523        3.8907305168  MEMB      162             0.0000000000
     20262       162  QMPE      C312           15.0268743647      -56.5698638954        3.1734922991  MEMB      162             0.0000000000
     20263       162  QMPE      H12X           15.7480800810      -57.2844205945        2.7222816620  MEMB      162             0.0000000000
     20264       162  QMPE      H12Y           14.7636446749      -55.7684952654        2.4504161745  MEMB      162             0.0000000000
     20265       162  QMPE      C313           13.8317282792      -57.4238787647        3.5327387531  MEMB      162             0.0000000000
     20266       162  QMPE      H13X           14.0291305739      -58.4062271968        4.0126819014  MEMB      162             0.0000000000
     20267       162  QMPE      H13Y           13.2633773807      -56.9040877988        4.3334355591  MEMB      162             0.0000000000
     20268       162  QMPE      C314           12.7461012759      -57.7372625315        2.4516652979  MEMB      162             0.0000000000
     20269       162  QMPE      H14X           12.1351837434      -56.8355091153        2.2327093623  MEMB      162             0.0000000000
     20270       162  QMPE      H14Y           12.0042172417      -58.4013720900        2.9445008037  MEMB      162             0.0000000000
     20271       162  QMPE      C315           13.3184646645      -58.5123810575        1.1640507305  MEMB      162             0.0000000000
     20272       162  QMPE      H15X           14.0480025662      -59.3012881227        1.4464005086  MEMB      162             0.0000000000
     20273       162  QMPE      H15Y           12.4645838711      -58.9855966641        0.6336968636  MEMB      162             0.0000000000
     20274       162  QMPE      H15Z           13.8835368197      -57.8055931358        0.5194860892  MEMB      162             0.0000000000
     20275       163  PMPE      N             -52.1786404378       22.1496513198       21.7729928024  MEMB      163             0.0000000000
     20276       163  PMPE      HN1           -53.0556614976       22.3617270344       21.2558294743  MEMB      163             0.0000000000
     20277       163  PMPE      HN2           -52.3036046957       21.1844312436       22.1395092145  MEMB      163             0.0000000000
     20278       163  PMPE      HN3           -51.9804269409       22.7172659018       22.6215947407  MEMB      163             0.0000000000
     20279       163  PMPE      C12           -51.0021119326       22.0906956649       20.8236663950  MEMB      163             0.0000000000
     20280       163  PMPE      H12A          -50.8509533017       21.0329746428       20.5192024876  MEMB      163             0.0000000000
     20281       163  PMPE      H12B          -50.0790847256       22.4452755969       21.3302382342  MEMB      163             0.0000000000
     20282       163  PMPE      C11           -51.2739450452       23.0400425906       19.6792631535  MEMB      163             0.0000000000
     20283       163  PMPE      H11A          -50.2250281334       23.2015369449       19.3506084381  MEMB      163             0.0000000000
     20284       163  PMPE      H11B          -51.6538587940       24.0342319332       19.9979701352  MEMB      163             0.0000000000
     20285       163  PMPE      P             -53.2596671539       23.0845101054       17.9624782693  MEMB      163             0.0000000000
     20286       163  PMPE      O13           -52.7261323809       24.0505701581       16.9713113068  MEMB      163             0.0000000000
     20287       163  PMPE      O14           -54.2148382430       23.5429822073       19.0061386706  MEMB      163             0.0000000000
     20288       163  PMPE      O11           -53.9936045174       21.8898578355       17.1364743856  MEMB      163             0.0000000000
     20289       163  PMPE      O12           -51.9556227181       22.3843972952       18.6476750190  MEMB      163             0.0000000000
     20290       163  PMPE      C1            -54.5086408209       20.6805458599       17.6848856919  MEMB      163             0.0000000000
     20291       163  PMPE      HA            -55.5538465035       20.9162229543       17.9786925692  MEMB      163             0.0000000000
     20292       163  PMPE      HB            -54.0319862243       20.3939484037       18.6466461136  MEMB      163             0.0000000000
     20293       163  PMPE      C2            -54.4792594744       19.5779113451       16.5208687117  MEMB      163             0.0000000000
     20294       163  PMPE      HS            -54.9829908294       18.6421046493       16.8446613214  MEMB      163             0.0000000000
     20295       163  PMPE      O21           -53.1240696197       19.4677968764       16.0096061939  MEMB      163             0.0000000000
     20296       163  PMPE      C21           -52.2818322063       18.9268338665       16.8553795897  MEMB      163             0.0000000000
     20297       163  PMPE      O22           -52.4993004841       18.4696332760       17.9539393308  MEMB      163             0.0000000000
     20298       163  PMPE      C22           -50.9658291882       18.7297428057       16.1188658974  MEMB      163             0.0000000000
     20299       163  PMPE      H2R           -51.0628869275       17.8625072623       15.4312592510  MEMB      163             0.0000000000
     20300       163  PMPE      H2S           -50.2122078309       18.5632529882       16.9180259651  MEMB      163             0.0000000000
     20301       163  PMPE      C3            -55.4795921483       20.0042261004       15.3809712751  MEMB      163             0.0000000000
     20302       163  PMPE      HX            -55.2911207968       21.0768522838       15.1612607035  MEMB      163             0.0000000000
     20303       163  PMPE      HY            -56.5476952749       19.9300157584       15.6775680863  MEMB      163             0.0000000000
     20304       163  PMPE      O31           -55.2473674629       19.2062136080       14.1596177721  MEMB      163             0.0000000000
     20305       163  PMPE      C31           -54.9896066651       19.8108394467       12.9751901030  MEMB      163             0.0000000000
     20306       163  PMPE      O32           -54.8285159845       20.9896998184       12.7701801759  MEMB      163             0.0000000000
     20307       163  PMPE      C32           -54.8068334638       18.6848785121       11.9387408586  MEMB      163             0.0000000000
     20308       163  PMPE      H2X           -55.8008274188       18.2105267826       11.7928385222  MEMB      163             0.0000000000
     20309       163  PMPE      H2Y           -54.1150022475       17.9531184225       12.4080145241  MEMB      163             0.0000000000
     20310       163  PMPE      C23           -50.5039143750       20.0445820031       15.4061283834  MEMB      163             0.0000000000
     20311       163  PMPE      H3R           -49.4186259882       19.9299254217       15.1979837160  MEMB      163             0.0000000000
     20312       163  PMPE      H3S           -50.5644210727       20.9001800750       16.1122529024  MEMB      163             0.0000000000
     20313       163  PMPE      C24           -51.1074987407       20.3017825142       14.0599704375  MEMB      163             0.0000000000
     20314       163  PMPE      H4R           -52.2030131846       20.4854708925       14.0806527273  MEMB      163             0.0000000000
     20315       163  PMPE      H4S           -51.1076221831       19.3805529087       13.4389574642  MEMB      163             0.0000000000
     20316       163  PMPE      C25           -50.4230198512       21.3700671543       13.1437509196  MEMB      163             0.0000000000
     20317       163  PMPE      H5R           -49.3133391312       21.3369160012       13.1009671840  MEMB      163             0.0000000000
     20318       163  PMPE      H5S           -50.5496279997       22.2957016234       13.7449930678  MEMB      163             0.0000000000
     20319       163  PMPE      C26           -50.8417164768       21.5297090933       11.7356067317  MEMB      163             0.0000000000
     20320       163  PMPE      H6R           -51.9413393515       21.6854413415       11.7655737694  MEMB      163             0.0000000000
     20321       163  PMPE      H6S           -50.4980880043       20.6778284785       11.1106745030  MEMB      163             0.0000000000
     20322       163  PMPE      C27           -50.2904870035       22.7980375122       11.1323374300  MEMB      163             0.0000000000
     20323       163  PMPE      H7R           -49.1827497044       22.8348690434       11.2090382204  MEMB      163             0.0000000000
     20324       163  PMPE      H7S           -50.6139570672       23.6940268030       11.7040814585  MEMB      163             0.0000000000
     20325       163  PMPE      C28           -50.5240861447       22.8650594144        9.6253354430  MEMB      163             0.0000000000
     20326       163  PMPE      H8R           -50.1744962318       21.9050118653        9.1889689078  MEMB      163             0.0000000000
     20327       163  PMPE      H8S           -50.0320100924       23.7440958335        9.1568518112  MEMB      163             0.0000000000
     20328       163  PMPE      C29           -51.9777043269       23.1192592395        9.3735680290  MEMB      163             0.0000000000
     20329       163  PMPE      H9R           -52.5283223648       23.9543396539        9.8570780291  MEMB      163             0.0000000000
     20330       163  PMPE      C217          -52.9451302896       22.0826968255        8.9101799575  MEMB      163             0.0000000000
     20331       163  PMPE      H17R          -53.9769230532       22.2684538714        9.1818177904  MEMB      163             0.0000000000
     20332       163  PMPE      H17S          -52.4754696296       21.1143416973        8.7893642235  MEMB      163             0.0000000000
     20333       163  PMPE      C210          -52.3335684249       23.1311982285        7.9549722809  MEMB      163             0.0000000000
     20334       163  PMPE      H10R          -53.1283099831       23.7774514405        7.5247818210  MEMB      163             0.0000000000
     20335       163  PMPE      C211          -51.3940921120       22.5376013252        6.8810577809  MEMB      163             0.0000000000
     20336       163  PMPE      H11R          -51.6350723942       21.4582302859        6.7751910379  MEMB      163             0.0000000000
     20337       163  PMPE      H11S          -50.3443869057       22.5478979008        7.2448359160  MEMB      163             0.0000000000
     20338       163  PMPE      C212          -51.5245809514       23.3803982351        5.5599106558  MEMB      163             0.0000000000
     20339       163  PMPE      H12R          -51.2444759916       24.4149683886        5.8523617474  MEMB      163             0.0000000000
     20340       163  PMPE      H12S          -52.5391930788       23.4335776045        5.1104054196  MEMB      163             0.0000000000
     20341       163  PMPE      C213          -50.4150968090       22.9480549025        4.5618140298  MEMB      163             0.0000000000
     20342       163  PMPE      H13R          -49.4974723459       22.6513531470        5.1134060612  MEMB      163             0.0000000000
     20343       163  PMPE      H13S          -50.0643368796       23.7992877995        3.9399686969  MEMB      163             0.0000000000
     20344       163  PMPE      C214          -50.8215908361       21.6878715406        3.6611147274  MEMB      163             0.0000000000
     20345       163  PMPE      H14R          -51.8393728161       21.8591622462        3.2498970623  MEMB      163             0.0000000000
     20346       163  PMPE      H14S          -51.0635214891       20.8806842307        4.3851582661  MEMB      163             0.0000000000
     20347       163  PMPE      C215          -49.7733254028       21.2537682745        2.6518299189  MEMB      163             0.0000000000
     20348       163  PMPE      H15R          -48.7715242877       21.4992734418        3.0646772122  MEMB      163             0.0000000000
     20349       163  PMPE      H15S          -49.7971589052       21.8570025683        1.7191657135  MEMB      163             0.0000000000
     20350       163  PMPE      C216          -49.8854522442       19.7863436999        2.2857786297  MEMB      163             0.0000000000
     20351       163  PMPE      H16R          -49.4929573422       19.2678084303        3.1865509037  MEMB      163             0.0000000000
     20352       163  PMPE      H16S          -50.9165597856       19.4471306261        2.0489814089  MEMB      163             0.0000000000
     20353       163  PMPE      H16T          -49.1819969767       19.5345600827        1.4635402142  MEMB      163             0.0000000000
     20354       163  PMPE      C33           -54.1744255018       19.2818293091       10.6773437632  MEMB      163             0.0000000000
     20355       163  PMPE      H3X           -53.2395588506       19.8308681835       10.9200399774  MEMB      163             0.0000000000
     20356       163  PMPE      H3Y           -54.9071488130       20.0388696833       10.3247428550  MEMB      163             0.0000000000
     20357       163  PMPE      C34           -53.9744165886       18.2542652846        9.5909788664  MEMB      163             0.0000000000
     20358       163  PMPE      H4X           -53.3890429339       17.3624693533        9.9013959015  MEMB      163             0.0000000000
     20359       163  PMPE      H4Y           -53.4275257964       18.8061252775        8.7968238035  MEMB      163             0.0000000000
     20360       163  PMPE      C35           -55.2277495284       17.5928237218        9.0179704494  MEMB      163             0.0000000000
     20361       163  PMPE      H5X           -55.7037338553       17.0797007597        9.8807939796  MEMB      163             0.0000000000
     20362       163  PMPE      H5Y           -55.0110299440       16.8552622011        8.2158752011  MEMB      163             0.0000000000
     20363       163  PMPE      C36           -56.2598004177       18.5821879906        8.4764437803  MEMB      163             0.0000000000
     20364       163  PMPE      H6X           -56.6231806768       19.0587522541        9.4119442846  MEMB      163             0.0000000000
     20365       163  PMPE      H6Y           -57.1442606815       18.1189566432        7.9891365093  MEMB      163             0.0000000000
     20366       163  PMPE      C37           -55.7279457306       19.7805432659        7.5853931357  MEMB      163             0.0000000000
     20367       163  PMPE      H7X           -55.4125771830       19.3490935700        6.6113739480  MEMB      163             0.0000000000
     20368       163  PMPE      H7Y           -54.8231911698       20.1948615523        8.0794383992  MEMB      163             0.0000000000
     20369       163  PMPE      C38           -56.8304669502       20.7919720360        7.3549048787  MEMB      163             0.0000000000
     20370       163  PMPE      H8X           -57.1667744110       21.0291995841        8.3868647914  MEMB      163             0.0000000000
     20371       163  PMPE      H8Y           -57.5740657821       20.1821716071        6.7985545768  MEMB      163             0.0000000000
     20372       163  PMPE      C39           -56.4069873556       22.0070319294        6.5847454279  MEMB      163             0.0000000000
     20373       163  PMPE      H9X           -55.6292523683       22.5941892044        7.1183142183  MEMB      163             0.0000000000
     20374       163  PMPE      H9Y           -57.3571584048       22.5818280550        6.5514963827  MEMB      163             0.0000000000
     20375       163  PMPE      C310          -56.1098229320       21.7559110705        5.1372485224  MEMB      163             0.0000000000
     20376       163  PMPE      H10X          -57.0431432567       21.3900289533        4.6583286635  MEMB      163             0.0000000000
     20377       163  PMPE      H10Y          -55.3679299821       20.9399659062        5.0025291368  MEMB      163             0.0000000000
     20378       163  PMPE      C311          -55.6402926936       23.0466542389        4.4751324401  MEMB      163             0.0000000000
     20379       163  PMPE      H11X          -54.6613315533       23.3083708769        4.9306109256  MEMB      163             0.0000000000
     20380       163  PMPE      H11Y          -56.3689488154       23.8270954987        4.7822040171  MEMB      163             0.0000000000
     20381       163  PMPE      C312          -55.7541256444       23.1107182080        2.9368219904  MEMB      163             0.0000000000
     20382       163  PMPE      H12X          -56.7465005623       22.8955240908        2.4860396772  MEMB      163             0.0000000000
     20383       163  PMPE      H12Y          -55.0640447543       22.3271449528        2.5571883269  MEMB      163             0.0000000000
     20384       163  PMPE      C313          -55.3906912280       24.4377894760        2.3092119412  MEMB      163             0.0000000000
     20385       163  PMPE      H13X          -55.8473392764       25.2645281058        2.8942734787  MEMB      163             0.0000000000
     20386       163  PMPE      H13Y          -55.6532723489       24.4912949980        1.2310145854  MEMB      163             0.0000000000
     20387       163  PMPE      C314          -53.8721266625       24.8401562445        2.2560514112  MEMB      163             0.0000000000
     20388       163  PMPE      H14X          -53.3149670475       24.7704689367        3.2147161868  MEMB      163             0.0000000000
     20389       163  PMPE      H14Y          -53.8560535821       25.8553976690        1.8051104900  MEMB      163             0.0000000000
     20390       163  PMPE      C315          -53.0266796261       24.1320685974        1.1556709524  MEMB      163             0.0000000000
     20391       163  PMPE      H15X          -53.1641283115       23.0473392398        1.3526260310  MEMB      163             0.0000000000
     20392       163  PMPE      H15Y          -51.9352505186       24.3092629848        1.2638607864  MEMB      163             0.0000000000
     20393       163  PMPE      C316          -53.4323687276       24.5368589756       -0.2789483438  MEMB      163             0.0000000000
     20394       163  PMPE      H16X          -53.4424489486       25.6382317592       -0.4245404955  MEMB      163             0.0000000000
     20395       163  PMPE      H16Y          -54.4420257295       24.1597517550       -0.5485844457  MEMB      163             0.0000000000
     20396       163  PMPE      H16Z          -52.6990653354       24.2281448648       -1.0543715688  MEMB      163             0.0000000000
     20397       164  PMPE      N              47.2368014814      -31.5101413120       21.8199955775  MEMB      164             0.0000000000
     20398       164  PMPE      HN1            46.5319650897      -32.2437803763       22.0358180429  MEMB      164             0.0000000000
     20399       164  PMPE      HN2            47.4736156955      -30.9187373824       22.6420422132  MEMB      164             0.0000000000
     20400       164  PMPE      HN3            46.9071827892      -30.8001657577       21.1352430395  MEMB      164             0.0000000000
     20401       164  PMPE      C12            48.4312493937      -32.2308331765       21.3906364865  MEMB      164             0.0000000000
     20402       164  PMPE      H12A           48.2065993591      -33.3005527115       21.1917557399  MEMB      164             0.0000000000
     20403       164  PMPE      H12B           49.2645909528      -32.0673776118       22.1069781497  MEMB      164             0.0000000000
     20404       164  PMPE      C11            48.8219905869      -31.7597052042       19.9645381593  MEMB      164             0.0000000000
     20405       164  PMPE      H11A           49.6929086962      -32.3604858709       19.6255911506  MEMB      164             0.0000000000
     20406       164  PMPE      H11B           49.0857818636      -30.6813747251       19.9205090203  MEMB      164             0.0000000000
     20407       164  PMPE      P              47.5175917132      -31.4521187037       17.7378394501  MEMB      164             0.0000000000
     20408       164  PMPE      O13            47.1817189459      -30.0696655852       18.1236736040  MEMB      164             0.0000000000
     20409       164  PMPE      O14            46.5534738375      -32.2247194009       16.9166691185  MEMB      164             0.0000000000
     20410       164  PMPE      O11            48.9676046806      -31.3980964712       16.9586152123  MEMB      164             0.0000000000
     20411       164  PMPE      O12            47.8194957639      -32.1307505451       19.0880324194  MEMB      164             0.0000000000
     20412       164  PMPE      C1             49.6413066207      -32.5660746146       16.4462052535  MEMB      164             0.0000000000
     20413       164  PMPE      HA             49.3484337564      -33.4328626793       17.0764631150  MEMB      164             0.0000000000
     20414       164  PMPE      HB             50.6945042709      -32.2388330993       16.5804021164  MEMB      164             0.0000000000
     20415       164  PMPE      C2             49.4682261578      -32.8266084739       14.9922926208  MEMB      164             0.0000000000
     20416       164  PMPE      HS             50.0335157015      -33.7607618520       14.7870460747  MEMB      164             0.0000000000
     20417       164  PMPE      O21            49.8746258702      -31.6783649828       14.2342588879  MEMB      164             0.0000000000
     20418       164  PMPE      C21            51.1112064157      -31.5523781602       14.0410219086  MEMB      164             0.0000000000
     20419       164  PMPE      O22            51.9449355318      -32.3516962240       14.4897208373  MEMB      164             0.0000000000
     20420       164  PMPE      C22            51.4128765263      -30.2485485431       13.2872990580  MEMB      164             0.0000000000
     20421       164  PMPE      H2R            52.4376742449      -29.9237991084       13.5677427262  MEMB      164             0.0000000000
     20422       164  PMPE      H2S            50.8506118471      -29.3699719738       13.6697677786  MEMB      164             0.0000000000
     20423       164  PMPE      C3             47.9701109522      -33.1428485029       14.5904748846  MEMB      164             0.0000000000
     20424       164  PMPE      HX             47.2837721125      -32.2693613755       14.6072146675  MEMB      164             0.0000000000
     20425       164  PMPE      HY             47.5642403922      -33.8368374478       15.3572664019  MEMB      164             0.0000000000
     20426       164  PMPE      O31            47.9172890141      -33.8890385836       13.3589448065  MEMB      164             0.0000000000
     20427       164  PMPE      C31            47.4566233516      -33.2458455888       12.3097132215  MEMB      164             0.0000000000
     20428       164  PMPE      O32            46.8920867446      -32.1146810601       12.3506010117  MEMB      164             0.0000000000
     20429       164  PMPE      C32            47.7439269459      -33.9448527826       10.9964507099  MEMB      164             0.0000000000
     20430       164  PMPE      H2X            46.7340069454      -34.2453005609       10.6441527539  MEMB      164             0.0000000000
     20431       164  PMPE      H2Y            48.3221606858      -34.8529366501       11.2709511620  MEMB      164             0.0000000000
     20432       164  PMPE      C23            51.1835321056      -30.5322695627       11.8019670190  MEMB      164             0.0000000000
     20433       164  PMPE      H3R            50.1170123539      -30.4743609501       11.4961840566  MEMB      164             0.0000000000
     20434       164  PMPE      H3S            51.5792951770      -31.5208781634       11.4851931342  MEMB      164             0.0000000000
     20435       164  PMPE      C24            51.9408928446      -29.5180350372       10.8690666780  MEMB      164             0.0000000000
     20436       164  PMPE      H4R            52.9706630922      -29.3000217625       11.2245444615  MEMB      164             0.0000000000
     20437       164  PMPE      H4S            51.3132501211      -28.6067136529       10.9684587971  MEMB      164             0.0000000000
     20438       164  PMPE      C25            51.9299229199      -29.9338762691        9.4227794310  MEMB      164             0.0000000000
     20439       164  PMPE      H5R            50.8498698320      -30.0123340126        9.1744842108  MEMB      164             0.0000000000
     20440       164  PMPE      H5S            52.4735414726      -30.8911653958        9.2731210360  MEMB      164             0.0000000000
     20441       164  PMPE      C26            52.5522760676      -28.8768533405        8.5108393722  MEMB      164             0.0000000000
     20442       164  PMPE      H6R            53.6274458547      -28.7225368287        8.7443287422  MEMB      164             0.0000000000
     20443       164  PMPE      H6S            51.9263685720      -27.9683638981        8.6420178237  MEMB      164             0.0000000000
     20444       164  PMPE      C27            52.6675677233      -29.3872583364        7.0527638247  MEMB      164             0.0000000000
     20445       164  PMPE      H7R            53.1010397542      -30.4101893405        7.0468060782  MEMB      164             0.0000000000
     20446       164  PMPE      H7S            53.4169807285      -28.8154363914        6.4647836735  MEMB      164             0.0000000000
     20447       164  PMPE      C28            51.4361829448      -29.2869556269        6.1390248166  MEMB      164             0.0000000000
     20448       164  PMPE      H8R            50.6190066171      -29.7702236777        6.7160823541  MEMB      164             0.0000000000
     20449       164  PMPE      H8S            51.6411103386      -29.7636373339        5.1566293331  MEMB      164             0.0000000000
     20450       164  PMPE      C29            51.0653027863      -27.7652918764        5.9084794206  MEMB      164             0.0000000000
     20451       164  PMPE      H9R            51.8590119230      -27.0002720011        6.0466483363  MEMB      164             0.0000000000
     20452       164  PMPE      C217           49.8747360100      -27.2831697346        6.8527816384  MEMB      164             0.0000000000
     20453       164  PMPE      H17R           49.7863432474      -26.2050006926        6.9040415575  MEMB      164             0.0000000000
     20454       164  PMPE      H17S           49.4165488680      -27.9909908583        7.5324463756  MEMB      164             0.0000000000
     20455       164  PMPE      C210           49.6554385391      -27.5154219075        5.3266068325  MEMB      164             0.0000000000
     20456       164  PMPE      H10R           49.8033925340      -26.5976128281        4.7182842354  MEMB      164             0.0000000000
     20457       164  PMPE      C211           48.6583204689      -28.6146189159        4.9008121501  MEMB      164             0.0000000000
     20458       164  PMPE      H11R           48.2400379571      -29.1756194146        5.7637372509  MEMB      164             0.0000000000
     20459       164  PMPE      H11S           49.2049218629      -29.4031393263        4.3406488184  MEMB      164             0.0000000000
     20460       164  PMPE      C212           47.5297899107      -28.1276451635        3.9537154811  MEMB      164             0.0000000000
     20461       164  PMPE      H12R           46.8515289965      -27.4582667638        4.5248692279  MEMB      164             0.0000000000
     20462       164  PMPE      H12S           46.8110001205      -28.9495113237        3.7482942059  MEMB      164             0.0000000000
     20463       164  PMPE      C213           47.8724753792      -27.4947940495        2.6190052228  MEMB      164             0.0000000000
     20464       164  PMPE      H13R           48.2446434783      -26.4554102151        2.7434756180  MEMB      164             0.0000000000
     20465       164  PMPE      H13S           46.9143102447      -27.4045427504        2.0639426511  MEMB      164             0.0000000000
     20466       164  PMPE      C214           48.8635226586      -28.3261610886        1.7435607530  MEMB      164             0.0000000000
     20467       164  PMPE      H14R           48.6725415394      -29.3864656116        2.0148565167  MEMB      164             0.0000000000
     20468       164  PMPE      H14S           49.9281475822      -28.1188501325        1.9842195410  MEMB      164             0.0000000000
     20469       164  PMPE      C215           48.6930177737      -28.1051682476        0.2541668177  MEMB      164             0.0000000000
     20470       164  PMPE      H15R           48.6581018196      -27.0127904640        0.0546349127  MEMB      164             0.0000000000
     20471       164  PMPE      H15S           47.6551617034      -28.4125593099        0.0037940720  MEMB      164             0.0000000000
     20472       164  PMPE      C216           49.6089727255      -28.9076922907       -0.6743963967  MEMB      164             0.0000000000
     20473       164  PMPE      H16R           50.6232368181      -28.4597760232       -0.6039703323  MEMB      164             0.0000000000
     20474       164  PMPE      H16S           49.6318864363      -29.9362778341       -0.2551026281  MEMB      164             0.0000000000
     20475       164  PMPE      H16T           49.2328942482      -29.0366323938       -1.7118275758  MEMB      164             0.0000000000
     20476       164  PMPE      C33            48.4453420577      -33.1158425422        9.8707813725  MEMB      164             0.0000000000
     20477       164  PMPE      H3X            49.5250528182      -33.3179541557       10.0372046950  MEMB      164             0.0000000000
     20478       164  PMPE      H3Y            48.0162798439      -32.1072118671       10.0521390606  MEMB      164             0.0000000000
     20479       164  PMPE      C34            48.0599095857      -33.5852623756        8.5058110506  MEMB      164             0.0000000000
     20480       164  PMPE      H4X            46.9832365804      -33.4081744511        8.2966797332  MEMB      164             0.0000000000
     20481       164  PMPE      H4Y            48.3635251994      -34.6524239329        8.4483260096  MEMB      164             0.0000000000
     20482       164  PMPE      C35            48.6942202989      -32.8322567563        7.2675936517  MEMB      164             0.0000000000
     20483       164  PMPE      H5X            49.7469897320      -33.1685639918        7.3811494690  MEMB      164             0.0000000000
     20484       164  PMPE      H5Y            48.7170851286      -31.7402671012        7.4709572946  MEMB      164             0.0000000000
     20485       164  PMPE      C36            48.3654463415      -33.1550451852        5.7798453703  MEMB      164             0.0000000000
     20486       164  PMPE      H6X            47.3063353039      -32.8707187518        5.6016234311  MEMB      164             0.0000000000
     20487       164  PMPE      H6Y            48.4482516623      -34.2604252499        5.7050178833  MEMB      164             0.0000000000
     20488       164  PMPE      C37            49.3293984322      -32.5357067408        4.8160788468  MEMB      164             0.0000000000
     20489       164  PMPE      H7X            50.3851482382      -32.8750453702        4.8836272967  MEMB      164             0.0000000000
     20490       164  PMPE      H7Y            49.3187715195      -31.4590052073        5.0897970501  MEMB      164             0.0000000000
     20491       164  PMPE      C38            48.7957024115      -32.6217873819        3.3645945660  MEMB      164             0.0000000000
     20492       164  PMPE      H8X            48.7277561217      -33.6509338436        2.9516032533  MEMB      164             0.0000000000
     20493       164  PMPE      H8Y            49.5781225114      -32.1244935007        2.7523538894  MEMB      164             0.0000000000
     20494       164  PMPE      C39            47.4061981682      -32.0134321188        3.1394350964  MEMB      164             0.0000000000
     20495       164  PMPE      H9X            47.5857935974      -30.9233192825        3.2565699577  MEMB      164             0.0000000000
     20496       164  PMPE      H9Y            46.6534984168      -32.4593785434        3.8241943168  MEMB      164             0.0000000000
     20497       164  PMPE      C310           47.0150336979      -32.1597189845        1.6840955018  MEMB      164             0.0000000000
     20498       164  PMPE      H10X           46.8568029200      -33.2321503735        1.4408356948  MEMB      164             0.0000000000
     20499       164  PMPE      H10Y           47.7602546977      -31.7802610252        0.9526724317  MEMB      164             0.0000000000
     20500       164  PMPE      C311           45.7759829979      -31.3749109743        1.2309156544  MEMB      164             0.0000000000
     20501       164  PMPE      H11X           45.9648482684      -30.2800836649        1.2329474327  MEMB      164             0.0000000000
     20502       164  PMPE      H11Y           44.9947940252      -31.5978958932        1.9887699570  MEMB      164             0.0000000000
     20503       164  PMPE      C312           45.3114128256      -31.6214632394       -0.2318265733  MEMB      164             0.0000000000
     20504       164  PMPE      H12X           46.0039519471      -31.2027892162       -0.9930261254  MEMB      164             0.0000000000
     20505       164  PMPE      H12Y           44.3391480248      -31.0838954833       -0.2383748935  MEMB      164             0.0000000000
     20506       164  PMPE      C313           45.0819374296      -33.1040307194       -0.5181557117  MEMB      164             0.0000000000
     20507       164  PMPE      H13X           44.6409358171      -33.5333233929        0.4068002064  MEMB      164             0.0000000000
     20508       164  PMPE      H13Y           46.0733049322      -33.5746030967       -0.6915727847  MEMB      164             0.0000000000
     20509       164  PMPE      C314           44.0685740641      -33.3008617654       -1.6812314953  MEMB      164             0.0000000000
     20510       164  PMPE      H14X           43.1191910869      -32.7343230151       -1.5715635130  MEMB      164             0.0000000000
     20511       164  PMPE      H14Y           43.7165946898      -34.3524615844       -1.7488242393  MEMB      164             0.0000000000
     20512       164  PMPE      C315           44.5682792037      -32.8603184143       -3.1140450270  MEMB      164             0.0000000000
     20513       164  PMPE      H15X           44.7247903250      -31.8142074905       -3.4538654038  MEMB      164             0.0000000000
     20514       164  PMPE      H15Y           43.6278259393      -33.0455461614       -3.6757918476  MEMB      164             0.0000000000
     20515       164  PMPE      C316           45.7189211141      -33.6554512308       -3.7115033790  MEMB      164             0.0000000000
     20516       164  PMPE      H16X           45.9159333831      -33.3807939741       -4.7698370171  MEMB      164             0.0000000000
     20517       164  PMPE      H16Y           45.5495516757      -34.7493932485       -3.6170251957  MEMB      164             0.0000000000
     20518       164  PMPE      H16Z           46.6373000577      -33.4065175512       -3.1379762096  MEMB      164             0.0000000000
     20519       165  PMPE      N             -46.7774077087       29.1432431667       21.7574783735  MEMB      165             0.0000000000
     20520       165  PMPE      HN1           -46.4820330367       28.2885898783       22.2712115510  MEMB      165             0.0000000000
     20521       165  PMPE      HN2           -46.0003769724       29.7334323302       21.3976172695  MEMB      165             0.0000000000
     20522       165  PMPE      HN3           -47.4146878632       29.6971734245       22.3646318794  MEMB      165             0.0000000000
     20523       165  PMPE      C12           -47.5107110953       28.8058913883       20.4434141288  MEMB      165             0.0000000000
     20524       165  PMPE      H12A          -48.4645041834       28.3110183482       20.7257265531  MEMB      165             0.0000000000
     20525       165  PMPE      H12B          -46.9338633394       28.0453515451       19.8749537503  MEMB      165             0.0000000000
     20526       165  PMPE      C11           -47.9261183259       30.0534160796       19.6773133956  MEMB      165             0.0000000000
     20527       165  PMPE      H11A          -46.9996592165       30.4460179487       19.2062950543  MEMB      165             0.0000000000
     20528       165  PMPE      H11B          -48.3497378633       30.7595056461       20.4231719104  MEMB      165             0.0000000000
     20529       165  PMPE      P             -49.6996401767       30.9139883027       18.0184331354  MEMB      165             0.0000000000
     20530       165  PMPE      O13           -50.8675141437       31.2583250172       18.8648016848  MEMB      165             0.0000000000
     20531       165  PMPE      O14           -50.0177629960       30.5475498930       16.6082234965  MEMB      165             0.0000000000
     20532       165  PMPE      O11           -48.6188615598       32.1583910910       17.9713990983  MEMB      165             0.0000000000
     20533       165  PMPE      O12           -48.8361215778       29.8015430358       18.6589367060  MEMB      165             0.0000000000
     20534       165  PMPE      C1            -47.6124075879       32.2425488504       16.9547779794  MEMB      165             0.0000000000
     20535       165  PMPE      HA            -47.8123066741       31.6858199353       16.0143449529  MEMB      165             0.0000000000
     20536       165  PMPE      HB            -46.6551013719       32.0177329912       17.4718305514  MEMB      165             0.0000000000
     20537       165  PMPE      C2            -47.5066150574       33.6311635385       16.3537045634  MEMB      165             0.0000000000
     20538       165  PMPE      HS            -47.2748258377       34.4031323641       17.1183345702  MEMB      165             0.0000000000
     20539       165  PMPE      O21           -48.7454843160       33.8864987651       15.6706336090  MEMB      165             0.0000000000
     20540       165  PMPE      C21           -49.4503612021       34.9866575132       15.9216140221  MEMB      165             0.0000000000
     20541       165  PMPE      O22           -49.2430437351       35.6913368555       16.8892138557  MEMB      165             0.0000000000
     20542       165  PMPE      C22           -50.6645199971       35.1923962542       14.9885845617  MEMB      165             0.0000000000
     20543       165  PMPE      H2R           -50.3262939407       35.9707309032       14.2715633984  MEMB      165             0.0000000000
     20544       165  PMPE      H2S           -51.4702354406       35.6679112691       15.5877749075  MEMB      165             0.0000000000
     20545       165  PMPE      C3            -46.2868966856       33.7779353042       15.3251649520  MEMB      165             0.0000000000
     20546       165  PMPE      HX            -45.3611013475       33.7342554986       15.9377948205  MEMB      165             0.0000000000
     20547       165  PMPE      HY            -46.3001457896       34.7321181133       14.7562356160  MEMB      165             0.0000000000
     20548       165  PMPE      O31           -46.4360233322       32.7766404318       14.2590055756  MEMB      165             0.0000000000
     20549       165  PMPE      C31           -45.3529339506       31.9807754475       14.0369952990  MEMB      165             0.0000000000
     20550       165  PMPE      O32           -44.2978652712       31.9936412252       14.6685643333  MEMB      165             0.0000000000
     20551       165  PMPE      C32           -45.8110853121       30.9333290815       13.0224449522  MEMB      165             0.0000000000
     20552       165  PMPE      H2X           -44.9578587281       30.5405460872       12.4291095439  MEMB      165             0.0000000000
     20553       165  PMPE      H2Y           -46.3138883359       31.5445074470       12.2427199552  MEMB      165             0.0000000000
     20554       165  PMPE      C23           -51.0044215788       33.9259000361       14.2041103619  MEMB      165             0.0000000000
     20555       165  PMPE      H3R           -51.3549527617       33.1401373806       14.9069800333  MEMB      165             0.0000000000
     20556       165  PMPE      H3S           -50.1031122376       33.4305773062       13.7838507553  MEMB      165             0.0000000000
     20557       165  PMPE      C24           -52.0736226533       34.0981264463       13.0704758413  MEMB      165             0.0000000000
     20558       165  PMPE      H4R           -53.0091891394       34.4569776432       13.5503317576  MEMB      165             0.0000000000
     20559       165  PMPE      H4S           -52.2355344893       33.1196317981       12.5698228223  MEMB      165             0.0000000000
     20560       165  PMPE      C25           -51.6463468858       35.1459801769       11.9488798598  MEMB      165             0.0000000000
     20561       165  PMPE      H5R           -51.6704883158       36.1534304729       12.4166213631  MEMB      165             0.0000000000
     20562       165  PMPE      H5S           -52.3294453410       35.1609766708       11.0728251036  MEMB      165             0.0000000000
     20563       165  PMPE      C26           -50.1807963943       35.0102572172       11.4605872918  MEMB      165             0.0000000000
     20564       165  PMPE      H6R           -49.5325339851       35.0050234795       12.3628342202  MEMB      165             0.0000000000
     20565       165  PMPE      H6S           -49.9730150949       35.8965342678       10.8236719711  MEMB      165             0.0000000000
     20566       165  PMPE      C27           -49.8581508765       33.7640639343       10.6257193236  MEMB      165             0.0000000000
     20567       165  PMPE      H7R           -50.7410679343       33.4872383584       10.0107833821  MEMB      165             0.0000000000
     20568       165  PMPE      H7S           -49.6452768712       32.9187099476       11.3144731166  MEMB      165             0.0000000000
     20569       165  PMPE      C28           -48.7327399681       33.8729832455        9.6325828520  MEMB      165             0.0000000000
     20570       165  PMPE      H8R           -48.9306568375       34.7468696260        8.9757163088  MEMB      165             0.0000000000
     20571       165  PMPE      H8S           -48.8060340291       32.9718949988        8.9868354357  MEMB      165             0.0000000000
     20572       165  PMPE      C29           -47.4021787305       33.8741448072       10.2662570085  MEMB      165             0.0000000000
     20573       165  PMPE      H9R           -47.2185534629       33.1157701022       11.0571239357  MEMB      165             0.0000000000
     20574       165  PMPE      C217          -46.8651425146       35.2224386282       10.7798430357  MEMB      165             0.0000000000
     20575       165  PMPE      H17R          -46.3806226781       35.1649404902       11.7467057795  MEMB      165             0.0000000000
     20576       165  PMPE      H17S          -47.6205784249       35.9646277051       10.5532132574  MEMB      165             0.0000000000
     20577       165  PMPE      C210          -46.2182512363       34.4439002853        9.6051840639  MEMB      165             0.0000000000
     20578       165  PMPE      H10R          -45.2526341773       33.9296534341        9.7987175893  MEMB      165             0.0000000000
     20579       165  PMPE      C211          -46.2691676612       35.1388891236        8.2031117495  MEMB      165             0.0000000000
     20580       165  PMPE      H11R          -45.3217378889       35.7044629114        8.0734062854  MEMB      165             0.0000000000
     20581       165  PMPE      H11S          -47.1150754202       35.8558566150        8.1344188094  MEMB      165             0.0000000000
     20582       165  PMPE      C212          -46.4533161428       34.1043125703        7.0847014693  MEMB      165             0.0000000000
     20583       165  PMPE      H12R          -47.4754576003       33.6717802459        7.1343320974  MEMB      165             0.0000000000
     20584       165  PMPE      H12S          -45.6896512452       33.3035726220        6.9849380698  MEMB      165             0.0000000000
     20585       165  PMPE      C213          -46.3703478692       34.7726951065        5.7052544760  MEMB      165             0.0000000000
     20586       165  PMPE      H13R          -45.3335569827       35.1671936515        5.6439623679  MEMB      165             0.0000000000
     20587       165  PMPE      H13S          -47.0762565777       35.6267113137        5.7869270219  MEMB      165             0.0000000000
     20588       165  PMPE      C214          -46.7805811028       33.8816631050        4.5026040382  MEMB      165             0.0000000000
     20589       165  PMPE      H14R          -47.6323124892       33.2633882643        4.8584283572  MEMB      165             0.0000000000
     20590       165  PMPE      H14S          -45.9491484527       33.1797725908        4.2781255133  MEMB      165             0.0000000000
     20591       165  PMPE      C215          -47.2438028320       34.6076533447        3.2332334869  MEMB      165             0.0000000000
     20592       165  PMPE      H15R          -46.3022392408       35.0133203741        2.8051996251  MEMB      165             0.0000000000
     20593       165  PMPE      H15S          -47.8546628506       35.4710391326        3.5734334254  MEMB      165             0.0000000000
     20594       165  PMPE      C216          -48.1539086256       33.8948206363        2.2387585250  MEMB      165             0.0000000000
     20595       165  PMPE      H16R          -47.6447623807       32.9369300255        1.9988905483  MEMB      165             0.0000000000
     20596       165  PMPE      H16S          -49.1708294579       33.6598652159        2.6195331654  MEMB      165             0.0000000000
     20597       165  PMPE      H16T          -48.1918782966       34.5113872941        1.3153264501  MEMB      165             0.0000000000
     20598       165  PMPE      C33           -46.7378858005       29.8520896778       13.5641614854  MEMB      165             0.0000000000
     20599       165  PMPE      H3X           -47.0062345765       29.8219164795       14.6418440888  MEMB      165             0.0000000000
     20600       165  PMPE      H3Y           -46.1941138960       28.9075007616       13.3487891979  MEMB      165             0.0000000000
     20601       165  PMPE      C34           -48.1262512581       30.0177064018       12.7869242262  MEMB      165             0.0000000000
     20602       165  PMPE      H4X           -48.0462239162       30.5005407542       11.7895335352  MEMB      165             0.0000000000
     20603       165  PMPE      H4Y           -48.7028758840       30.7769928729       13.3572830507  MEMB      165             0.0000000000
     20604       165  PMPE      C35           -48.8937644642       28.7271018678       12.4607197400  MEMB      165             0.0000000000
     20605       165  PMPE      H5X           -48.9419459142       28.0528935089       13.3424467311  MEMB      165             0.0000000000
     20606       165  PMPE      H5Y           -48.2932909761       28.2379155413       11.6641960722  MEMB      165             0.0000000000
     20607       165  PMPE      C36           -50.3056535365       29.0666069166       12.0170330164  MEMB      165             0.0000000000
     20608       165  PMPE      H6X           -50.9902529890       29.6430586849       12.6753247158  MEMB      165             0.0000000000
     20609       165  PMPE      H6Y           -50.7582114930       28.0657188388       11.8504933068  MEMB      165             0.0000000000
     20610       165  PMPE      C37           -50.3641493709       29.8509391555       10.6622592845  MEMB      165             0.0000000000
     20611       165  PMPE      H7X           -49.6780620148       29.5472403630        9.8428863438  MEMB      165             0.0000000000
     20612       165  PMPE      H7Y           -50.0452139692       30.9130735191       10.7291297131  MEMB      165             0.0000000000
     20613       165  PMPE      C38           -51.7921218967       29.9667624220       10.0660811045  MEMB      165             0.0000000000
     20614       165  PMPE      H8X           -52.3174313938       30.5037878035       10.8846005642  MEMB      165             0.0000000000
     20615       165  PMPE      H8Y           -52.0541247021       28.9065506652        9.8620554112  MEMB      165             0.0000000000
     20616       165  PMPE      C39           -51.9993565834       30.7569505924        8.7656474697  MEMB      165             0.0000000000
     20617       165  PMPE      H9X           -51.5465457149       31.7608624086        8.9120862234  MEMB      165             0.0000000000
     20618       165  PMPE      H9Y           -53.0990862806       30.8753554864        8.6612647722  MEMB      165             0.0000000000
     20619       165  PMPE      C310          -51.2431792509       30.1234000443        7.5148276039  MEMB      165             0.0000000000
     20620       165  PMPE      H10X          -51.5495672665       29.1423758285        7.0928809302  MEMB      165             0.0000000000
     20621       165  PMPE      H10Y          -50.1967932158       29.9160943766        7.8253459331  MEMB      165             0.0000000000
     20622       165  PMPE      C311          -51.2520276634       31.0248024985        6.1815144568  MEMB      165             0.0000000000
     20623       165  PMPE      H11X          -50.5921272276       30.6218239220        5.3837293713  MEMB      165             0.0000000000
     20624       165  PMPE      H11Y          -50.9201534379       32.0513916374        6.4466471342  MEMB      165             0.0000000000
     20625       165  PMPE      C312          -52.5939335856       31.5038379657        5.5840506231  MEMB      165             0.0000000000
     20626       165  PMPE      H12X          -53.2492607756       31.7639753863        6.4426518227  MEMB      165             0.0000000000
     20627       165  PMPE      H12Y          -53.0504146263       30.6124815348        5.1029792985  MEMB      165             0.0000000000
     20628       165  PMPE      C313          -52.3370695692       32.5994470008        4.5020596812  MEMB      165             0.0000000000
     20629       165  PMPE      H13X          -51.6836044677       33.3858208361        4.9367102668  MEMB      165             0.0000000000
     20630       165  PMPE      H13Y          -53.2976756960       33.0413967614        4.1611244040  MEMB      165             0.0000000000
     20631       165  PMPE      C314          -51.4801795689       32.2732597373        3.3275681248  MEMB      165             0.0000000000
     20632       165  PMPE      H14X          -50.4153943087       32.1658833930        3.6259369552  MEMB      165             0.0000000000
     20633       165  PMPE      H14Y          -51.4676959038       33.1581393823        2.6558896280  MEMB      165             0.0000000000
     20634       165  PMPE      C315          -51.8810270258       31.0219353404        2.4103332552  MEMB      165             0.0000000000
     20635       165  PMPE      H15X          -51.7135914142       30.0524395729        2.9264388989  MEMB      165             0.0000000000
     20636       165  PMPE      H15Y          -51.3299217442       31.0596965912        1.4463945042  MEMB      165             0.0000000000
     20637       165  PMPE      C316          -53.3018873989       31.2097726717        1.9932220357  MEMB      165             0.0000000000
     20638       165  PMPE      H16X          -53.9554490161       31.4056734788        2.8700350310  MEMB      165             0.0000000000
     20639       165  PMPE      H16Y          -53.6008907435       30.3370330583        1.3741549849  MEMB      165             0.0000000000
     20640       165  PMPE      H16Z          -53.3640068345       32.1243634683        1.3655406123  MEMB      165             0.0000000000
     20641       166  PMPE      N              37.4985781806       46.7307403993       19.3110558609  MEMB      166             0.0000000000
     20642       166  PMPE      HN1            36.4747173705       46.9075493349       19.3563092696  MEMB      166             0.0000000000
     20643       166  PMPE      HN2            37.8384080362       46.1177692680       20.0794191493  MEMB      166             0.0000000000
     20644       166  PMPE      HN3            37.9620338339       47.6579673661       19.3950719055  MEMB      166             0.0000000000
     20645       166  PMPE      C12            37.7436562219       46.2020242662       17.9039059506  MEMB      166             0.0000000000
     20646       166  PMPE      H12A           38.8456456491       46.0876734051       17.8210554722  MEMB      166             0.0000000000
     20647       166  PMPE      H12B           37.4295798541       47.0352054067       17.2394616799  MEMB      166             0.0000000000
     20648       166  PMPE      C11            37.0689343275       44.8738304959       17.4394890334  MEMB      166             0.0000000000
     20649       166  PMPE      H11A           37.3457285587       44.6355154255       16.3902455244  MEMB      166             0.0000000000
     20650       166  PMPE      H11B           35.9704695585       45.0402297827       17.4367439497  MEMB      166             0.0000000000
     20651       166  PMPE      P              36.6781210382       43.1918608195       19.5349425386  MEMB      166             0.0000000000
     20652       166  PMPE      O13            36.6494747324       44.3447892445       20.4119380803  MEMB      166             0.0000000000
     20653       166  PMPE      O14            37.4239882699       41.9762806283       20.0454630673  MEMB      166             0.0000000000
     20654       166  PMPE      O11            35.1905754013       42.8309783188       19.0412372821  MEMB      166             0.0000000000
     20655       166  PMPE      O12            37.5207726247       43.7250342261       18.3119681612  MEMB      166             0.0000000000
     20656       166  PMPE      C1             34.8512683368       41.5361858382       18.6513679994  MEMB      166             0.0000000000
     20657       166  PMPE      HA             33.8671839166       41.1900872553       19.0336173870  MEMB      166             0.0000000000
     20658       166  PMPE      HB             35.5927454857       40.7556251533       18.9256991537  MEMB      166             0.0000000000
     20659       166  PMPE      C2             34.5331625198       41.3950642222       17.1492899754  MEMB      166             0.0000000000
     20660       166  PMPE      HS             34.1581640621       40.3600624655       16.9993966301  MEMB      166             0.0000000000
     20661       166  PMPE      O21            35.6764588390       41.5710040833       16.3137236569  MEMB      166             0.0000000000
     20662       166  PMPE      C21            36.4668797789       40.4818262179       16.2056592753  MEMB      166             0.0000000000
     20663       166  PMPE      O22            36.1693297109       39.3485642966       16.5892025162  MEMB      166             0.0000000000
     20664       166  PMPE      C22            37.7851006028       40.8574587605       15.6465159334  MEMB      166             0.0000000000
     20665       166  PMPE      H2R            38.6014059484       40.2321289929       16.0671451783  MEMB      166             0.0000000000
     20666       166  PMPE      H2S            38.0570272746       41.9094682144       15.8781473190  MEMB      166             0.0000000000
     20667       166  PMPE      C3             33.4703988733       42.4305264428       16.7545075862  MEMB      166             0.0000000000
     20668       166  PMPE      HX             33.8026902601       43.4480777573       17.0519845163  MEMB      166             0.0000000000
     20669       166  PMPE      HY             32.5854752018       42.3023671915       17.4139060909  MEMB      166             0.0000000000
     20670       166  PMPE      O31            33.0018032862       42.2884560844       15.4518912446  MEMB      166             0.0000000000
     20671       166  PMPE      C31            32.5374780555       43.4097481205       14.8524979502  MEMB      166             0.0000000000
     20672       166  PMPE      O32            32.5876217780       44.5304983744       15.3324872360  MEMB      166             0.0000000000
     20673       166  PMPE      C32            31.8832287053       43.0882983473       13.5068869020  MEMB      166             0.0000000000
     20674       166  PMPE      H2X            31.1837502011       42.2251386429       13.5043542209  MEMB      166             0.0000000000
     20675       166  PMPE      H2Y            32.7714738317       42.7607207248       12.9254799647  MEMB      166             0.0000000000
     20676       166  PMPE      C23            37.9224769351       40.5068265148       14.1546270123  MEMB      166             0.0000000000
     20677       166  PMPE      H3R            37.5653058055       39.4629956434       14.0236041045  MEMB      166             0.0000000000
     20678       166  PMPE      H3S            39.0157480596       40.3677767316       14.0141114461  MEMB      166             0.0000000000
     20679       166  PMPE      C24            37.3257464885       41.4952772141       13.1378721341  MEMB      166             0.0000000000
     20680       166  PMPE      H4R            36.2418717365       41.2517823390       13.1535842761  MEMB      166             0.0000000000
     20681       166  PMPE      H4S            37.6332159964       41.1660372708       12.1223012140  MEMB      166             0.0000000000
     20682       166  PMPE      C25            37.6212830163       42.9619012881       13.3370191019  MEMB      166             0.0000000000
     20683       166  PMPE      H5R            38.5236891813       43.2927464553       13.8942674263  MEMB      166             0.0000000000
     20684       166  PMPE      H5S            36.8071389361       43.2947493064       14.0157699035  MEMB      166             0.0000000000
     20685       166  PMPE      C26            37.4879657922       43.9102094505       12.0736874104  MEMB      166             0.0000000000
     20686       166  PMPE      H6R            37.9267584075       44.9028162416       12.3114138488  MEMB      166             0.0000000000
     20687       166  PMPE      H6S            36.4178377008       44.1189873329       11.8602422371  MEMB      166             0.0000000000
     20688       166  PMPE      C27            38.0496523695       43.3378697253       10.7451806202  MEMB      166             0.0000000000
     20689       166  PMPE      H7R            37.2889389953       42.6626636418       10.2982657030  MEMB      166             0.0000000000
     20690       166  PMPE      H7S            38.8864147184       42.6842511247       11.0721860095  MEMB      166             0.0000000000
     20691       166  PMPE      C28            38.5297057352       44.3433691786        9.6856012947  MEMB      166             0.0000000000
     20692       166  PMPE      H8R            37.6724527897       45.0485577684        9.6392571480  MEMB      166             0.0000000000
     20693       166  PMPE      H8S            38.5400809566       43.8833194843        8.6743801962  MEMB      166             0.0000000000
     20694       166  PMPE      C29            39.7806644651       45.1260216735       10.1039886037  MEMB      166             0.0000000000
     20695       166  PMPE      H9R            40.5755505968       44.5856060439       10.6611495810  MEMB      166             0.0000000000
     20696       166  PMPE      C217           39.5523687655       46.4694737244       10.6780815637  MEMB      166             0.0000000000
     20697       166  PMPE      H17R           40.2261384656       46.7374333921       11.4825195659  MEMB      166             0.0000000000
     20698       166  PMPE      H17S           38.5762200843       46.9257471275       10.5692824294  MEMB      166             0.0000000000
     20699       166  PMPE      C210           40.2943384467       46.3881450051        9.3322810497  MEMB      166             0.0000000000
     20700       166  PMPE      H10R           41.3950433790       46.4554042212        9.4673591417  MEMB      166             0.0000000000
     20701       166  PMPE      C211           39.3929213115       47.0904454474        8.2684582400  MEMB      166             0.0000000000
     20702       166  PMPE      H11R           39.1441731050       48.1504617561        8.4893893055  MEMB      166             0.0000000000
     20703       166  PMPE      H11S           38.3960310053       46.6010501347        8.2364714200  MEMB      166             0.0000000000
     20704       166  PMPE      C212           40.1557882121       47.0875251648        6.9367300838  MEMB      166             0.0000000000
     20705       166  PMPE      H12R           40.4687830998       46.0355331336        6.7644864412  MEMB      166             0.0000000000
     20706       166  PMPE      H12S           41.0080359543       47.7605646547        7.1712788832  MEMB      166             0.0000000000
     20707       166  PMPE      C213           39.2784552112       47.6869707878        5.8600091882  MEMB      166             0.0000000000
     20708       166  PMPE      H13R           39.3112340228       48.7875166796        6.0084854048  MEMB      166             0.0000000000
     20709       166  PMPE      H13S           38.1985592321       47.4393913151        5.9427758310  MEMB      166             0.0000000000
     20710       166  PMPE      C214           39.6875291091       47.3712196471        4.4331981144  MEMB      166             0.0000000000
     20711       166  PMPE      H14R           39.9886184549       46.3024332299        4.3962999368  MEMB      166             0.0000000000
     20712       166  PMPE      H14S           40.5001307049       48.0375848798        4.0727020673  MEMB      166             0.0000000000
     20713       166  PMPE      C215           38.4990944667       47.3162159622        3.4825363501  MEMB      166             0.0000000000
     20714       166  PMPE      H15R           37.9582679108       48.2732541480        3.6434882551  MEMB      166             0.0000000000
     20715       166  PMPE      H15S           37.9177730486       46.3811504033        3.6309910606  MEMB      166             0.0000000000
     20716       166  PMPE      C216           38.7899109578       47.2490136878        1.9056890607  MEMB      166             0.0000000000
     20717       166  PMPE      H16R           39.3537840537       48.1727582277        1.6545622113  MEMB      166             0.0000000000
     20718       166  PMPE      H16S           39.3207987528       46.2944780608        1.7023639339  MEMB      166             0.0000000000
     20719       166  PMPE      H16T           37.8101249481       47.2560229573        1.3819606015  MEMB      166             0.0000000000
     20720       166  PMPE      C33            31.1924438788       44.3078868759       12.9006773571  MEMB      166             0.0000000000
     20721       166  PMPE      H3X            31.7903171513       45.2175132182       13.1230466969  MEMB      166             0.0000000000
     20722       166  PMPE      H3Y            30.1429336346       44.5726417695       13.1511852236  MEMB      166             0.0000000000
     20723       166  PMPE      C34            31.0213733593       44.2865749253       11.3466666552  MEMB      166             0.0000000000
     20724       166  PMPE      H4X            30.2529369174       45.0351359642       11.0577316405  MEMB      166             0.0000000000
     20725       166  PMPE      H4Y            30.6804242395       43.3159043259       10.9272936161  MEMB      166             0.0000000000
     20726       166  PMPE      C35            32.2533755051       44.6857638538       10.5261251847  MEMB      166             0.0000000000
     20727       166  PMPE      H5X            33.1541142885       44.0797676115       10.7622589664  MEMB      166             0.0000000000
     20728       166  PMPE      H5Y            32.6258343801       45.6572365480       10.9157872750  MEMB      166             0.0000000000
     20729       166  PMPE      C36            32.0750425258       44.9413339244        8.9519799606  MEMB      166             0.0000000000
     20730       166  PMPE      H6X            32.8446913828       45.7107039874        8.7283035154  MEMB      166             0.0000000000
     20731       166  PMPE      H6Y            31.0748415294       45.3161309348        8.6462914627  MEMB      166             0.0000000000
     20732       166  PMPE      C37            32.0964207865       43.6560484468        8.0888717841  MEMB      166             0.0000000000
     20733       166  PMPE      H7X            31.8578744480       43.8187535955        7.0160520502  MEMB      166             0.0000000000
     20734       166  PMPE      H7Y            31.4366416716       42.8999460100        8.5656540568  MEMB      166             0.0000000000
     20735       166  PMPE      C38            33.4414434047       42.9191184759        8.3256583616  MEMB      166             0.0000000000
     20736       166  PMPE      H8X            33.3311726349       41.9275021810        7.8369262394  MEMB      166             0.0000000000
     20737       166  PMPE      H8Y            33.6845487498       42.5867688887        9.3575325282  MEMB      166             0.0000000000
     20738       166  PMPE      C39            34.6543116326       43.6148569921        7.7011842156  MEMB      166             0.0000000000
     20739       166  PMPE      H9X            35.2406310100       44.2697528983        8.3806406708  MEMB      166             0.0000000000
     20740       166  PMPE      H9Y            34.4111733153       44.3467522218        6.9014752298  MEMB      166             0.0000000000
     20741       166  PMPE      C310           35.7479327122       42.5446945931        7.2083880672  MEMB      166             0.0000000000
     20742       166  PMPE      H10X           35.6002228462       41.7848866159        8.0053791800  MEMB      166             0.0000000000
     20743       166  PMPE      H10Y           36.7946960786       42.9006757701        7.3174072399  MEMB      166             0.0000000000
     20744       166  PMPE      C311           35.4562704612       42.0458590191        5.8118322925  MEMB      166             0.0000000000
     20745       166  PMPE      H11X           34.3932243891       41.7230445597        5.8051154504  MEMB      166             0.0000000000
     20746       166  PMPE      H11Y           36.0907906991       41.1649554942        5.5757943018  MEMB      166             0.0000000000
     20747       166  PMPE      C312           35.8372935545       43.2171704082        4.8634661838  MEMB      166             0.0000000000
     20748       166  PMPE      H12X           36.8459868496       43.5742868162        5.1623415095  MEMB      166             0.0000000000
     20749       166  PMPE      H12Y           35.0345684225       43.9851013347        4.8788122596  MEMB      166             0.0000000000
     20750       166  PMPE      C313           36.0689851059       42.8372163324        3.3507453344  MEMB      166             0.0000000000
     20751       166  PMPE      H13X           36.9915835268       42.2194932108        3.3901274479  MEMB      166             0.0000000000
     20752       166  PMPE      H13Y           36.1524122296       43.7661161448        2.7470016044  MEMB      166             0.0000000000
     20753       166  PMPE      C314           34.8584980344       42.1338773607        2.7519203811  MEMB      166             0.0000000000
     20754       166  PMPE      H14X           33.9654265883       42.7931028969        2.7984566703  MEMB      166             0.0000000000
     20755       166  PMPE      H14Y           34.6469233865       41.2362267441        3.3714210228  MEMB      166             0.0000000000
     20756       166  PMPE      C315           35.1636049306       41.6006428548        1.3548211288  MEMB      166             0.0000000000
     20757       166  PMPE      H15X           36.0850355779       40.9844094741        1.4292695058  MEMB      166             0.0000000000
     20758       166  PMPE      H15Y           35.4628422701       42.4072325673        0.6518337633  MEMB      166             0.0000000000
     20759       166  PMPE      C316           34.0767815875       40.6629630338        0.8807707087  MEMB      166             0.0000000000
     20760       166  PMPE      H16X           33.0861030633       41.1522724577        0.7647806185  MEMB      166             0.0000000000
     20761       166  PMPE      H16Y           33.9872662977       39.8655110912        1.6491308580  MEMB      166             0.0000000000
     20762       166  PMPE      H16Z           34.3408016019       40.1572494761       -0.0725751803  MEMB      166             0.0000000000
     20763       167  PMPE      N             -58.2118166447       15.3876530148       17.1253632745  MEMB      167             0.0000000000
     20764       167  PMPE      HN1           -58.9647624089       14.8763603781       16.6221214841  MEMB      167             0.0000000000
     20765       167  PMPE      HN2           -58.5322576676       16.3769918187       17.1141300721  MEMB      167             0.0000000000
     20766       167  PMPE      HN3           -57.3391270713       15.2552272214       16.5753848650  MEMB      167             0.0000000000
     20767       167  PMPE      C12           -58.1178341512       14.5805149020       18.4179185439  MEMB      167             0.0000000000
     20768       167  PMPE      H12A          -57.8458696259       13.5482690942       18.1099820764  MEMB      167             0.0000000000
     20769       167  PMPE      H12B          -59.1681239671       14.6147821102       18.7785262182  MEMB      167             0.0000000000
     20770       167  PMPE      C11           -57.3233842166       15.2272182008       19.5029593393  MEMB      167             0.0000000000
     20771       167  PMPE      H11A          -57.3091927148       14.4696614785       20.3155031123  MEMB      167             0.0000000000
     20772       167  PMPE      H11B          -57.8599000504       16.1513027024       19.8071621955  MEMB      167             0.0000000000
     20773       167  PMPE      P             -54.6222000972       14.9110734063       19.4535281573  MEMB      167             0.0000000000
     20774       167  PMPE      O13           -54.8597182874       13.5199208013       19.7786666054  MEMB      167             0.0000000000
     20775       167  PMPE      O14           -54.0489744056       15.7744680136       20.5145114276  MEMB      167             0.0000000000
     20776       167  PMPE      O11           -53.7004456761       14.9816155892       18.1328974802  MEMB      167             0.0000000000
     20777       167  PMPE      O12           -56.0239537201       15.5858248731       19.0741551709  MEMB      167             0.0000000000
     20778       167  PMPE      C1            -54.0527183456       15.8949777462       17.0951011193  MEMB      167             0.0000000000
     20779       167  PMPE      HA            -53.6995859748       16.9204050512       17.3361763594  MEMB      167             0.0000000000
     20780       167  PMPE      HB            -55.1424868117       15.9921201655       16.9019972430  MEMB      167             0.0000000000
     20781       167  PMPE      C2            -53.6106951403       15.4914939187       15.7376115955  MEMB      167             0.0000000000
     20782       167  PMPE      HS            -52.5403249652       15.1937912838       15.7389648281  MEMB      167             0.0000000000
     20783       167  PMPE      O21           -53.7687087477       16.5511743999       14.7335609646  MEMB      167             0.0000000000
     20784       167  PMPE      C21           -52.8856465209       17.5937905464       14.8911268795  MEMB      167             0.0000000000
     20785       167  PMPE      O22           -51.9149943279       17.5476358933       15.6154607235  MEMB      167             0.0000000000
     20786       167  PMPE      C22           -53.3263936563       18.7080511455       13.9538013562  MEMB      167             0.0000000000
     20787       167  PMPE      H2R           -52.4305183423       19.1550820511       13.4722501489  MEMB      167             0.0000000000
     20788       167  PMPE      H2S           -53.6710109590       19.6056850954       14.5104099505  MEMB      167             0.0000000000
     20789       167  PMPE      C3            -54.4011652075       14.1945763533       15.3689791259  MEMB      167             0.0000000000
     20790       167  PMPE      HX            -55.4739997429       14.4292181963       15.2007817099  MEMB      167             0.0000000000
     20791       167  PMPE      HY            -54.1262109471       13.5075946577       16.1976992477  MEMB      167             0.0000000000
     20792       167  PMPE      O31           -53.8724477386       13.7212095769       14.0862284146  MEMB      167             0.0000000000
     20793       167  PMPE      C31           -54.5440507605       12.6230899026       13.6206917520  MEMB      167             0.0000000000
     20794       167  PMPE      O32           -55.3103758879       11.9393026912       14.3059088012  MEMB      167             0.0000000000
     20795       167  PMPE      C32           -54.2443293552       12.5380270364       12.1059186907  MEMB      167             0.0000000000
     20796       167  PMPE      H2X           -53.1499709457       12.5345935816       11.9143754641  MEMB      167             0.0000000000
     20797       167  PMPE      H2Y           -54.6830249371       13.4375731700       11.6235456973  MEMB      167             0.0000000000
     20798       167  PMPE      C23           -54.3943067610       18.3933697565       12.9027173998  MEMB      167             0.0000000000
     20799       167  PMPE      H3R           -54.2731628689       17.4136742589       12.3929708777  MEMB      167             0.0000000000
     20800       167  PMPE      H3S           -54.3311915604       19.2659105516       12.2178745924  MEMB      167             0.0000000000
     20801       167  PMPE      C24           -55.8701003258       18.4193068952       13.4203926568  MEMB      167             0.0000000000
     20802       167  PMPE      H4R           -56.1774707961       19.4657660657       13.6319751285  MEMB      167             0.0000000000
     20803       167  PMPE      H4S           -55.8419800572       17.8658448577       14.3833098841  MEMB      167             0.0000000000
     20804       167  PMPE      C25           -56.9176693775       17.7661580520       12.4691500982  MEMB      167             0.0000000000
     20805       167  PMPE      H5R           -56.7919053431       18.3579563284       11.5373351146  MEMB      167             0.0000000000
     20806       167  PMPE      H5S           -57.9272654212       17.9106032579       12.9097999113  MEMB      167             0.0000000000
     20807       167  PMPE      C26           -56.8609043508       16.3286256986       12.1354833800  MEMB      167             0.0000000000
     20808       167  PMPE      H6R           -56.9055953724       15.7075946038       13.0556156324  MEMB      167             0.0000000000
     20809       167  PMPE      H6S           -55.9641092957       15.9869371860       11.5757256304  MEMB      167             0.0000000000
     20810       167  PMPE      C27           -57.9172320533       15.8807606251       11.0580240606  MEMB      167             0.0000000000
     20811       167  PMPE      H7R           -58.9526199204       16.1302197950       11.3743518773  MEMB      167             0.0000000000
     20812       167  PMPE      H7S           -57.8741842762       14.7752573203       10.9563864033  MEMB      167             0.0000000000
     20813       167  PMPE      C28           -57.8865569829       16.4362042064        9.6417145663  MEMB      167             0.0000000000
     20814       167  PMPE      H8R           -57.9690635495       17.5436321837        9.6082906087  MEMB      167             0.0000000000
     20815       167  PMPE      H8S           -58.6948399946       15.9249337619        9.0763814327  MEMB      167             0.0000000000
     20816       167  PMPE      C29           -56.5581662455       15.9927738979        9.0437649589  MEMB      167             0.0000000000
     20817       167  PMPE      H9R           -56.2184188199       14.9453982397        9.1917407272  MEMB      167             0.0000000000
     20818       167  PMPE      C217          -55.4422583779       16.9433532193        9.0336515576  MEMB      167             0.0000000000
     20819       167  PMPE      H17R          -54.4763546524       16.5547561499        9.3318314867  MEMB      167             0.0000000000
     20820       167  PMPE      H17S          -55.8236729429       17.7922886533        9.5874751660  MEMB      167             0.0000000000
     20821       167  PMPE      C210          -56.0174454423       16.4762794363        7.6773980469  MEMB      167             0.0000000000
     20822       167  PMPE      H10R          -55.3360719941       15.7339106191        7.2094879017  MEMB      167             0.0000000000
     20823       167  PMPE      C211          -56.8635019235       17.4619026406        6.8503057451  MEMB      167             0.0000000000
     20824       167  PMPE      H11R          -56.1256779798       17.9727839370        6.1953732091  MEMB      167             0.0000000000
     20825       167  PMPE      H11S          -57.2425760411       18.2892126488        7.4876301256  MEMB      167             0.0000000000
     20826       167  PMPE      C212          -57.8264389712       16.8738888376        5.8677113257  MEMB      167             0.0000000000
     20827       167  PMPE      H12R          -58.5590654721       16.3468149087        6.5156091682  MEMB      167             0.0000000000
     20828       167  PMPE      H12S          -57.3061714803       16.0675702492        5.3078065385  MEMB      167             0.0000000000
     20829       167  PMPE      C213          -58.6383941085       17.8978136792        5.0673617263  MEMB      167             0.0000000000
     20830       167  PMPE      H13R          -57.8589042814       18.2254051479        4.3466668555  MEMB      167             0.0000000000
     20831       167  PMPE      H13S          -58.9225661108       18.7088076404        5.7715323465  MEMB      167             0.0000000000
     20832       167  PMPE      C214          -59.8427110316       17.3847374496        4.2717178211  MEMB      167             0.0000000000
     20833       167  PMPE      H14R          -60.5053499437       18.1932132542        3.8954221597  MEMB      167             0.0000000000
     20834       167  PMPE      H14S          -60.4024673796       16.7566903219        4.9973557727  MEMB      167             0.0000000000
     20835       167  PMPE      C215          -59.3569031086       16.5763386451        3.0573185449  MEMB      167             0.0000000000
     20836       167  PMPE      H15R          -58.7540946227       15.7275400862        3.4452410955  MEMB      167             0.0000000000
     20837       167  PMPE      H15S          -58.7788977550       17.3137630447        2.4602956331  MEMB      167             0.0000000000
     20838       167  PMPE      C216          -60.4046078322       15.9154195344        2.2384492974  MEMB      167             0.0000000000
     20839       167  PMPE      H16R          -60.0587152955       15.5458065980        1.2494773410  MEMB      167             0.0000000000
     20840       167  PMPE      H16S          -60.7832774549       14.9964948154        2.7349459868  MEMB      167             0.0000000000
     20841       167  PMPE      H16T          -61.2917599277       16.5487254344        2.0234938835  MEMB      167             0.0000000000
     20842       167  PMPE      C33           -54.9081304801       11.2521413538       11.5567066016  MEMB      167             0.0000000000
     20843       167  PMPE      H3X           -55.9953947412       11.4471018525       11.6757343644  MEMB      167             0.0000000000
     20844       167  PMPE      H3Y           -54.6879992806       10.2998419403       12.0849004715  MEMB      167             0.0000000000
     20845       167  PMPE      C34           -54.6519626769       11.0114820768       10.0570502281  MEMB      167             0.0000000000
     20846       167  PMPE      H4X           -55.1597937905       10.0406070035        9.8731207374  MEMB      167             0.0000000000
     20847       167  PMPE      H4Y           -53.5416389547       11.0496028981       10.0500510322  MEMB      167             0.0000000000
     20848       167  PMPE      C35           -55.0916177049       12.2576371001        9.2903439260  MEMB      167             0.0000000000
     20849       167  PMPE      H5X           -54.3237046857       13.0445808235        9.4495612322  MEMB      167             0.0000000000
     20850       167  PMPE      H5Y           -56.1102139713       12.6478265989        9.5013759449  MEMB      167             0.0000000000
     20851       167  PMPE      C36           -55.0908692001       12.1234032234        7.7762701289  MEMB      167             0.0000000000
     20852       167  PMPE      H6X           -55.3993196214       13.0793869987        7.3016389295  MEMB      167             0.0000000000
     20853       167  PMPE      H6Y           -55.9807118149       11.4897804072        7.5737276992  MEMB      167             0.0000000000
     20854       167  PMPE      C37           -53.7248238137       11.6995158514        7.1691288745  MEMB      167             0.0000000000
     20855       167  PMPE      H7X           -53.6478032262       10.6640662013        6.7738661976  MEMB      167             0.0000000000
     20856       167  PMPE      H7Y           -52.8673366108       11.6946820426        7.8755381415  MEMB      167             0.0000000000
     20857       167  PMPE      C38           -53.3112278255       12.5836575755        5.9102106277  MEMB      167             0.0000000000
     20858       167  PMPE      H8X           -52.2539021054       12.3990568390        5.6233197510  MEMB      167             0.0000000000
     20859       167  PMPE      H8Y           -53.3509467062       13.6032700989        6.3496802413  MEMB      167             0.0000000000
     20860       167  PMPE      C39           -54.3291003511       12.3544668934        4.7498966278  MEMB      167             0.0000000000
     20861       167  PMPE      H9X           -55.3484534520       12.5649644452        5.1383949259  MEMB      167             0.0000000000
     20862       167  PMPE      H9Y           -54.3993006044       11.3105933419        4.3761038570  MEMB      167             0.0000000000
     20863       167  PMPE      C310          -54.0088768090       13.3821221646        3.6492072613  MEMB      167             0.0000000000
     20864       167  PMPE      H10X          -52.9491745804       13.3131815636        3.3227110418  MEMB      167             0.0000000000
     20865       167  PMPE      H10Y          -54.0450347837       14.4002734238        4.0923572566  MEMB      167             0.0000000000
     20866       167  PMPE      C311          -54.8701148308       13.0665796362        2.4482393960  MEMB      167             0.0000000000
     20867       167  PMPE      H11X          -55.6979625311       12.3604557788        2.6726908030  MEMB      167             0.0000000000
     20868       167  PMPE      H11Y          -54.3131143680       12.8065111788        1.5228025689  MEMB      167             0.0000000000
     20869       167  PMPE      C312          -55.5479506778       14.4169132733        2.0022729444  MEMB      167             0.0000000000
     20870       167  PMPE      H12X          -54.7719877963       15.1123416574        1.6168095165  MEMB      167             0.0000000000
     20871       167  PMPE      H12Y          -56.0182787593       14.8967700436        2.8870620369  MEMB      167             0.0000000000
     20872       167  PMPE      C313          -56.6858796046       14.1309182262        1.0252728490  MEMB      167             0.0000000000
     20873       167  PMPE      H13X          -57.3146327277       15.0468528428        1.0179077875  MEMB      167             0.0000000000
     20874       167  PMPE      H13Y          -57.2357670653       13.2232486014        1.3540297959  MEMB      167             0.0000000000
     20875       167  PMPE      C314          -56.2530230364       13.7219859525       -0.4305703138  MEMB      167             0.0000000000
     20876       167  PMPE      H14X          -57.0912158750       13.2909799480       -1.0187781194  MEMB      167             0.0000000000
     20877       167  PMPE      H14Y          -55.4812118246       12.9367272529       -0.2822554027  MEMB      167             0.0000000000
     20878       167  PMPE      C315          -55.7820011576       14.9158771068       -1.2238692415  MEMB      167             0.0000000000
     20879       167  PMPE      H15X          -54.9082680214       15.2353608788       -0.6165454433  MEMB      167             0.0000000000
     20880       167  PMPE      H15Y          -56.5946166895       15.6710491810       -1.2846317771  MEMB      167             0.0000000000
     20881       167  PMPE      C316          -55.2101728186       14.7573385591       -2.6094800729  MEMB      167             0.0000000000
     20882       167  PMPE      H16X          -54.8452833158       15.6816273945       -3.1063369400  MEMB      167             0.0000000000
     20883       167  PMPE      H16Y          -55.9307215907       14.2167610758       -3.2597930162  MEMB      167             0.0000000000
     20884       167  PMPE      H16Z          -54.3147796499       14.1058406873       -2.5192439554  MEMB      167             0.0000000000
     20885       168  PMPG      C13           -54.4234208452      -24.4284172675       21.0875803614  MEMB      168             0.0000000000
     20886       168  PMPG      H13A          -55.3641162208      -24.7563960180       21.5793559518  MEMB      168             0.0000000000
     20887       168  PMPG      H13B          -54.0582802409      -25.2244701397       20.4039920525  MEMB      168             0.0000000000
     20888       168  PMPG      OC3           -53.3683351958      -24.2631379082       22.0795683177  MEMB      168             0.0000000000
     20889       168  PMPG      HO3           -52.5393680195      -24.5708988052       21.7058081842  MEMB      168             0.0000000000
     20890       168  PMPG      C12           -54.7958739992      -23.0408336127       20.3040854510  MEMB      168             0.0000000000
     20891       168  PMPG      H12A          -55.2061070713      -22.3328845014       21.0612485261  MEMB      168             0.0000000000
     20892       168  PMPG      OC2           -55.8127627438      -23.2830854085       19.3307960601  MEMB      168             0.0000000000
     20893       168  PMPG      HO2           -55.8562022916      -22.4331783446       18.8404004763  MEMB      168             0.0000000000
     20894       168  PMPG      C11           -53.5719165773      -22.4046771921       19.6643199829  MEMB      168             0.0000000000
     20895       168  PMPG      H11A          -52.7274275312      -22.4903942677       20.3811267035  MEMB      168             0.0000000000
     20896       168  PMPG      H11B          -53.7613467047      -21.3382745065       19.4168881562  MEMB      168             0.0000000000
     20897       168  PMPG      P             -52.2779260477      -22.6210808780       17.5065347044  MEMB      168             0.0000000000
     20898       168  PMPG      O13           -50.9275963919      -22.5802533023       18.1718300683  MEMB      168             0.0000000000
     20899       168  PMPG      O14           -52.8110216761      -21.3302512541       16.9182955615  MEMB      168             0.0000000000
     20900       168  PMPG      O11           -52.2480386652      -23.7750239387       16.4178868561  MEMB      168             0.0000000000
     20901       168  PMPG      O12           -53.3160588555      -23.2002582407       18.5191026367  MEMB      168             0.0000000000
     20902       168  PMPG      C1            -51.0178368615      -23.8423991756       15.6470824113  MEMB      168             0.0000000000
     20903       168  PMPG      HA            -51.0625506060      -24.8033092294       15.0912285255  MEMB      168             0.0000000000
     20904       168  PMPG      HB            -50.1884880215      -23.9852455903       16.3724075491  MEMB      168             0.0000000000
     20905       168  PMPG      C2            -50.8108388561      -22.6735235915       14.6577250346  MEMB      168             0.0000000000
     20906       168  PMPG      HS            -50.6742967705      -21.6732835166       15.1216182433  MEMB      168             0.0000000000
     20907       168  PMPG      O21           -51.9354664414      -22.6638990831       13.7954518924  MEMB      168             0.0000000000
     20908       168  PMPG      C21           -52.1951687614      -21.5857851240       13.1111418074  MEMB      168             0.0000000000
     20909       168  PMPG      O22           -51.6240210510      -20.5348708077       13.2125867508  MEMB      168             0.0000000000
     20910       168  PMPG      C22           -53.0989573973      -21.9172420120       12.0316052507  MEMB      168             0.0000000000
     20911       168  PMPG      H2R           -54.0809883311      -22.2594570460       12.4225335073  MEMB      168             0.0000000000
     20912       168  PMPG      H2S           -52.6232375486      -22.7391642586       11.4550154841  MEMB      168             0.0000000000
     20913       168  PMPG      C3            -49.4677416137      -22.8226888398       13.9214516642  MEMB      168             0.0000000000
     20914       168  PMPG      HX            -48.5922003565      -22.7544090506       14.6019562276  MEMB      168             0.0000000000
     20915       168  PMPG      HY            -49.3505951822      -21.9817903712       13.2048714510  MEMB      168             0.0000000000
     20916       168  PMPG      O31           -49.4716589486      -24.0454901850       13.2657527405  MEMB      168             0.0000000000
     20917       168  PMPG      C31           -49.5908126506      -24.0297991913       11.9817541818  MEMB      168             0.0000000000
     20918       168  PMPG      O32           -49.5583601172      -23.1404255877       11.2234094434  MEMB      168             0.0000000000
     20919       168  PMPG      C32           -49.6689295888      -25.4989087758       11.5840487424  MEMB      168             0.0000000000
     20920       168  PMPG      H2X           -49.0241227411      -26.1745536969       12.1857531831  MEMB      168             0.0000000000
     20921       168  PMPG      H2Y           -49.2747500425      -25.6641382717       10.5585522494  MEMB      168             0.0000000000
     20922       168  PMPG      C23           -53.4746351206      -20.7498609263       11.0695974665  MEMB      168             0.0000000000
     20923       168  PMPG      H3R           -52.6601939548      -20.3496467677       10.4286328792  MEMB      168             0.0000000000
     20924       168  PMPG      H3S           -53.6397872352      -19.8538006341       11.7053029830  MEMB      168             0.0000000000
     20925       168  PMPG      C24           -54.7395470562      -21.0050048789       10.2833057550  MEMB      168             0.0000000000
     20926       168  PMPG      H4R           -55.4249498341      -21.5922815428       10.9311102022  MEMB      168             0.0000000000
     20927       168  PMPG      H4S           -54.5654398149      -21.6330156336        9.3835227737  MEMB      168             0.0000000000
     20928       168  PMPG      C25           -55.4803231418      -19.6726675209        9.9074684120  MEMB      168             0.0000000000
     20929       168  PMPG      H5R           -55.7246111639      -19.3056369655       10.9272393918  MEMB      168             0.0000000000
     20930       168  PMPG      H5S           -56.4086270970      -19.8471664216        9.3225559745  MEMB      168             0.0000000000
     20931       168  PMPG      C26           -54.6419840865      -18.5404577676        9.3252413971  MEMB      168             0.0000000000
     20932       168  PMPG      H6R           -53.7925681595      -18.2496067792        9.9796259005  MEMB      168             0.0000000000
     20933       168  PMPG      H6S           -55.3095620291      -17.6547643535        9.2603672099  MEMB      168             0.0000000000
     20934       168  PMPG      C27           -53.9481158858      -18.9872936026        8.0102593710  MEMB      168             0.0000000000
     20935       168  PMPG      H7R           -54.7761387082      -19.1385381957        7.2851217215  MEMB      168             0.0000000000
     20936       168  PMPG      H7S           -53.5175820346      -20.0012249193        8.1548442029  MEMB      168             0.0000000000
     20937       168  PMPG      C28           -52.8866064799      -18.0531279563        7.4252044776  MEMB      168             0.0000000000
     20938       168  PMPG      H8R           -51.9235114800      -18.1234480837        7.9745891383  MEMB      168             0.0000000000
     20939       168  PMPG      H8S           -53.0965824350      -16.9667014468        7.5247470883  MEMB      168             0.0000000000
     20940       168  PMPG      C29           -52.7381311585      -18.3152916993        5.9177251072  MEMB      168             0.0000000000
     20941       168  PMPG      H9R           -53.4062067875      -17.8004077367        5.1946134049  MEMB      168             0.0000000000
     20942       168  PMPG      C217          -51.2564415107      -18.2421379305        5.5250931987  MEMB      168             0.0000000000
     20943       168  PMPG      H17R          -51.1378079607      -17.6969156551        4.5968965615  MEMB      168             0.0000000000
     20944       168  PMPG      H17S          -50.5188276243      -18.3054601301        6.3155392578  MEMB      168             0.0000000000
     20945       168  PMPG      C210          -52.0614811454      -19.5007205900        5.4222477377  MEMB      168             0.0000000000
     20946       168  PMPG      H10R          -52.3393027370      -19.7235680968        4.3698818710  MEMB      168             0.0000000000
     20947       168  PMPG      C211          -51.6426300786      -20.6668894293        6.2992387442  MEMB      168             0.0000000000
     20948       168  PMPG      H11R          -51.4215570956      -20.4403743154        7.3641984794  MEMB      168             0.0000000000
     20949       168  PMPG      H11S          -52.4067900487      -21.4666508269        6.4029810804  MEMB      168             0.0000000000
     20950       168  PMPG      C212          -50.3072307646      -21.2801669970        5.8190967563  MEMB      168             0.0000000000
     20951       168  PMPG      H12R          -49.8541445419      -21.8265488645        6.6737901510  MEMB      168             0.0000000000
     20952       168  PMPG      H12S          -49.5994664400      -20.5252272440        5.4147990822  MEMB      168             0.0000000000
     20953       168  PMPG      C213          -50.4800442451      -22.2392136774        4.6861971032  MEMB      168             0.0000000000
     20954       168  PMPG      H13R          -50.9919838432      -21.7440283421        3.8335370645  MEMB      168             0.0000000000
     20955       168  PMPG      H13S          -50.9535801927      -23.2065277646        4.9589391549  MEMB      168             0.0000000000
     20956       168  PMPG      C214          -49.1689722971      -22.7998205670        3.9874835871  MEMB      168             0.0000000000
     20957       168  PMPG      H14R          -48.8999212515      -23.8433144605        4.2577666368  MEMB      168             0.0000000000
     20958       168  PMPG      H14S          -48.3334053426      -22.1785886453        4.3750656904  MEMB      168             0.0000000000
     20959       168  PMPG      C215          -49.0349859666      -22.7226597955        2.4717210147  MEMB      168             0.0000000000
     20960       168  PMPG      H15R          -49.7859813806      -23.3549511956        1.9515930605  MEMB      168             0.0000000000
     20961       168  PMPG      H15S          -48.0722936065      -23.1455502827        2.1129623106  MEMB      168             0.0000000000
     20962       168  PMPG      C216          -49.1847869051      -21.3147239327        1.8590341241  MEMB      168             0.0000000000
     20963       168  PMPG      H16R          -50.1073212781      -20.7770217156        2.1658382261  MEMB      168             0.0000000000
     20964       168  PMPG      H16S          -49.1330551757      -21.3311719015        0.7493623479  MEMB      168             0.0000000000
     20965       168  PMPG      H16T          -48.3330606045      -20.6999053079        2.2208096618  MEMB      168             0.0000000000
     20966       168  PMPG      C33           -51.1445364559      -25.8875652343       11.6375703602  MEMB      168             0.0000000000
     20967       168  PMPG      H3X           -51.6285679680      -25.3151736281       12.4575716378  MEMB      168             0.0000000000
     20968       168  PMPG      H3Y           -51.2296743813      -26.9630446390       11.9029317875  MEMB      168             0.0000000000
     20969       168  PMPG      C34           -51.8088046314      -25.5591532267       10.3004841928  MEMB      168             0.0000000000
     20970       168  PMPG      H4X           -51.4810543303      -26.3366282476        9.5776879105  MEMB      168             0.0000000000
     20971       168  PMPG      H4Y           -51.4447731453      -24.5821550793        9.9167174796  MEMB      168             0.0000000000
     20972       168  PMPG      C35           -53.3225218631      -25.3676969245       10.4891528412  MEMB      168             0.0000000000
     20973       168  PMPG      H5X           -53.6770598942      -24.9252191294       11.4445778678  MEMB      168             0.0000000000
     20974       168  PMPG      H5Y           -53.7695502695      -26.3843218354       10.4581643706  MEMB      168             0.0000000000
     20975       168  PMPG      C36           -53.9732380449      -24.4506393596        9.3989482784  MEMB      168             0.0000000000
     20976       168  PMPG      H6X           -53.3029179882      -23.5770419485        9.2512321889  MEMB      168             0.0000000000
     20977       168  PMPG      H6Y           -54.9075506469      -24.1045334166        9.8904672348  MEMB      168             0.0000000000
     20978       168  PMPG      C37           -54.3068453387      -25.2442950727        8.1515545276  MEMB      168             0.0000000000
     20979       168  PMPG      H7X           -54.8778314541      -26.0336575197        8.6855980424  MEMB      168             0.0000000000
     20980       168  PMPG      H7Y           -53.4186016538      -25.7045111726        7.6682892244  MEMB      168             0.0000000000
     20981       168  PMPG      C38           -55.0756926175      -24.4452498280        7.0893965497  MEMB      168             0.0000000000
     20982       168  PMPG      H8X           -54.5684071319      -23.4736691633        6.9077001875  MEMB      168             0.0000000000
     20983       168  PMPG      H8Y           -56.0883404141      -24.2743976552        7.5132767768  MEMB      168             0.0000000000
     20984       168  PMPG      C39           -55.0367468348      -25.1885515290        5.7644548546  MEMB      168             0.0000000000
     20985       168  PMPG      H9X           -55.7869110931      -24.6223486533        5.1720118291  MEMB      168             0.0000000000
     20986       168  PMPG      H9Y           -55.4740628257      -26.2091633559        5.8022366581  MEMB      168             0.0000000000
     20987       168  PMPG      C310          -53.6503136545      -25.3606590623        5.1417064586  MEMB      168             0.0000000000
     20988       168  PMPG      H10X          -53.0132023327      -26.1820978407        5.5336868984  MEMB      168             0.0000000000
     20989       168  PMPG      H10Y          -53.0501211432      -24.4338233198        5.2644481776  MEMB      168             0.0000000000
     20990       168  PMPG      C311          -53.7839192762      -25.8058686627        3.7380125952  MEMB      168             0.0000000000
     20991       168  PMPG      H11X          -54.2141888471      -24.9711734325        3.1443180937  MEMB      168             0.0000000000
     20992       168  PMPG      H11Y          -54.4789896106      -26.6354203464        3.4869312156  MEMB      168             0.0000000000
     20993       168  PMPG      C312          -52.3594649989      -26.0531972358        3.1561707988  MEMB      168             0.0000000000
     20994       168  PMPG      H12X          -52.0390507896      -27.0123213743        3.6163190128  MEMB      168             0.0000000000
     20995       168  PMPG      H12Y          -51.6995483998      -25.2500546580        3.5483353080  MEMB      168             0.0000000000
     20996       168  PMPG      C313          -52.1101188489      -26.0293648314        1.6777057739  MEMB      168             0.0000000000
     20997       168  PMPG      H13X          -51.7456938516      -25.0113028793        1.4226265891  MEMB      168             0.0000000000
     20998       168  PMPG      H13Y          -53.0222723976      -26.2420687388        1.0801645608  MEMB      168             0.0000000000
     20999       168  PMPG      C314          -51.0484778780      -27.0370768950        1.2019536964  MEMB      168             0.0000000000
     21000       168  PMPG      H14X          -51.4751505400      -28.0505773335        1.3603479267  MEMB      168             0.0000000000
     21001       168  PMPG      H14Y          -50.1290808313      -27.1449569164        1.8162758729  MEMB      168             0.0000000000
     21002       168  PMPG      C315          -50.4232251010      -26.8397301936       -0.2066837596  MEMB      168             0.0000000000
     21003       168  PMPG      H15X          -49.6120884670      -27.5898529776       -0.3237058781  MEMB      168             0.0000000000
     21004       168  PMPG      H15Y          -49.9408429686      -25.8396763816       -0.2456840612  MEMB      168             0.0000000000
     21005       168  PMPG      C316          -51.4738419492      -26.9959054291       -1.3373893727  MEMB      168             0.0000000000
     21006       168  PMPG      H16X          -50.8815192729      -26.9478836147       -2.2760955136  MEMB      168             0.0000000000
     21007       168  PMPG      H16Y          -52.1106565456      -26.1070313247       -1.1406892082  MEMB      168             0.0000000000
     21008       168  PMPG      H16Z          -52.0837375985      -27.9170616544       -1.4549461375  MEMB      168             0.0000000000
     21009       169  POPE      N             -27.2500587232      -54.1157220006       20.1881262548  MEMB      169             0.0000000000
     21010       169  POPE      HN1           -28.2490492912      -54.3790028799       20.0685393110  MEMB      169             0.0000000000
     21011       169  POPE      HN2           -26.6804320938      -54.9125872008       20.5375993302  MEMB      169             0.0000000000
     21012       169  POPE      HN3           -27.1808803206      -53.3145890047       20.8476716469  MEMB      169             0.0000000000
     21013       169  POPE      C12           -26.6105567825      -53.9318035169       18.7848891455  MEMB      169             0.0000000000
     21014       169  POPE      H12A          -26.7196179167      -52.8502662120       18.5553161006  MEMB      169             0.0000000000
     21015       169  POPE      H12B          -27.1839605702      -54.5536944937       18.0646247092  MEMB      169             0.0000000000
     21016       169  POPE      C11           -25.1524919703      -54.2216035646       18.7104311299  MEMB      169             0.0000000000
     21017       169  POPE      H11A          -24.6731331346      -54.1525797243       17.7105452545  MEMB      169             0.0000000000
     21018       169  POPE      H11B          -24.8791911460      -55.2707054489       18.9533567092  MEMB      169             0.0000000000
     21019       169  POPE      P             -23.8200316431      -51.9491977602       18.8627305584  MEMB      169             0.0000000000
     21020       169  POPE      O13           -23.0508591849      -51.3008681641       19.9211975733  MEMB      169             0.0000000000
     21021       169  POPE      O14           -24.8509304924      -51.2369052969       18.1843483181  MEMB      169             0.0000000000
     21022       169  POPE      O11           -22.7486838785      -52.4469450354       17.8104743021  MEMB      169             0.0000000000
     21023       169  POPE      O12           -24.4807840878      -53.2522490113       19.5378027162  MEMB      169             0.0000000000
     21024       169  POPE      C1            -21.6356471176      -51.7221774050       17.4055402126  MEMB      169             0.0000000000
     21025       169  POPE      HA            -20.8316689292      -52.3385906753       17.8615824791  MEMB      169             0.0000000000
     21026       169  POPE      HB            -21.6656790742      -50.7475511414       17.9380084677  MEMB      169             0.0000000000
     21027       169  POPE      C2            -21.6555414782      -51.6073142175       15.8553727933  MEMB      169             0.0000000000
     21028       169  POPE      HS            -20.9798624854      -50.7989832602       15.5026966852  MEMB      169             0.0000000000
     21029       169  POPE      O21           -22.8942328242      -51.1621932419       15.2805853082  MEMB      169             0.0000000000
     21030       169  POPE      C21           -23.3472112096      -49.8602647293       15.3849387972  MEMB      169             0.0000000000
     21031       169  POPE      O22           -22.7776614191      -49.0209769281       16.0851651657  MEMB      169             0.0000000000
     21032       169  POPE      C22           -24.7026229427      -49.7782841330       14.6421294661  MEMB      169             0.0000000000
     21033       169  POPE      H2R           -24.5544530397      -49.0246315309       13.8394001521  MEMB      169             0.0000000000
     21034       169  POPE      H2S           -25.3534465649      -49.3209477327       15.4177537429  MEMB      169             0.0000000000
     21035       169  POPE      C3            -21.2853066301      -52.9789080654       15.1184021499  MEMB      169             0.0000000000
     21036       169  POPE      HX            -22.1187405267      -53.6579398457       15.3988034327  MEMB      169             0.0000000000
     21037       169  POPE      HY            -20.3293079936      -53.3387332767       15.5553387026  MEMB      169             0.0000000000
     21038       169  POPE      O31           -21.1158175182      -52.7714044325       13.7899392917  MEMB      169             0.0000000000
     21039       169  POPE      C31           -20.9965808405      -53.8910505010       13.1176282199  MEMB      169             0.0000000000
     21040       169  POPE      O32           -20.9594473442      -55.0490874512       13.5713144121  MEMB      169             0.0000000000
     21041       169  POPE      C32           -20.9980415059      -53.6267879831       11.6067289296  MEMB      169             0.0000000000
     21042       169  POPE      H2X           -20.4298115000      -54.4314427373       11.0929524966  MEMB      169             0.0000000000
     21043       169  POPE      H2Y           -20.4601773119      -52.6563635958       11.5492842814  MEMB      169             0.0000000000
     21044       169  POPE      C23           -25.1957560681      -51.0877134743       14.0955844361  MEMB      169             0.0000000000
     21045       169  POPE      H3R           -26.2448817485      -51.2430678451       14.4265245109  MEMB      169             0.0000000000
     21046       169  POPE      H3S           -24.6733569282      -52.0171188610       14.4080357222  MEMB      169             0.0000000000
     21047       169  POPE      C24           -25.1555158804      -51.1145301409       12.5886067969  MEMB      169             0.0000000000
     21048       169  POPE      H4R           -25.2197623194      -52.1269549294       12.1356281039  MEMB      169             0.0000000000
     21049       169  POPE      H4S           -24.1932784058      -50.6882592812       12.2326386312  MEMB      169             0.0000000000
     21050       169  POPE      C25           -26.4875629420      -50.5091711176       11.9102784450  MEMB      169             0.0000000000
     21051       169  POPE      H5R           -26.8258345157      -49.6832593468       12.5719151239  MEMB      169             0.0000000000
     21052       169  POPE      H5S           -27.2209318956      -51.3332239404       11.7782635731  MEMB      169             0.0000000000
     21053       169  POPE      C26           -26.1458636817      -49.8025213869       10.5715293751  MEMB      169             0.0000000000
     21054       169  POPE      H6R           -25.4588591376      -48.9551358487       10.7819656226  MEMB      169             0.0000000000
     21055       169  POPE      H6S           -27.0458367170      -49.4911441528        9.9993284756  MEMB      169             0.0000000000
     21056       169  POPE      C27           -25.3239485279      -50.7265147809        9.5765720808  MEMB      169             0.0000000000
     21057       169  POPE      H7R           -25.7009000120      -51.7668354072        9.6763801154  MEMB      169             0.0000000000
     21058       169  POPE      H7S           -24.2461548876      -50.8003173783        9.8358689551  MEMB      169             0.0000000000
     21059       169  POPE      C28           -25.3865431708      -50.2692929037        8.0924929035  MEMB      169             0.0000000000
     21060       169  POPE      H8R           -24.3248422202      -50.2719477776        7.7652240504  MEMB      169             0.0000000000
     21061       169  POPE      H8S           -25.6012075660      -49.1866892923        8.2198094020  MEMB      169             0.0000000000
     21062       169  POPE      C29           -26.3736966069      -50.9829195295        7.1380019948  MEMB      169             0.0000000000
     21063       169  POPE      H91           -27.2386769116      -51.4211670255        7.6573753234  MEMB      169             0.0000000000
     21064       169  POPE      C210          -26.1486645620      -51.1610025913        5.8091282584  MEMB      169             0.0000000000
     21065       169  POPE      H101          -26.8666559758      -51.7650457615        5.2350025789  MEMB      169             0.0000000000
     21066       169  POPE      C211          -24.8417982298      -50.6355737693        5.1492993662  MEMB      169             0.0000000000
     21067       169  POPE      H11R          -23.9598405631      -51.0293470486        5.6983108579  MEMB      169             0.0000000000
     21068       169  POPE      H11S          -24.7307060076      -49.5312693221        5.1992107870  MEMB      169             0.0000000000
     21069       169  POPE      C212          -24.6569710025      -51.1706426186        3.7270418884  MEMB      169             0.0000000000
     21070       169  POPE      H12R          -25.4156254502      -50.6414169800        3.1116689570  MEMB      169             0.0000000000
     21071       169  POPE      H12S          -24.8923353949      -52.2528899518        3.6394901846  MEMB      169             0.0000000000
     21072       169  POPE      C213          -23.4131000608      -50.8754734425        2.8600441163  MEMB      169             0.0000000000
     21073       169  POPE      H13R          -22.4996121704      -51.0939887647        3.4534344133  MEMB      169             0.0000000000
     21074       169  POPE      H13S          -23.4828604341      -49.7673022970        2.8224809379  MEMB      169             0.0000000000
     21075       169  POPE      C214          -23.4667032414      -51.5961099508        1.5551959176  MEMB      169             0.0000000000
     21076       169  POPE      H14R          -23.2026694665      -50.8812589269        0.7467447129  MEMB      169             0.0000000000
     21077       169  POPE      H14S          -24.5331431412      -51.7864654860        1.3086345798  MEMB      169             0.0000000000
     21078       169  POPE      C215          -22.5710040469      -52.8862218038        1.4505929988  MEMB      169             0.0000000000
     21079       169  POPE      H15R          -21.5934532632      -52.6525312119        1.9239897790  MEMB      169             0.0000000000
     21080       169  POPE      H15S          -22.2470682869      -53.0911045615        0.4078031564  MEMB      169             0.0000000000
     21081       169  POPE      C216          -23.2244797358      -54.1846775748        2.0424817372  MEMB      169             0.0000000000
     21082       169  POPE      H16R          -24.2141707083      -54.2664618860        1.5443402603  MEMB      169             0.0000000000
     21083       169  POPE      H16S          -23.3542118606      -54.1662869031        3.1457276957  MEMB      169             0.0000000000
     21084       169  POPE      C217          -22.4814424240      -55.4456414136        1.6312622656  MEMB      169             0.0000000000
     21085       169  POPE      H17R          -21.4627883784      -55.2802185774        2.0427216434  MEMB      169             0.0000000000
     21086       169  POPE      H17S          -22.3787469184      -55.6456200769        0.5432438018  MEMB      169             0.0000000000
     21087       169  POPE      C218          -22.9392516799      -56.8338496366        2.1567091887  MEMB      169             0.0000000000
     21088       169  POPE      H18R          -23.6588461738      -57.3407116225        1.4787738507  MEMB      169             0.0000000000
     21089       169  POPE      H18S          -23.4192438773      -56.7466988760        3.1548735515  MEMB      169             0.0000000000
     21090       169  POPE      H18T          -22.0585798563      -57.5109651401        2.1725914038  MEMB      169             0.0000000000
     21091       169  POPE      C33           -22.4766335426      -53.4026818080       11.0689368314  MEMB      169             0.0000000000
     21092       169  POPE      H3X           -22.4123991234      -52.6778377636       10.2294158510  MEMB      169             0.0000000000
     21093       169  POPE      H3Y           -23.0749684741      -52.8965056661       11.8564024062  MEMB      169             0.0000000000
     21094       169  POPE      C34           -23.1664712055      -54.6524314460       10.5838039672  MEMB      169             0.0000000000
     21095       169  POPE      H4X           -23.3277024349      -55.1142264033       11.5813364501  MEMB      169             0.0000000000
     21096       169  POPE      H4Y           -22.5781456317      -55.3086767623        9.9073900003  MEMB      169             0.0000000000
     21097       169  POPE      C35           -24.5520651533      -54.3483246378        9.9601526798  MEMB      169             0.0000000000
     21098       169  POPE      H5X           -24.2819450477      -53.6643990027        9.1273252750  MEMB      169             0.0000000000
     21099       169  POPE      H5Y           -25.1405127640      -53.6679506073       10.6121818732  MEMB      169             0.0000000000
     21100       169  POPE      C36           -25.3503179788      -55.5327004628        9.4846188016  MEMB      169             0.0000000000
     21101       169  POPE      H6X           -25.4695855430      -56.2583591302       10.3173949328  MEMB      169             0.0000000000
     21102       169  POPE      H6Y           -24.7919179675      -56.0542739813        8.6781009981  MEMB      169             0.0000000000
     21103       169  POPE      C37           -26.7166708532      -55.0575707479        9.0998704151  MEMB      169             0.0000000000
     21104       169  POPE      H7X           -26.6060783211      -54.1765455574        8.4321237320  MEMB      169             0.0000000000
     21105       169  POPE      H7Y           -27.3101302019      -54.7802166255        9.9972005820  MEMB      169             0.0000000000
     21106       169  POPE      C38           -27.6136589565      -56.1441505881        8.4180287689  MEMB      169             0.0000000000
     21107       169  POPE      H8X           -28.6319218324      -55.7153241112        8.5345175647  MEMB      169             0.0000000000
     21108       169  POPE      H8Y           -27.5600436219      -57.0886613827        9.0005624250  MEMB      169             0.0000000000
     21109       169  POPE      C39           -27.2659001481      -56.2289064900        6.9256696200  MEMB      169             0.0000000000
     21110       169  POPE      H9X           -27.5863123453      -57.1720069014        6.4335127626  MEMB      169             0.0000000000
     21111       169  POPE      H9Y           -26.1729414692      -56.4122766354        6.8473250693  MEMB      169             0.0000000000
     21112       169  POPE      C310          -27.8936897107      -55.0746428580        6.0775881104  MEMB      169             0.0000000000
     21113       169  POPE      H10X          -27.3036627287      -54.1661236096        6.3241284850  MEMB      169             0.0000000000
     21114       169  POPE      H10Y          -28.9264770710      -54.8297514222        6.4057637567  MEMB      169             0.0000000000
     21115       169  POPE      C311          -27.7184567753      -55.3460091242        4.6302235919  MEMB      169             0.0000000000
     21116       169  POPE      H11X          -28.4892808933      -56.0773834013        4.3058118025  MEMB      169             0.0000000000
     21117       169  POPE      H11Y          -26.7333394764      -55.8390107908        4.4859520604  MEMB      169             0.0000000000
     21118       169  POPE      C312          -27.6851238713      -54.1030207246        3.7008348893  MEMB      169             0.0000000000
     21119       169  POPE      H12X          -27.3791816181      -54.4134946038        2.6789125189  MEMB      169             0.0000000000
     21120       169  POPE      H12Y          -26.8721571727      -53.3951803206        3.9698480808  MEMB      169             0.0000000000
     21121       169  POPE      C313          -29.0565381543      -53.4575724250        3.6279235788  MEMB      169             0.0000000000
     21122       169  POPE      H13X          -29.3371675416      -52.9307165463        4.5649346774  MEMB      169             0.0000000000
     21123       169  POPE      H13Y          -29.8933794178      -54.1587053949        3.4219384200  MEMB      169             0.0000000000
     21124       169  POPE      C314          -29.0955055274      -52.5857983308        2.3872819209  MEMB      169             0.0000000000
     21125       169  POPE      H14X          -29.2004589969      -53.1462015799        1.4337339419  MEMB      169             0.0000000000
     21126       169  POPE      H14Y          -28.1965577429      -51.9350071734        2.3354658372  MEMB      169             0.0000000000
     21127       169  POPE      C315          -30.3505648803      -51.6755983014        2.3034260055  MEMB      169             0.0000000000
     21128       169  POPE      H15X          -30.5058360634      -51.1848128592        3.2879780944  MEMB      169             0.0000000000
     21129       169  POPE      H15Y          -31.2135827579      -52.3567716294        2.1436623943  MEMB      169             0.0000000000
     21130       169  POPE      C316          -30.3890861223      -50.6484784697        1.1462409381  MEMB      169             0.0000000000
     21131       169  POPE      H16X          -31.4178676571      -50.5033380776        0.7527147026  MEMB      169             0.0000000000
     21132       169  POPE      H16Y          -29.6999629582      -50.8066011851        0.2892541258  MEMB      169             0.0000000000
     21133       169  POPE      H16Z          -30.1236321105      -49.6385056506        1.5254652879  MEMB      169             0.0000000000
     21134       170  PMPE      N              46.6919895722      -40.5529720645       18.9205641636  MEMB      170             0.0000000000
     21135       170  PMPE      HN1            46.8576810013      -41.3570202766       19.5590409774  MEMB      170             0.0000000000
     21136       170  PMPE      HN2            45.9738236326      -40.8856966200       18.2459292297  MEMB      170             0.0000000000
     21137       170  PMPE      HN3            47.6553536333      -40.3747661842       18.5716054164  MEMB      170             0.0000000000
     21138       170  PMPE      C12            46.2885682702      -39.2628202471       19.5370953262  MEMB      170             0.0000000000
     21139       170  PMPE      H12A           46.2519356372      -38.5163075089       18.7150869431  MEMB      170             0.0000000000
     21140       170  PMPE      H12B           47.1673779511      -39.0100202330       20.1680523268  MEMB      170             0.0000000000
     21141       170  PMPE      C11            44.9859900169      -39.3251344066       20.3340147471  MEMB      170             0.0000000000
     21142       170  PMPE      H11A           44.7147943301      -38.3332273375       20.7546026982  MEMB      170             0.0000000000
     21143       170  PMPE      H11B           45.2282612536      -40.0370126767       21.1518503292  MEMB      170             0.0000000000
     21144       170  PMPE      P              43.0427810362      -38.9349386283       18.6484532296  MEMB      170             0.0000000000
     21145       170  PMPE      O13            43.8978837965      -37.7776098264       18.2345786993  MEMB      170             0.0000000000
     21146       170  PMPE      O14            41.7355565776      -38.5963635504       19.2603734974  MEMB      170             0.0000000000
     21147       170  PMPE      O11            42.7366341954      -39.9658457022       17.3773936539  MEMB      170             0.0000000000
     21148       170  PMPE      O12            43.8457893356      -39.8635699770       19.6875266863  MEMB      170             0.0000000000
     21149       170  PMPE      C1             43.8365476529      -40.6462997341       16.7571560746  MEMB      170             0.0000000000
     21150       170  PMPE      HA             43.9296739465      -41.6877335829       17.1327410864  MEMB      170             0.0000000000
     21151       170  PMPE      HB             44.8071093312      -40.1897680098       17.0468279060  MEMB      170             0.0000000000
     21152       170  PMPE      C2             43.7470578895      -40.4352850782       15.2088185759  MEMB      170             0.0000000000
     21153       170  PMPE      HS             44.6894154941      -40.8330764894       14.7751769008  MEMB      170             0.0000000000
     21154       170  PMPE      O21            43.5889880006      -39.0479741358       14.8697228485  MEMB      170             0.0000000000
     21155       170  PMPE      C21            44.7097012516      -38.3071013306       15.0792928905  MEMB      170             0.0000000000
     21156       170  PMPE      O22            45.8503974826      -38.6815634436       15.2320230488  MEMB      170             0.0000000000
     21157       170  PMPE      C22            44.3603050483      -36.8121026713       14.9850302835  MEMB      170             0.0000000000
     21158       170  PMPE      H2R            44.4856965187      -36.2206922487       15.9171418218  MEMB      170             0.0000000000
     21159       170  PMPE      H2S            43.3430234718      -36.6418147734       14.5721608038  MEMB      170             0.0000000000
     21160       170  PMPE      C3             42.5764351471      -41.2771747245       14.6566437434  MEMB      170             0.0000000000
     21161       170  PMPE      HX             41.5468118813      -41.0934154770       15.0313827104  MEMB      170             0.0000000000
     21162       170  PMPE      HY             42.8765716406      -42.3416581891       14.7620665597  MEMB      170             0.0000000000
     21163       170  PMPE      O31            42.5525369770      -40.9242716401       13.2463329343  MEMB      170             0.0000000000
     21164       170  PMPE      C31            43.5025675218      -41.3369061234       12.4636275596  MEMB      170             0.0000000000
     21165       170  PMPE      O32            44.2739116543      -42.2098107929       12.7656013199  MEMB      170             0.0000000000
     21166       170  PMPE      C32            43.3799917754      -40.7431090826       11.0796480029  MEMB      170             0.0000000000
     21167       170  PMPE      H2X            44.2650474715      -40.0858504111       10.9417770690  MEMB      170             0.0000000000
     21168       170  PMPE      H2Y            42.3866731732      -40.2695422230       10.9267639297  MEMB      170             0.0000000000
     21169       170  PMPE      C23            45.2740225690      -36.0946270442       13.9650424024  MEMB      170             0.0000000000
     21170       170  PMPE      H3R            46.3745784159      -36.1841205065       14.0878779441  MEMB      170             0.0000000000
     21171       170  PMPE      H3S            45.0272805972      -35.0420577431       14.2210449243  MEMB      170             0.0000000000
     21172       170  PMPE      C24            45.0543589435      -36.4465028352       12.4661752415  MEMB      170             0.0000000000
     21173       170  PMPE      H4R            43.9788139010      -36.3511358295       12.2045858679  MEMB      170             0.0000000000
     21174       170  PMPE      H4S            45.4634779488      -37.4692004711       12.3211496825  MEMB      170             0.0000000000
     21175       170  PMPE      C25            45.7957851888      -35.5030079307       11.4279023256  MEMB      170             0.0000000000
     21176       170  PMPE      H5R            46.8145154506      -35.4609914757       11.8692009519  MEMB      170             0.0000000000
     21177       170  PMPE      H5S            45.2759924027      -34.5211120817       11.4237461905  MEMB      170             0.0000000000
     21178       170  PMPE      C26            45.7560390446      -35.9533088439        9.9468987538  MEMB      170             0.0000000000
     21179       170  PMPE      H6R            46.3224650072      -36.9084054807        9.9112173362  MEMB      170             0.0000000000
     21180       170  PMPE      H6S            46.2989248999      -35.1896663240        9.3498675090  MEMB      170             0.0000000000
     21181       170  PMPE      C27            44.3741356634      -36.1886108873        9.3199688606  MEMB      170             0.0000000000
     21182       170  PMPE      H7R            43.7484719277      -35.2735457753        9.3942753918  MEMB      170             0.0000000000
     21183       170  PMPE      H7S            43.8848893491      -36.9781273319        9.9295776573  MEMB      170             0.0000000000
     21184       170  PMPE      C28            44.2918617284      -36.3956073150        7.8661894557  MEMB      170             0.0000000000
     21185       170  PMPE      H8R            44.8325505073      -37.3087864939        7.5374334695  MEMB      170             0.0000000000
     21186       170  PMPE      H8S            44.9214461289      -35.6123964357        7.3923482706  MEMB      170             0.0000000000
     21187       170  PMPE      C29            42.8397017278      -36.2136087949        7.4268889220  MEMB      170             0.0000000000
     21188       170  PMPE      H9R            42.3737340405      -35.2492051350        7.7220508612  MEMB      170             0.0000000000
     21189       170  PMPE      C217           41.9354069682      -37.4146041882        7.6015534361  MEMB      170             0.0000000000
     21190       170  PMPE      H17R           40.9913630684      -37.0885761398        8.0203325387  MEMB      170             0.0000000000
     21191       170  PMPE      H17S           42.6385077483      -38.1614619786        7.9490323921  MEMB      170             0.0000000000
     21192       170  PMPE      C210           42.2576189059      -36.9420064369        6.1534223263  MEMB      170             0.0000000000
     21193       170  PMPE      H10R           41.4702629587      -36.3824538790        5.6045208988  MEMB      170             0.0000000000
     21194       170  PMPE      C211           43.1330854890      -37.8452037798        5.2473314861  MEMB      170             0.0000000000
     21195       170  PMPE      H11R           42.4690978939      -38.5262136861        4.6731653856  MEMB      170             0.0000000000
     21196       170  PMPE      H11S           43.8550718311      -38.3429326504        5.9294776121  MEMB      170             0.0000000000
     21197       170  PMPE      C212           43.9767434548      -36.9598369538        4.2270289162  MEMB      170             0.0000000000
     21198       170  PMPE      H12R           44.8336412947      -36.4400788688        4.7065060763  MEMB      170             0.0000000000
     21199       170  PMPE      H12S           43.2441269530      -36.1717530772        3.9504101494  MEMB      170             0.0000000000
     21200       170  PMPE      C213           44.4552601831      -37.7516595330        3.0357872498  MEMB      170             0.0000000000
     21201       170  PMPE      H13R           43.6418363452      -37.9490784013        2.3052483092  MEMB      170             0.0000000000
     21202       170  PMPE      H13S           44.8501032345      -38.7268107995        3.3928587711  MEMB      170             0.0000000000
     21203       170  PMPE      C214           45.5390408387      -37.0504319156        2.1857905394  MEMB      170             0.0000000000
     21204       170  PMPE      H14R           46.4446999556      -36.7713643967        2.7656393994  MEMB      170             0.0000000000
     21205       170  PMPE      H14S           45.1128974855      -36.1399162705        1.7128378259  MEMB      170             0.0000000000
     21206       170  PMPE      C215           46.0749851756      -38.0014972448        1.0798190555  MEMB      170             0.0000000000
     21207       170  PMPE      H15R           46.2976506028      -38.9777370666        1.5611664672  MEMB      170             0.0000000000
     21208       170  PMPE      H15S           46.9250725635      -37.5280959268        0.5435697563  MEMB      170             0.0000000000
     21209       170  PMPE      C216           45.1317325042      -38.3932122596        0.0118972483  MEMB      170             0.0000000000
     21210       170  PMPE      H16R           45.2476420481      -39.4818528848       -0.1771730681  MEMB      170             0.0000000000
     21211       170  PMPE      H16S           44.0704925177      -38.2179665733        0.2900684749  MEMB      170             0.0000000000
     21212       170  PMPE      H16T           45.3510589764      -37.6804495184       -0.8116245006  MEMB      170             0.0000000000
     21213       170  PMPE      C33            43.4645547358      -41.9885644186       10.1156724747  MEMB      170             0.0000000000
     21214       170  PMPE      H3X            42.4850252765      -42.4644306636       10.3356592518  MEMB      170             0.0000000000
     21215       170  PMPE      H3Y            44.2729923053      -42.7241884528       10.3146876265  MEMB      170             0.0000000000
     21216       170  PMPE      C34            43.2532932115      -41.7285774063        8.6253172950  MEMB      170             0.0000000000
     21217       170  PMPE      H4X            42.5992820835      -40.8536893558        8.4224355560  MEMB      170             0.0000000000
     21218       170  PMPE      H4Y            42.6770295158      -42.6036173075        8.2557959075  MEMB      170             0.0000000000
     21219       170  PMPE      C35            44.7038480193      -41.6782476778        8.0592281774  MEMB      170             0.0000000000
     21220       170  PMPE      H5X            45.2965178965      -42.5563649512        8.3938516914  MEMB      170             0.0000000000
     21221       170  PMPE      H5Y            45.2801022213      -40.8106927998        8.4460100895  MEMB      170             0.0000000000
     21222       170  PMPE      C36            44.8273242202      -41.6527800081        6.5181467090  MEMB      170             0.0000000000
     21223       170  PMPE      H6X            45.8776592874      -41.5112866047        6.1848339186  MEMB      170             0.0000000000
     21224       170  PMPE      H6Y            44.2602445082      -40.7224011048        6.3010358924  MEMB      170             0.0000000000
     21225       170  PMPE      C37            44.2111919434      -42.8814399584        5.7793621532  MEMB      170             0.0000000000
     21226       170  PMPE      H7X            43.1691532687      -43.0620879112        6.1197191311  MEMB      170             0.0000000000
     21227       170  PMPE      H7Y            44.8386368138      -43.7440788335        6.0899865737  MEMB      170             0.0000000000
     21228       170  PMPE      C38            44.2015973485      -42.6774568439        4.2465975130  MEMB      170             0.0000000000
     21229       170  PMPE      H8X            44.1189888602      -43.7055625237        3.8336866213  MEMB      170             0.0000000000
     21230       170  PMPE      H8Y            45.2078542560      -42.2583233582        4.0318997727  MEMB      170             0.0000000000
     21231       170  PMPE      C39            43.0157310139      -41.8230393102        3.7616638793  MEMB      170             0.0000000000
     21232       170  PMPE      H9X            43.1149081324      -40.8991777571        4.3707332291  MEMB      170             0.0000000000
     21233       170  PMPE      H9Y            42.0949683154      -42.3387796976        4.1088367952  MEMB      170             0.0000000000
     21234       170  PMPE      C310           42.9269826638      -41.3679351223        2.3440786105  MEMB      170             0.0000000000
     21235       170  PMPE      H10X           43.0479308044      -42.1169114531        1.5324584212  MEMB      170             0.0000000000
     21236       170  PMPE      H10Y           43.7821877094      -40.6898901971        2.1362316781  MEMB      170             0.0000000000
     21237       170  PMPE      C311           41.7033547815      -40.4997701863        2.0921843355  MEMB      170             0.0000000000
     21238       170  PMPE      H11X           41.9014649829      -39.5903460939        2.6988326001  MEMB      170             0.0000000000
     21239       170  PMPE      H11Y           40.8253280276      -41.0544539810        2.4867933757  MEMB      170             0.0000000000
     21240       170  PMPE      C312           41.4560951066      -40.2346762711        0.6232419230  MEMB      170             0.0000000000
     21241       170  PMPE      H12X           41.3790581667      -41.2485633701        0.1755604272  MEMB      170             0.0000000000
     21242       170  PMPE      H12Y           42.3829845592      -39.8522879726        0.1447284193  MEMB      170             0.0000000000
     21243       170  PMPE      C313           40.3354532136      -39.3819401480        0.2032384864  MEMB      170             0.0000000000
     21244       170  PMPE      H13X           39.4915719938      -39.6153526267        0.8871276386  MEMB      170             0.0000000000
     21245       170  PMPE      H13Y           40.0361174569      -39.7053429141       -0.8166283520  MEMB      170             0.0000000000
     21246       170  PMPE      C314           40.6694250029      -37.8356318206        0.2773696651  MEMB      170             0.0000000000
     21247       170  PMPE      H14X           40.0701595147      -37.2910976958       -0.4833436739  MEMB      170             0.0000000000
     21248       170  PMPE      H14Y           41.7203782972      -37.8889501237       -0.0789661417  MEMB      170             0.0000000000
     21249       170  PMPE      C315           40.5982919522      -37.2610959638        1.6427592155  MEMB      170             0.0000000000
     21250       170  PMPE      H15X           41.3898090166      -37.6711477403        2.3058421073  MEMB      170             0.0000000000
     21251       170  PMPE      H15Y           39.6558586101      -37.5250382181        2.1685682620  MEMB      170             0.0000000000
     21252       170  PMPE      C316           40.7118449371      -35.6899181136        1.6191799268  MEMB      170             0.0000000000
     21253       170  PMPE      H16X           40.2586478101      -35.2534639669        0.7035165884  MEMB      170             0.0000000000
     21254       170  PMPE      H16Y           41.7875016290      -35.4361885218        1.7327818939  MEMB      170             0.0000000000
     21255       170  PMPE      H16Z           40.1274414179      -35.2003340141        2.4273264839  MEMB      170             0.0000000000
     21256       171  PMPG      C13           -48.3231166036       37.9822557595       19.8860464964  MEMB      171             0.0000000000
     21257       171  PMPG      H13A          -49.1459996038       37.2570288815       19.7093252231  MEMB      171             0.0000000000
     21258       171  PMPG      H13B          -47.9848211754       37.9831617624       20.9442887298  MEMB      171             0.0000000000
     21259       171  PMPG      OC3           -48.8043953560       39.2633276732       19.4601297051  MEMB      171             0.0000000000
     21260       171  PMPG      HO3           -48.1178277879       39.9225563712       19.3350598338  MEMB      171             0.0000000000
     21261       171  PMPG      C12           -47.0950992890       37.6021492521       19.0184289679  MEMB      171             0.0000000000
     21262       171  PMPG      H12A          -47.4486258449       37.5136974145       17.9648757957  MEMB      171             0.0000000000
     21263       171  PMPG      OC2           -46.5837068931       36.3304042260       19.4199053633  MEMB      171             0.0000000000
     21264       171  PMPG      HO2           -45.7475005975       36.2574922692       18.9098468198  MEMB      171             0.0000000000
     21265       171  PMPG      C11           -45.9979806648       38.7049471757       19.0903091614  MEMB      171             0.0000000000
     21266       171  PMPG      H11A          -45.6679348784       38.8358937994       20.1430407729  MEMB      171             0.0000000000
     21267       171  PMPG      H11B          -46.4352640838       39.6506876748       18.7047200727  MEMB      171             0.0000000000
     21268       171  PMPG      P             -43.5178417041       37.9154893731       18.6531610683  MEMB      171             0.0000000000
     21269       171  PMPG      O13           -43.2098648816       38.5070316128       19.9796914097  MEMB      171             0.0000000000
     21270       171  PMPG      O14           -42.5775262289       38.1979078762       17.5825876220  MEMB      171             0.0000000000
     21271       171  PMPG      O11           -43.6528541802       36.3467254449       18.6561648144  MEMB      171             0.0000000000
     21272       171  PMPG      O12           -44.9511102037       38.3810896057       18.2535753835  MEMB      171             0.0000000000
     21273       171  PMPG      C1            -44.4442112493       35.6139877135       17.7781477292  MEMB      171             0.0000000000
     21274       171  PMPG      HA            -45.1799301590       36.1199224961       17.1170359563  MEMB      171             0.0000000000
     21275       171  PMPG      HB            -45.1117236649       35.0241425525       18.4420986392  MEMB      171             0.0000000000
     21276       171  PMPG      C2            -43.5082150032       34.7217304349       16.9878019184  MEMB      171             0.0000000000
     21277       171  PMPG      HS            -42.6975089553       34.2833070089       17.6081741364  MEMB      171             0.0000000000
     21278       171  PMPG      O21           -42.9790235009       35.6020588992       15.9642129300  MEMB      171             0.0000000000
     21279       171  PMPG      C21           -41.9799210644       35.1317016313       15.2884740250  MEMB      171             0.0000000000
     21280       171  PMPG      O22           -41.3172001574       34.1341753608       15.4818100520  MEMB      171             0.0000000000
     21281       171  PMPG      C22           -41.6321594478       36.1968644240       14.2299312751  MEMB      171             0.0000000000
     21282       171  PMPG      H2R           -40.9917812476       36.9611527214       14.7199317160  MEMB      171             0.0000000000
     21283       171  PMPG      H2S           -42.5497492727       36.7188539109       13.8836994236  MEMB      171             0.0000000000
     21284       171  PMPG      C3            -44.3322983473       33.5823167575       16.3149235394  MEMB      171             0.0000000000
     21285       171  PMPG      HX            -44.7570093922       33.0159952802       17.1712068624  MEMB      171             0.0000000000
     21286       171  PMPG      HY            -43.5823615762       32.9716832632       15.7680754769  MEMB      171             0.0000000000
     21287       171  PMPG      O31           -45.4680568663       33.9991023432       15.5903232727  MEMB      171             0.0000000000
     21288       171  PMPG      C31           -45.5237176512       33.6370454208       14.3111761840  MEMB      171             0.0000000000
     21289       171  PMPG      O32           -44.9797479188       32.6299220176       13.8356475724  MEMB      171             0.0000000000
     21290       171  PMPG      C32           -46.4431830625       34.6736212598       13.6077633644  MEMB      171             0.0000000000
     21291       171  PMPG      H2X           -45.8262353369       35.5711213894       13.3882415449  MEMB      171             0.0000000000
     21292       171  PMPG      H2Y           -47.3964057636       34.9188743914       14.1230675498  MEMB      171             0.0000000000
     21293       171  PMPG      C23           -40.7667747349       35.5267303732       13.0732092900  MEMB      171             0.0000000000
     21294       171  PMPG      H3R           -41.0920849078       34.5274616110       12.7127150823  MEMB      171             0.0000000000
     21295       171  PMPG      H3S           -39.7618579234       35.5044271395       13.5464601980  MEMB      171             0.0000000000
     21296       171  PMPG      C24           -40.5766622705       36.4816013325       11.8619527035  MEMB      171             0.0000000000
     21297       171  PMPG      H4R           -39.6684635872       36.2727024820       11.2570917840  MEMB      171             0.0000000000
     21298       171  PMPG      H4S           -40.4629775856       37.4783955767       12.3392346961  MEMB      171             0.0000000000
     21299       171  PMPG      C25           -41.8326241617       36.5189656891       11.0494454866  MEMB      171             0.0000000000
     21300       171  PMPG      H5R           -42.7594830972       36.5771624426       11.6592540292  MEMB      171             0.0000000000
     21301       171  PMPG      H5S           -41.8562301237       35.5761152025       10.4622510346  MEMB      171             0.0000000000
     21302       171  PMPG      C26           -41.8433526721       37.5837248999        9.9733175973  MEMB      171             0.0000000000
     21303       171  PMPG      H6R           -40.9563674457       37.4320373814        9.3217276276  MEMB      171             0.0000000000
     21304       171  PMPG      H6S           -41.8170016854       38.6264528492       10.3558676773  MEMB      171             0.0000000000
     21305       171  PMPG      C27           -43.0950007175       37.3795921675        9.0206037906  MEMB      171             0.0000000000
     21306       171  PMPG      H7R           -43.9633303240       37.2403619467        9.6995295999  MEMB      171             0.0000000000
     21307       171  PMPG      H7S           -43.0018804321       36.4268270752        8.4567885033  MEMB      171             0.0000000000
     21308       171  PMPG      C28           -43.3773928760       38.5590580726        8.1044370787  MEMB      171             0.0000000000
     21309       171  PMPG      H8R           -42.7805768899       38.4423008794        7.1746521277  MEMB      171             0.0000000000
     21310       171  PMPG      H8S           -43.2559993962       39.5536615751        8.5843825784  MEMB      171             0.0000000000
     21311       171  PMPG      C29           -44.9021015967       38.5486526439        7.8613289722  MEMB      171             0.0000000000
     21312       171  PMPG      H9R           -45.4648664171       38.9071903737        8.7496232946  MEMB      171             0.0000000000
     21313       171  PMPG      C217          -45.3278114586       38.9540098375        6.4453804195  MEMB      171             0.0000000000
     21314       171  PMPG      H17R          -46.1690386581       39.6359383647        6.4312589351  MEMB      171             0.0000000000
     21315       171  PMPG      H17S          -44.5375037682       39.0243430038        5.7082537598  MEMB      171             0.0000000000
     21316       171  PMPG      C210          -45.5718477757       37.5578997111        6.9567860783  MEMB      171             0.0000000000
     21317       171  PMPG      H10R          -46.6368990906       37.2815500636        7.1104659907  MEMB      171             0.0000000000
     21318       171  PMPG      C211          -44.6390166835       36.4958516491        6.2978243301  MEMB      171             0.0000000000
     21319       171  PMPG      H11R          -43.5926831004       36.8127887006        6.1001938208  MEMB      171             0.0000000000
     21320       171  PMPG      H11S          -44.5704710964       35.7241745947        7.0941517240  MEMB      171             0.0000000000
     21321       171  PMPG      C212          -45.2861519644       35.9421975036        5.0676388711  MEMB      171             0.0000000000
     21322       171  PMPG      H12R          -45.5664155064       36.7666543358        4.3776795565  MEMB      171             0.0000000000
     21323       171  PMPG      H12S          -46.2733830515       35.4394299084        5.1508288039  MEMB      171             0.0000000000
     21324       171  PMPG      C213          -44.3809571647       34.9380012127        4.2609862700  MEMB      171             0.0000000000
     21325       171  PMPG      H13R          -44.2912953807       34.0074084391        4.8612189496  MEMB      171             0.0000000000
     21326       171  PMPG      H13S          -43.3999597368       35.4265419457        4.0785228334  MEMB      171             0.0000000000
     21327       171  PMPG      C214          -44.8978909416       34.5142516294        2.8962571882  MEMB      171             0.0000000000
     21328       171  PMPG      H14R          -45.2475439816       35.3513931718        2.2549624009  MEMB      171             0.0000000000
     21329       171  PMPG      H14S          -45.8393472379       33.9287661678        2.9682833227  MEMB      171             0.0000000000
     21330       171  PMPG      C215          -43.9029506434       33.6237756895        2.1538800170  MEMB      171             0.0000000000
     21331       171  PMPG      H15R          -43.0141775867       34.2096512615        1.8358330076  MEMB      171             0.0000000000
     21332       171  PMPG      H15S          -44.5794953529       33.3386583885        1.3200229436  MEMB      171             0.0000000000
     21333       171  PMPG      C216          -43.3838507856       32.2813641369        2.7357841498  MEMB      171             0.0000000000
     21334       171  PMPG      H16R          -42.4479651006       32.0486034597        2.1841845403  MEMB      171             0.0000000000
     21335       171  PMPG      H16S          -44.0743314572       31.4162039649        2.6406279191  MEMB      171             0.0000000000
     21336       171  PMPG      H16T          -43.0576036952       32.2398677396        3.7969919613  MEMB      171             0.0000000000
     21337       171  PMPG      C33           -46.8367832265       33.9338433809       12.3462187340  MEMB      171             0.0000000000
     21338       171  PMPG      H3X           -47.1355213986       32.8796285567       12.5298149910  MEMB      171             0.0000000000
     21339       171  PMPG      H3Y           -45.9967868314       33.9623334762       11.6196407284  MEMB      171             0.0000000000
     21340       171  PMPG      C34           -48.0469156440       34.5824536508       11.7996477741  MEMB      171             0.0000000000
     21341       171  PMPG      H4X           -48.7555314605       34.8072440843       12.6252708280  MEMB      171             0.0000000000
     21342       171  PMPG      H4Y           -48.5142227046       33.7601917442       11.2166977364  MEMB      171             0.0000000000
     21343       171  PMPG      C35           -47.7126381154       35.8346976677       10.9685195435  MEMB      171             0.0000000000
     21344       171  PMPG      H5X           -47.2780962541       35.5711842914        9.9805647949  MEMB      171             0.0000000000
     21345       171  PMPG      H5Y           -46.8365899724       36.3679046977       11.3957793945  MEMB      171             0.0000000000
     21346       171  PMPG      C36           -48.8465433073       36.8758384250       10.9145461506  MEMB      171             0.0000000000
     21347       171  PMPG      H6X           -49.1224372389       36.9903067000       11.9846400207  MEMB      171             0.0000000000
     21348       171  PMPG      H6Y           -49.7146767687       36.4789729327       10.3460718395  MEMB      171             0.0000000000
     21349       171  PMPG      C37           -48.4014242128       38.2177373081       10.3562083130  MEMB      171             0.0000000000
     21350       171  PMPG      H7X           -47.5916443720       38.1125724925        9.6028700195  MEMB      171             0.0000000000
     21351       171  PMPG      H7Y           -47.9646380620       38.8045184693       11.1924061448  MEMB      171             0.0000000000
     21352       171  PMPG      C38           -49.5625319204       39.0797127998        9.8047337310  MEMB      171             0.0000000000
     21353       171  PMPG      H8X           -49.3053425694       40.1575632033        9.8848176426  MEMB      171             0.0000000000
     21354       171  PMPG      H8Y           -50.3762719400       38.7904688628       10.5036514844  MEMB      171             0.0000000000
     21355       171  PMPG      C39           -49.9931203370       38.7045224701        8.3510167600  MEMB      171             0.0000000000
     21356       171  PMPG      H9X           -50.9996897429       39.0242439822        8.0061729587  MEMB      171             0.0000000000
     21357       171  PMPG      H9Y           -50.0184448167       37.5945086870        8.3903752796  MEMB      171             0.0000000000
     21358       171  PMPG      C310          -49.0004674085       39.2899227878        7.3350469839  MEMB      171             0.0000000000
     21359       171  PMPG      H10X          -48.0366288615       38.8338874492        7.6470851796  MEMB      171             0.0000000000
     21360       171  PMPG      H10Y          -48.9706884691       40.3836245516        7.5280520609  MEMB      171             0.0000000000
     21361       171  PMPG      C311          -49.3965909562       38.8129953128        5.9267676366  MEMB      171             0.0000000000
     21362       171  PMPG      H11X          -50.4584588213       39.0918876695        5.7565412606  MEMB      171             0.0000000000
     21363       171  PMPG      H11Y          -49.1649155895       37.7298431309        5.8405776511  MEMB      171             0.0000000000
     21364       171  PMPG      C312          -48.6465802967       39.4719459859        4.7378979447  MEMB      171             0.0000000000
     21365       171  PMPG      H12X          -47.5435828418       39.3573828312        4.8056715045  MEMB      171             0.0000000000
     21366       171  PMPG      H12Y          -48.8968542899       40.5543772293        4.7430390987  MEMB      171             0.0000000000
     21367       171  PMPG      C313          -49.1098083949       38.9266844624        3.3873765733  MEMB      171             0.0000000000
     21368       171  PMPG      H13X          -48.7343634279       39.5449599176        2.5441103998  MEMB      171             0.0000000000
     21369       171  PMPG      H13Y          -50.2072106551       38.9252779891        3.2140937452  MEMB      171             0.0000000000
     21370       171  PMPG      C314          -48.8130634571       37.4405037707        3.2551309625  MEMB      171             0.0000000000
     21371       171  PMPG      H14X          -49.2644162485       36.9296711069        4.1324285980  MEMB      171             0.0000000000
     21372       171  PMPG      H14Y          -47.7474866622       37.2458916941        3.5020993177  MEMB      171             0.0000000000
     21373       171  PMPG      C315          -49.2815897638       36.6497793783        1.9634127610  MEMB      171             0.0000000000
     21374       171  PMPG      H15X          -50.3833718713       36.5483587460        1.8628553199  MEMB      171             0.0000000000
     21375       171  PMPG      H15Y          -48.9411352780       35.6010860522        1.8268334344  MEMB      171             0.0000000000
     21376       171  PMPG      C316          -48.8502581765       37.4964479926        0.7177120953  MEMB      171             0.0000000000
     21377       171  PMPG      H16X          -47.7595838809       37.6799544963        0.6124701023  MEMB      171             0.0000000000
     21378       171  PMPG      H16Y          -49.4430930062       38.4360244315        0.7257101257  MEMB      171             0.0000000000
     21379       171  PMPG      H16Z          -49.1167309052       36.9821408623       -0.2303385565  MEMB      171             0.0000000000
     21380       172  PMPE      N             -41.6466677387      -45.8712769956       20.1982842872  MEMB      172             0.0000000000
     21381       172  PMPE      HN1           -41.9439791978      -45.5585056923       19.2520390789  MEMB      172             0.0000000000
     21382       172  PMPE      HN2           -42.0666945108      -46.7442451939       20.5765748530  MEMB      172             0.0000000000
     21383       172  PMPE      HN3           -41.8203482015      -45.0508695107       20.8133995613  MEMB      172             0.0000000000
     21384       172  PMPE      C12           -40.1399377832      -46.0194696572       20.3104577638  MEMB      172             0.0000000000
     21385       172  PMPE      H12A          -39.7459715927      -46.9527198399       19.8542168880  MEMB      172             0.0000000000
     21386       172  PMPE      H12B          -39.7665455015      -46.0445501542       21.3565314398  MEMB      172             0.0000000000
     21387       172  PMPE      C11           -39.3655544527      -44.8164828119       19.6600860385  MEMB      172             0.0000000000
     21388       172  PMPE      H11A          -39.6302435162      -43.8511729189       20.1422039934  MEMB      172             0.0000000000
     21389       172  PMPE      H11B          -39.7694451703      -44.8468245336       18.6255462070  MEMB      172             0.0000000000
     21390       172  PMPE      P             -37.1588806416      -45.4444932687       18.4254310551  MEMB      172             0.0000000000
     21391       172  PMPE      O13           -37.3952146154      -46.7749194343       17.8632065876  MEMB      172             0.0000000000
     21392       172  PMPE      O14           -35.7355083182      -45.0808205504       18.6050649387  MEMB      172             0.0000000000
     21393       172  PMPE      O11           -37.8102485081      -44.5532883488       17.2089348044  MEMB      172             0.0000000000
     21394       172  PMPE      O12           -37.9466775444      -45.1095001314       19.7285345268  MEMB      172             0.0000000000
     21395       172  PMPE      C1            -37.8017233765      -43.1444910449       17.3465365158  MEMB      172             0.0000000000
     21396       172  PMPE      HA            -37.0695299169      -42.7622184286       18.0895582394  MEMB      172             0.0000000000
     21397       172  PMPE      HB            -38.7781439331      -42.9020715992       17.8178714896  MEMB      172             0.0000000000
     21398       172  PMPE      C2            -37.7831002802      -42.5012763313       15.9964636179  MEMB      172             0.0000000000
     21399       172  PMPE      HS            -38.0851286550      -41.4548526375       16.2157746716  MEMB      172             0.0000000000
     21400       172  PMPE      O21           -38.8283036476      -43.1250538877       15.1966473301  MEMB      172             0.0000000000
     21401       172  PMPE      C21           -38.8844099164      -42.7701706372       13.9613392667  MEMB      172             0.0000000000
     21402       172  PMPE      O22           -38.4368242061      -41.7508382290       13.4411062218  MEMB      172             0.0000000000
     21403       172  PMPE      C22           -39.9522036551      -43.5160035766       13.1918796639  MEMB      172             0.0000000000
     21404       172  PMPE      H2R           -40.3445084545      -42.8063608759       12.4323894477  MEMB      172             0.0000000000
     21405       172  PMPE      H2S           -40.8032450096      -43.8441959005       13.8261816222  MEMB      172             0.0000000000
     21406       172  PMPE      C3            -36.3428938474      -42.5726193537       15.3257078629  MEMB      172             0.0000000000
     21407       172  PMPE      HX            -35.6133483913      -42.1970937273       16.0747504777  MEMB      172             0.0000000000
     21408       172  PMPE      HY            -36.2662646056      -41.9620618906       14.4006844794  MEMB      172             0.0000000000
     21409       172  PMPE      O31           -36.1350464319      -43.9577343707       15.0544454322  MEMB      172             0.0000000000
     21410       172  PMPE      C31           -35.2259049280      -44.1475907729       14.0444217023  MEMB      172             0.0000000000
     21411       172  PMPE      O32           -34.5926215271      -43.3097543042       13.4528761870  MEMB      172             0.0000000000
     21412       172  PMPE      C32           -35.2161512359      -45.6940705314       13.6874489853  MEMB      172             0.0000000000
     21413       172  PMPE      H2X           -36.0821614889      -46.2970979595       14.0348755499  MEMB      172             0.0000000000
     21414       172  PMPE      H2Y           -34.3352450261      -46.1167927168       14.2162508781  MEMB      172             0.0000000000
     21415       172  PMPE      C23           -39.3060220995      -44.7345792421       12.6101709370  MEMB      172             0.0000000000
     21416       172  PMPE      H3R           -39.0430168809      -45.3689180178       13.4835342072  MEMB      172             0.0000000000
     21417       172  PMPE      H3S           -38.4174712011      -44.4406744728       12.0114901949  MEMB      172             0.0000000000
     21418       172  PMPE      C24           -40.0993023103      -45.5667092349       11.6351398550  MEMB      172             0.0000000000
     21419       172  PMPE      H4R           -40.9367730361      -45.9472905962       12.2581339177  MEMB      172             0.0000000000
     21420       172  PMPE      H4S           -39.4860740485      -46.3878160101       11.2061225046  MEMB      172             0.0000000000
     21421       172  PMPE      C25           -40.5275403835      -44.8369697167       10.3144470189  MEMB      172             0.0000000000
     21422       172  PMPE      H5R           -39.5664689986      -44.6097924006        9.8054746148  MEMB      172             0.0000000000
     21423       172  PMPE      H5S           -40.9391617192      -43.8735612551       10.6842211276  MEMB      172             0.0000000000
     21424       172  PMPE      C26           -41.5039317417      -45.7449652382        9.5231880406  MEMB      172             0.0000000000
     21425       172  PMPE      H6R           -42.0942739839      -45.1484408705        8.7951936661  MEMB      172             0.0000000000
     21426       172  PMPE      H6S           -42.2247181685      -46.0547513439       10.3098400217  MEMB      172             0.0000000000
     21427       172  PMPE      C27           -40.9669034390      -47.1384878179        9.0790454409  MEMB      172             0.0000000000
     21428       172  PMPE      H7R           -40.6778038835      -47.5562383892       10.0670877936  MEMB      172             0.0000000000
     21429       172  PMPE      H7S           -40.1485518297      -47.1371395266        8.3276340261  MEMB      172             0.0000000000
     21430       172  PMPE      C28           -42.1506438819      -48.0755358343        8.5350752836  MEMB      172             0.0000000000
     21431       172  PMPE      H8R           -42.8424470077      -48.4492564780        9.3199719364  MEMB      172             0.0000000000
     21432       172  PMPE      H8S           -41.5990677217      -48.9923824218        8.2359482747  MEMB      172             0.0000000000
     21433       172  PMPE      C29           -42.9814467508      -47.4431142726        7.3510328842  MEMB      172             0.0000000000
     21434       172  PMPE      H9R           -43.8565464973      -46.8317141736        7.6587849290  MEMB      172             0.0000000000
     21435       172  PMPE      C217          -43.4406159081      -48.5428470418        6.4034858835  MEMB      172             0.0000000000
     21436       172  PMPE      H17R          -44.4398057474      -48.4336192353        6.0002769090  MEMB      172             0.0000000000
     21437       172  PMPE      H17S          -42.8953779313      -49.4778494772        6.3664056362  MEMB      172             0.0000000000
     21438       172  PMPE      C210          -42.6182619987      -47.4436099396        5.8794842674  MEMB      172             0.0000000000
     21439       172  PMPE      H10R          -43.1126938070      -46.6200196856        5.3213114276  MEMB      172             0.0000000000
     21440       172  PMPE      C211          -41.1720176458      -47.8330958943        5.5638608570  MEMB      172             0.0000000000
     21441       172  PMPE      H11R          -41.1031604083      -48.9222731188        5.7718812987  MEMB      172             0.0000000000
     21442       172  PMPE      H11S          -40.4271128260      -47.3284939860        6.2156383494  MEMB      172             0.0000000000
     21443       172  PMPE      C212          -40.8161110045      -47.5698376862        4.0667203710  MEMB      172             0.0000000000
     21444       172  PMPE      H12R          -39.8466691186      -48.0567355656        3.8270669342  MEMB      172             0.0000000000
     21445       172  PMPE      H12S          -40.4594621607      -46.5220317002        3.9706727951  MEMB      172             0.0000000000
     21446       172  PMPE      C213          -41.8789130206      -47.8197506508        3.0041208826  MEMB      172             0.0000000000
     21447       172  PMPE      H13R          -42.8166997791      -47.3081018887        3.3092317825  MEMB      172             0.0000000000
     21448       172  PMPE      H13S          -42.0830580058      -48.9101981708        3.0638703193  MEMB      172             0.0000000000
     21449       172  PMPE      C214          -41.4109987504      -47.1445578379        1.6960955959  MEMB      172             0.0000000000
     21450       172  PMPE      H14R          -41.2641185997      -46.0526866149        1.8394984677  MEMB      172             0.0000000000
     21451       172  PMPE      H14S          -42.1585822584      -47.3474927908        0.8996934090  MEMB      172             0.0000000000
     21452       172  PMPE      C215          -40.0341893390      -47.5657201520        1.1607873750  MEMB      172             0.0000000000
     21453       172  PMPE      H15R          -39.2623076290      -47.1944308157        1.8683620219  MEMB      172             0.0000000000
     21454       172  PMPE      H15S          -39.7788330979      -47.0423018067        0.2146654886  MEMB      172             0.0000000000
     21455       172  PMPE      C216          -39.8240480618      -49.0890772818        0.8835662312  MEMB      172             0.0000000000
     21456       172  PMPE      H16R          -38.7331786829      -49.2414245179        0.7382569959  MEMB      172             0.0000000000
     21457       172  PMPE      H16S          -40.2282833937      -49.6992248765        1.7194105571  MEMB      172             0.0000000000
     21458       172  PMPE      H16T          -40.3492315855      -49.3168371575       -0.0686035857  MEMB      172             0.0000000000
     21459       172  PMPE      C33           -34.9002727437      -45.9030404208       12.1603345384  MEMB      172             0.0000000000
     21460       172  PMPE      H3X           -34.4548040601      -46.9183902318       12.0900272694  MEMB      172             0.0000000000
     21461       172  PMPE      H3Y           -34.1057416224      -45.2049669537       11.8201361827  MEMB      172             0.0000000000
     21462       172  PMPE      C34           -36.2218216697      -45.8920996636       11.3847140328  MEMB      172             0.0000000000
     21463       172  PMPE      H4X           -36.5711105811      -44.8424366996       11.2821176525  MEMB      172             0.0000000000
     21464       172  PMPE      H4Y           -37.0092710588      -46.5183875453       11.8558914151  MEMB      172             0.0000000000
     21465       172  PMPE      C35           -36.2841949231      -46.2908804320        9.8711050661  MEMB      172             0.0000000000
     21466       172  PMPE      H5X           -37.3594704381      -46.2825218838        9.5917593380  MEMB      172             0.0000000000
     21467       172  PMPE      H5Y           -35.8252680509      -47.2960156070        9.7553031711  MEMB      172             0.0000000000
     21468       172  PMPE      C36           -35.6603548876      -45.2501758386        8.9544350845  MEMB      172             0.0000000000
     21469       172  PMPE      H6X           -34.6508691583      -45.0227681017        9.3588427636  MEMB      172             0.0000000000
     21470       172  PMPE      H6Y           -36.3120382511      -44.3542943379        8.8706126103  MEMB      172             0.0000000000
     21471       172  PMPE      C37           -35.5121280801      -45.7568789380        7.4888479079  MEMB      172             0.0000000000
     21472       172  PMPE      H7X           -34.7933421621      -46.5949693170        7.6124294674  MEMB      172             0.0000000000
     21473       172  PMPE      H7Y           -35.0353456169      -44.9408805301        6.9047705826  MEMB      172             0.0000000000
     21474       172  PMPE      C38           -36.7614164861      -46.3582988347        6.8035547181  MEMB      172             0.0000000000
     21475       172  PMPE      H8X           -37.2781266449      -47.0871409797        7.4639487164  MEMB      172             0.0000000000
     21476       172  PMPE      H8Y           -36.4708618389      -46.8380319300        5.8445159841  MEMB      172             0.0000000000
     21477       172  PMPE      C39           -37.8224836462      -45.3084264075        6.5124667000  MEMB      172             0.0000000000
     21478       172  PMPE      H9X           -38.2443912387      -45.0710530812        7.5124512730  MEMB      172             0.0000000000
     21479       172  PMPE      H9Y           -38.6635013509      -45.8326084095        6.0102287952  MEMB      172             0.0000000000
     21480       172  PMPE      C310          -37.5202128899      -43.9832046393        5.7625412235  MEMB      172             0.0000000000
     21481       172  PMPE      H10X          -36.6588461620      -43.5149410850        6.2851293493  MEMB      172             0.0000000000
     21482       172  PMPE      H10Y          -38.3578792540      -43.2799503890        5.9576555384  MEMB      172             0.0000000000
     21483       172  PMPE      C311          -37.3079151035      -44.0411916026        4.2398672673  MEMB      172             0.0000000000
     21484       172  PMPE      H11X          -36.7116480395      -44.9313696736        3.9459799301  MEMB      172             0.0000000000
     21485       172  PMPE      H11Y          -36.7006019562      -43.1329693870        4.0383122004  MEMB      172             0.0000000000
     21486       172  PMPE      C312          -38.5275114119      -43.9914859848        3.3107018517  MEMB      172             0.0000000000
     21487       172  PMPE      H12X          -38.9857855455      -42.9861569207        3.4274041897  MEMB      172             0.0000000000
     21488       172  PMPE      H12Y          -39.2454467366      -44.8034200589        3.5549411456  MEMB      172             0.0000000000
     21489       172  PMPE      C313          -38.1812812780      -44.1790482453        1.8402116368  MEMB      172             0.0000000000
     21490       172  PMPE      H13X          -39.0900260267      -44.6566503410        1.4154748834  MEMB      172             0.0000000000
     21491       172  PMPE      H13Y          -37.3046141528      -44.8613649667        1.8253925073  MEMB      172             0.0000000000
     21492       172  PMPE      C314          -37.8450646857      -42.8718831220        1.0633700821  MEMB      172             0.0000000000
     21493       172  PMPE      H14X          -36.8119814985      -42.6985497845        1.4335281197  MEMB      172             0.0000000000
     21494       172  PMPE      H14Y          -38.6103687343      -42.1170706227        1.3442420982  MEMB      172             0.0000000000
     21495       172  PMPE      C315          -38.0193609790      -42.9640946171       -0.4640380069  MEMB      172             0.0000000000
     21496       172  PMPE      H15X          -37.5744023911      -41.9950550419       -0.7759593326  MEMB      172             0.0000000000
     21497       172  PMPE      H15Y          -39.0874068899      -42.9462832536       -0.7694575048  MEMB      172             0.0000000000
     21498       172  PMPE      C316          -37.1057766204      -44.0323500828       -0.9992567451  MEMB      172             0.0000000000
     21499       172  PMPE      H16X          -37.3982378626      -44.3016870296       -2.0366791765  MEMB      172             0.0000000000
     21500       172  PMPE      H16Y          -37.0621918225      -44.9367465524       -0.3554482607  MEMB      172             0.0000000000
     21501       172  PMPE      H16Z          -36.0710125763      -43.6317989709       -1.0553222427  MEMB      172             0.0000000000
     21502       173  PMPE      N             -31.8307403685       52.8867392026       20.8563295387  MEMB      173             0.0000000000
     21503       173  PMPE      HN1           -31.5729584527       53.5590248507       20.1058760153  MEMB      173             0.0000000000
     21504       173  PMPE      HN2           -32.8278733815       52.6044858634       20.7688148361  MEMB      173             0.0000000000
     21505       173  PMPE      HN3           -31.7850937555       53.4076132382       21.7553326960  MEMB      173             0.0000000000
     21506       173  PMPE      C12           -30.9471331683       51.6604291752       20.8182749573  MEMB      173             0.0000000000
     21507       173  PMPE      H12A          -31.4774100086       50.8218573576       21.3181996565  MEMB      173             0.0000000000
     21508       173  PMPE      H12B          -30.0598608291       51.8506027570       21.4592919850  MEMB      173             0.0000000000
     21509       173  PMPE      C11           -30.5287834242       51.2588981889       19.3701016931  MEMB      173             0.0000000000
     21510       173  PMPE      H11A          -31.5177628193       51.0925375445       18.8920172850  MEMB      173             0.0000000000
     21511       173  PMPE      H11B          -30.0124716659       50.2751820224       19.3633466451  MEMB      173             0.0000000000
     21512       173  PMPE      P             -28.3275020785       52.2723807500       18.2455665632  MEMB      173             0.0000000000
     21513       173  PMPE      O13           -27.7240659722       50.8685244227       18.3306343660  MEMB      173             0.0000000000
     21514       173  PMPE      O14           -27.6032161182       53.3600820335       18.9800714706  MEMB      173             0.0000000000
     21515       173  PMPE      O11           -28.3360340413       52.6109658306       16.7057393945  MEMB      173             0.0000000000
     21516       173  PMPE      O12           -29.8209408892       52.3296038669       18.6932820185  MEMB      173             0.0000000000
     21517       173  PMPE      C1            -29.4605925654       52.7138365395       15.9171352150  MEMB      173             0.0000000000
     21518       173  PMPE      HA            -29.3792369095       53.5807274155       15.2270609561  MEMB      173             0.0000000000
     21519       173  PMPE      HB            -30.2695229347       53.1161672298       16.5637282889  MEMB      173             0.0000000000
     21520       173  PMPE      C2            -29.7825782719       51.5046798227       14.9913214636  MEMB      173             0.0000000000
     21521       173  PMPE      HS            -30.2810176633       50.7919685902       15.6826405137  MEMB      173             0.0000000000
     21522       173  PMPE      O21           -28.5226169770       50.9670700588       14.4728216031  MEMB      173             0.0000000000
     21523       173  PMPE      C21           -28.2650937618       49.6715405433       14.7296335586  MEMB      173             0.0000000000
     21524       173  PMPE      O22           -28.9483793160       48.9058528408       15.3443580088  MEMB      173             0.0000000000
     21525       173  PMPE      C22           -27.0942277579       49.3526452519       13.8973781867  MEMB      173             0.0000000000
     21526       173  PMPE      H2R           -26.1121636993       49.4670610925       14.4041131785  MEMB      173             0.0000000000
     21527       173  PMPE      H2S           -27.0763996659       49.9954713790       12.9914104856  MEMB      173             0.0000000000
     21528       173  PMPE      C3            -30.7997233327       51.7032617967       13.8360143461  MEMB      173             0.0000000000
     21529       173  PMPE      HX            -31.7828034747       52.0648073056       14.2063647391  MEMB      173             0.0000000000
     21530       173  PMPE      HY            -30.9570780034       50.6737707830       13.4490925116  MEMB      173             0.0000000000
     21531       173  PMPE      O31           -30.2609929248       52.6563738486       12.9928474484  MEMB      173             0.0000000000
     21532       173  PMPE      C31           -30.5293699946       52.6288010747       11.6959124587  MEMB      173             0.0000000000
     21533       173  PMPE      O32           -31.1990884723       51.7902256356       11.0971752818  MEMB      173             0.0000000000
     21534       173  PMPE      C32           -29.9377353421       53.8456312377       11.0202005015  MEMB      173             0.0000000000
     21535       173  PMPE      H2X           -29.2510014396       54.4071417352       11.6890975834  MEMB      173             0.0000000000
     21536       173  PMPE      H2Y           -30.7424092110       54.5686565943       10.7671096719  MEMB      173             0.0000000000
     21537       173  PMPE      C23           -27.1704663706       47.9150716212       13.3734071849  MEMB      173             0.0000000000
     21538       173  PMPE      H3R           -27.3664514738       47.1753722002       14.1788608762  MEMB      173             0.0000000000
     21539       173  PMPE      H3S           -26.1981486908       47.5372273820       12.9911077640  MEMB      173             0.0000000000
     21540       173  PMPE      C24           -28.3812338393       47.6332107644       12.4886928008  MEMB      173             0.0000000000
     21541       173  PMPE      H4R           -29.2220834882       48.2876453914       12.8033486771  MEMB      173             0.0000000000
     21542       173  PMPE      H4S           -28.8175900452       46.6115123794       12.4955267278  MEMB      173             0.0000000000
     21543       173  PMPE      C25           -28.1430033346       48.0556847685       10.9984677689  MEMB      173             0.0000000000
     21544       173  PMPE      H5R           -27.2517722970       47.4975584095       10.6399669432  MEMB      173             0.0000000000
     21545       173  PMPE      H5S           -27.7376277103       49.0900866741       11.0005379524  MEMB      173             0.0000000000
     21546       173  PMPE      C26           -29.4000946906       47.7596118177       10.0904079440  MEMB      173             0.0000000000
     21547       173  PMPE      H6R           -30.1539416400       48.5057083149       10.4211283277  MEMB      173             0.0000000000
     21548       173  PMPE      H6S           -29.8858972357       46.7831530972       10.3021740219  MEMB      173             0.0000000000
     21549       173  PMPE      C27           -29.0818148357       47.8176384738        8.6525784418  MEMB      173             0.0000000000
     21550       173  PMPE      H7R           -29.9863002306       47.9277954985        8.0168953884  MEMB      173             0.0000000000
     21551       173  PMPE      H7S           -28.6400586286       46.8300773322        8.3998026127  MEMB      173             0.0000000000
     21552       173  PMPE      C28           -28.0159928809       48.8511433101        8.1719460554  MEMB      173             0.0000000000
     21553       173  PMPE      H8R           -27.1052903183       48.5027893830        8.7044791117  MEMB      173             0.0000000000
     21554       173  PMPE      H8S           -28.2134557869       49.9165137669        8.4175372275  MEMB      173             0.0000000000
     21555       173  PMPE      C29           -27.6060159797       48.6462350104        6.7261462433  MEMB      173             0.0000000000
     21556       173  PMPE      H9R           -27.5705416081       47.6047619589        6.3409234910  MEMB      173             0.0000000000
     21557       173  PMPE      C217          -26.8816786397       49.7375629441        5.8951544640  MEMB      173             0.0000000000
     21558       173  PMPE      H17R          -26.1766146503       49.1795722337        5.2914823244  MEMB      173             0.0000000000
     21559       173  PMPE      H17S          -26.6996703069       50.6475281856        6.4534784600  MEMB      173             0.0000000000
     21560       173  PMPE      C210          -28.4567430752       49.4239313032        5.7617539714  MEMB      173             0.0000000000
     21561       173  PMPE      H10R          -28.5693236056       49.1060908473        4.7031592957  MEMB      173             0.0000000000
     21562       173  PMPE      C211          -29.2657327193       50.6991673984        6.1561471657  MEMB      173             0.0000000000
     21563       173  PMPE      H11R          -28.7755683250       51.5297284100        5.6045775276  MEMB      173             0.0000000000
     21564       173  PMPE      H11S          -29.2534722687       50.9447207796        7.2396015897  MEMB      173             0.0000000000
     21565       173  PMPE      C212          -30.6698351280       50.4712335632        5.7504220591  MEMB      173             0.0000000000
     21566       173  PMPE      H12R          -31.1403391600       49.7657911967        6.4682647397  MEMB      173             0.0000000000
     21567       173  PMPE      H12S          -30.9205822510       50.0572602450        4.7503850646  MEMB      173             0.0000000000
     21568       173  PMPE      C213          -31.4291447736       51.7827192438        5.9177753150  MEMB      173             0.0000000000
     21569       173  PMPE      H13R          -31.1053671212       52.2538011538        6.8704405575  MEMB      173             0.0000000000
     21570       173  PMPE      H13S          -32.5130649190       51.5624742053        6.0223242816  MEMB      173             0.0000000000
     21571       173  PMPE      C214          -31.1760470888       52.8166657971        4.8416149651  MEMB      173             0.0000000000
     21572       173  PMPE      H14R          -30.2235683137       53.3812582930        4.9329413793  MEMB      173             0.0000000000
     21573       173  PMPE      H14S          -31.9797235774       53.5737483252        4.9651090798  MEMB      173             0.0000000000
     21574       173  PMPE      C215          -31.2884157379       52.4218863989        3.3397054997  MEMB      173             0.0000000000
     21575       173  PMPE      H15R          -32.3407900891       52.1342511152        3.1297169700  MEMB      173             0.0000000000
     21576       173  PMPE      H15S          -30.4538365500       51.7231159284        3.1171775757  MEMB      173             0.0000000000
     21577       173  PMPE      C216          -31.1609418371       53.6711265266        2.3836286622  MEMB      173             0.0000000000
     21578       173  PMPE      H16R          -31.2616163920       53.2081015195        1.3787437064  MEMB      173             0.0000000000
     21579       173  PMPE      H16S          -32.1049343370       54.2558658833        2.3478721839  MEMB      173             0.0000000000
     21580       173  PMPE      H16T          -30.1742890363       54.1707004771        2.4897566572  MEMB      173             0.0000000000
     21581       173  PMPE      C33           -29.3530223035       53.4926069709        9.6305934117  MEMB      173             0.0000000000
     21582       173  PMPE      H3X           -30.1286476313       53.0579370039        8.9644189738  MEMB      173             0.0000000000
     21583       173  PMPE      H3Y           -28.5620403669       52.7191961948        9.7330840253  MEMB      173             0.0000000000
     21584       173  PMPE      C34           -28.6642999622       54.6341795397        8.8152223623  MEMB      173             0.0000000000
     21585       173  PMPE      H4X           -28.0122771001       55.2298924835        9.4892495220  MEMB      173             0.0000000000
     21586       173  PMPE      H4Y           -29.4290248722       55.3256989708        8.4013165802  MEMB      173             0.0000000000
     21587       173  PMPE      C35           -27.8854912728       54.1128100777        7.6384388927  MEMB      173             0.0000000000
     21588       173  PMPE      H5X           -28.6855284649       53.6081091297        7.0557394327  MEMB      173             0.0000000000
     21589       173  PMPE      H5Y           -27.0242922703       53.5538056746        8.0629049378  MEMB      173             0.0000000000
     21590       173  PMPE      C36           -27.2053091992       55.3079842356        6.8534771472  MEMB      173             0.0000000000
     21591       173  PMPE      H6X           -26.4853720173       55.7532413811        7.5730306889  MEMB      173             0.0000000000
     21592       173  PMPE      H6Y           -27.9896778070       56.0154351950        6.5090937535  MEMB      173             0.0000000000
     21593       173  PMPE      C37           -26.3868769004       54.7189325225        5.7171179594  MEMB      173             0.0000000000
     21594       173  PMPE      H7X           -25.5114571191       54.2059883620        6.1697210186  MEMB      173             0.0000000000
     21595       173  PMPE      H7Y           -25.8486821435       55.4258923629        5.0501282047  MEMB      173             0.0000000000
     21596       173  PMPE      C38           -27.1096514034       53.5872680769        4.8277615393  MEMB      173             0.0000000000
     21597       173  PMPE      H8X           -28.1309790612       53.9962339364        4.6729788830  MEMB      173             0.0000000000
     21598       173  PMPE      H8Y           -27.1413505758       52.7777728350        5.5880467964  MEMB      173             0.0000000000
     21599       173  PMPE      C39           -26.4115604812       53.2368680410        3.5467405768  MEMB      173             0.0000000000
     21600       173  PMPE      H9X           -25.4138114140       52.9019194710        3.9025875627  MEMB      173             0.0000000000
     21601       173  PMPE      H9Y           -26.3362826649       54.1331042463        2.8945024339  MEMB      173             0.0000000000
     21602       173  PMPE      C310          -27.1933709769       52.1241529009        2.8832589642  MEMB      173             0.0000000000
     21603       173  PMPE      H10X          -28.1683098459       52.5485129510        2.5611814172  MEMB      173             0.0000000000
     21604       173  PMPE      H10Y          -27.4417882541       51.3119627426        3.5994688005  MEMB      173             0.0000000000
     21605       173  PMPE      C311          -26.4140901033       51.4595512347        1.7786576198  MEMB      173             0.0000000000
     21606       173  PMPE      H11X          -25.4026602927       51.2499697797        2.1878107280  MEMB      173             0.0000000000
     21607       173  PMPE      H11Y          -26.3843833384       52.2106378352        0.9605446359  MEMB      173             0.0000000000
     21608       173  PMPE      C312          -27.1048822455       50.2711901024        1.1753029392  MEMB      173             0.0000000000
     21609       173  PMPE      H12X          -26.5293711760       50.1596909829        0.2315465691  MEMB      173             0.0000000000
     21610       173  PMPE      H12Y          -28.1795756804       50.4297927710        0.9424938036  MEMB      173             0.0000000000
     21611       173  PMPE      C313          -27.0632837565       49.0088322696        2.0156480454  MEMB      173             0.0000000000
     21612       173  PMPE      H13X          -27.7317831733       49.0957807644        2.8987511246  MEMB      173             0.0000000000
     21613       173  PMPE      H13Y          -26.0184239128       48.9015007550        2.3776832252  MEMB      173             0.0000000000
     21614       173  PMPE      C314          -27.6061452526       47.5995098759        1.3688386302  MEMB      173             0.0000000000
     21615       173  PMPE      H14X          -28.6769557994       47.7411498726        1.1087933508  MEMB      173             0.0000000000
     21616       173  PMPE      H14Y          -27.4525911116       46.9271063668        2.2398236704  MEMB      173             0.0000000000
     21617       173  PMPE      C315          -26.7854823431       47.0650818021        0.2365642044  MEMB      173             0.0000000000
     21618       173  PMPE      H15X          -27.1105745319       47.6370432030       -0.6586993150  MEMB      173             0.0000000000
     21619       173  PMPE      H15Y          -26.9129495919       45.9839006715        0.0149319680  MEMB      173             0.0000000000
     21620       173  PMPE      C316          -25.2205145058       47.1646436449        0.4430716970  MEMB      173             0.0000000000
     21621       173  PMPE      H16X          -24.7109149379       46.7274470245       -0.4420762396  MEMB      173             0.0000000000
     21622       173  PMPE      H16Y          -24.7799478935       46.7165846262        1.3592952591  MEMB      173             0.0000000000
     21623       173  PMPE      H16Z          -24.8753549489       48.2204137262        0.4662164704  MEMB      173             0.0000000000
     21624       174  PMPE      N              34.7643402419       51.5979097607       18.0280634354  MEMB      174             0.0000000000
     21625       174  PMPE      HN1            34.8329582048       52.6328587043       18.1040381807  MEMB      174             0.0000000000
     21626       174  PMPE      HN2            35.7161223780       51.3317004528       17.7042682343  MEMB      174             0.0000000000
     21627       174  PMPE      HN3            33.9317974162       51.3184919167       17.4709297617  MEMB      174             0.0000000000
     21628       174  PMPE      C12            34.6391334047       51.1000522985       19.4482820923  MEMB      174             0.0000000000
     21629       174  PMPE      H12A           35.1554640491       51.8472935092       20.0880902325  MEMB      174             0.0000000000
     21630       174  PMPE      H12B           35.2452301843       50.1698293544       19.4889387429  MEMB      174             0.0000000000
     21631       174  PMPE      C11            33.2175527571       50.8071689484       19.9238714540  MEMB      174             0.0000000000
     21632       174  PMPE      H11A           33.3848587861       50.5465299975       20.9908282742  MEMB      174             0.0000000000
     21633       174  PMPE      H11B           32.8318525210       49.9791171208       19.2915056882  MEMB      174             0.0000000000
     21634       174  PMPE      P              31.0222031662       51.8050067668       18.9027478296  MEMB      174             0.0000000000
     21635       174  PMPE      O13            30.2280781578       53.0238232012       19.2843559758  MEMB      174             0.0000000000
     21636       174  PMPE      O14            30.3560754685       50.5028028136       19.0381514694  MEMB      174             0.0000000000
     21637       174  PMPE      O11            31.6050713300       51.9483699629       17.4729100809  MEMB      174             0.0000000000
     21638       174  PMPE      O12            32.2379062780       51.8453318475       19.9016176652  MEMB      174             0.0000000000
     21639       174  PMPE      C1             31.3070127348       53.1047977424       16.6701261066  MEMB      174             0.0000000000
     21640       174  PMPE      HA             32.0930223703       53.2016956392       15.8909465847  MEMB      174             0.0000000000
     21641       174  PMPE      HB             31.3580358192       53.9887922555       17.3411487287  MEMB      174             0.0000000000
     21642       174  PMPE      C2             29.8469965249       53.0166600672       16.0753924286  MEMB      174             0.0000000000
     21643       174  PMPE      HS             29.0954037251       53.2028925893       16.8721022163  MEMB      174             0.0000000000
     21644       174  PMPE      O21            29.6589372455       51.6676308936       15.6119033463  MEMB      174             0.0000000000
     21645       174  PMPE      C21            28.4325389309       51.3100642819       15.3101791956  MEMB      174             0.0000000000
     21646       174  PMPE      O22            27.4282660181       51.9457581677       15.5347545398  MEMB      174             0.0000000000
     21647       174  PMPE      C22            28.3781521198       49.9211071777       14.6579050974  MEMB      174             0.0000000000
     21648       174  PMPE      H2R            27.7509418088       50.0253459983       13.7468276791  MEMB      174             0.0000000000
     21649       174  PMPE      H2S            27.9595534400       49.2387775778       15.4283095465  MEMB      174             0.0000000000
     21650       174  PMPE      C3             29.5942580614       54.0821157371       14.9669373325  MEMB      174             0.0000000000
     21651       174  PMPE      HX             29.9313041832       55.0307341474       15.4368775112  MEMB      174             0.0000000000
     21652       174  PMPE      HY             28.5412159221       54.2055775869       14.6350030213  MEMB      174             0.0000000000
     21653       174  PMPE      O31            30.3076520895       53.7126498779       13.7887773994  MEMB      174             0.0000000000
     21654       174  PMPE      C31            31.2155520451       54.6372384831       13.3488424575  MEMB      174             0.0000000000
     21655       174  PMPE      O32            31.1716524020       55.8124830956       13.5580889423  MEMB      174             0.0000000000
     21656       174  PMPE      C32            32.2401244273       54.1356609932       12.4273091226  MEMB      174             0.0000000000
     21657       174  PMPE      H2X            31.9257038794       53.3067072999       11.7577595563  MEMB      174             0.0000000000
     21658       174  PMPE      H2Y            32.9024098897       53.5681343805       13.1155043882  MEMB      174             0.0000000000
     21659       174  PMPE      C23            29.7359269574       49.3682295377       14.2569100925  MEMB      174             0.0000000000
     21660       174  PMPE      H3R            29.6506225626       48.2801552198       14.0492116914  MEMB      174             0.0000000000
     21661       174  PMPE      H3S            30.4668817965       49.4785408123       15.0862817865  MEMB      174             0.0000000000
     21662       174  PMPE      C24            30.3057222612       49.9810258481       12.9333594913  MEMB      174             0.0000000000
     21663       174  PMPE      H4R            30.3675145165       51.0902569505       12.9438121202  MEMB      174             0.0000000000
     21664       174  PMPE      H4S            29.6612858387       49.7093860605       12.0700900208  MEMB      174             0.0000000000
     21665       174  PMPE      C25            31.8085212741       49.6562214478       12.5855783494  MEMB      174             0.0000000000
     21666       174  PMPE      H5R            32.1280334263       48.5921588588       12.5836347424  MEMB      174             0.0000000000
     21667       174  PMPE      H5S            32.5193214923       50.1170793036       13.3043924960  MEMB      174             0.0000000000
     21668       174  PMPE      C26            32.1906142566       50.1574752071       11.1945422116  MEMB      174             0.0000000000
     21669       174  PMPE      H6R            31.9657376391       51.2423964349       11.1127045754  MEMB      174             0.0000000000
     21670       174  PMPE      H6S            31.4660679641       49.6807350477       10.5002273527  MEMB      174             0.0000000000
     21671       174  PMPE      C27            33.5419817562       49.9813785783       10.7724712590  MEMB      174             0.0000000000
     21672       174  PMPE      H7R            33.8208008738       48.9852148414       11.1777350662  MEMB      174             0.0000000000
     21673       174  PMPE      H7S            34.1734151207       50.7415807275       11.2801185579  MEMB      174             0.0000000000
     21674       174  PMPE      C28            33.7726817589       50.2670974439        9.2992644231  MEMB      174             0.0000000000
     21675       174  PMPE      H8R            33.6603335041       51.3582983292        9.1232555159  MEMB      174             0.0000000000
     21676       174  PMPE      H8S            32.9803555473       49.7619719572        8.7064842188  MEMB      174             0.0000000000
     21677       174  PMPE      C29            35.1598782706       49.7440888502        8.8752653406  MEMB      174             0.0000000000
     21678       174  PMPE      H9R            35.3477845876       48.6500672630        8.9214108230  MEMB      174             0.0000000000
     21679       174  PMPE      C217           36.1906586135       50.5323619639        9.5526463477  MEMB      174             0.0000000000
     21680       174  PMPE      H17R           37.0974282638       50.0660950436        9.9176842457  MEMB      174             0.0000000000
     21681       174  PMPE      H17S           35.9467269281       51.4436049319       10.0846448120  MEMB      174             0.0000000000
     21682       174  PMPE      C210           36.0897779819       50.5809175661        8.0108530654  MEMB      174             0.0000000000
     21683       174  PMPE      H10R           36.9569375288       50.0280540843        7.5904999429  MEMB      174             0.0000000000
     21684       174  PMPE      C211           35.7928722380       51.8676471284        7.2623155770  MEMB      174             0.0000000000
     21685       174  PMPE      H11R           36.6746580168       52.3611237008        6.8005197553  MEMB      174             0.0000000000
     21686       174  PMPE      H11S           35.5318706871       52.6665442834        7.9889253339  MEMB      174             0.0000000000
     21687       174  PMPE      C212           34.6328186040       51.7632510000        6.2989696491  MEMB      174             0.0000000000
     21688       174  PMPE      H12R           34.3245547857       52.8032768665        6.0588853201  MEMB      174             0.0000000000
     21689       174  PMPE      H12S           33.7590772500       51.2117735175        6.7073447783  MEMB      174             0.0000000000
     21690       174  PMPE      C213           34.9851903969       51.1024291719        4.9571906823  MEMB      174             0.0000000000
     21691       174  PMPE      H13R           35.2139969795       50.0197848910        5.0564378567  MEMB      174             0.0000000000
     21692       174  PMPE      H13S           35.8474124671       51.6348425019        4.5017461827  MEMB      174             0.0000000000
     21693       174  PMPE      C214           33.9042395721       51.2988637144        3.8664453158  MEMB      174             0.0000000000
     21694       174  PMPE      H14R           33.5470782879       52.3327532923        3.6719480580  MEMB      174             0.0000000000
     21695       174  PMPE      H14S           33.0752028148       50.6135464121        4.1445811692  MEMB      174             0.0000000000
     21696       174  PMPE      C215           34.2242304571       50.8312710144        2.4136404246  MEMB      174             0.0000000000
     21697       174  PMPE      H15R           33.3583488483       51.1559420661        1.7978808614  MEMB      174             0.0000000000
     21698       174  PMPE      H15S           34.1679429550       49.7217044800        2.4097859935  MEMB      174             0.0000000000
     21699       174  PMPE      C216           35.4896602550       51.3748124986        1.8139245280  MEMB      174             0.0000000000
     21700       174  PMPE      H16R           36.4365403675       50.9537413627        2.2144719973  MEMB      174             0.0000000000
     21701       174  PMPE      H16S           35.4802287162       51.3904871284        0.7030744489  MEMB      174             0.0000000000
     21702       174  PMPE      H16T           35.5807377513       52.4255370924        2.1632137967  MEMB      174             0.0000000000
     21703       174  PMPE      C33            33.0942197587       55.1928300692       11.6304351569  MEMB      174             0.0000000000
     21704       174  PMPE      H3X            34.0229720935       54.6081905063       11.4574130846  MEMB      174             0.0000000000
     21705       174  PMPE      H3Y            33.4111618955       56.0503239629       12.2617610877  MEMB      174             0.0000000000
     21706       174  PMPE      C34            32.3631134932       55.5955370810       10.2873356439  MEMB      174             0.0000000000
     21707       174  PMPE      H4X            33.1479196239       56.2830462782        9.9055871936  MEMB      174             0.0000000000
     21708       174  PMPE      H4Y            31.3759896993       56.1008787364       10.3546945499  MEMB      174             0.0000000000
     21709       174  PMPE      C35            32.2668608341       54.4646695516        9.2188610561  MEMB      174             0.0000000000
     21710       174  PMPE      H5X            31.2358722665       54.0613898957        9.3123976879  MEMB      174             0.0000000000
     21711       174  PMPE      H5Y            33.0243222949       53.6953853195        9.4811112467  MEMB      174             0.0000000000
     21712       174  PMPE      C36            32.5406136853       54.9233865392        7.7767169509  MEMB      174             0.0000000000
     21713       174  PMPE      H6X            32.7502606673       53.9981824527        7.1984719142  MEMB      174             0.0000000000
     21714       174  PMPE      H6Y            33.4295777506       55.5767096979        7.9079895160  MEMB      174             0.0000000000
     21715       174  PMPE      C37            31.4110821087       55.6793470327        7.1786983449  MEMB      174             0.0000000000
     21716       174  PMPE      H7X            31.2793750321       56.6268082338        7.7437569729  MEMB      174             0.0000000000
     21717       174  PMPE      H7Y            30.4888826766       55.0726914711        7.3045482386  MEMB      174             0.0000000000
     21718       174  PMPE      C38            31.5911924215       56.1100980029        5.7532584012  MEMB      174             0.0000000000
     21719       174  PMPE      H8X            32.3471339957       56.9160434751        5.6378225470  MEMB      174             0.0000000000
     21720       174  PMPE      H8Y            30.6075870682       56.6032640215        5.5995404021  MEMB      174             0.0000000000
     21721       174  PMPE      C39            31.7791764965       54.8627207786        4.7733587006  MEMB      174             0.0000000000
     21722       174  PMPE      H9X            32.7450753156       54.3187307124        4.8470841900  MEMB      174             0.0000000000
     21723       174  PMPE      H9Y            31.7938013852       55.1840312009        3.7099364767  MEMB      174             0.0000000000
     21724       174  PMPE      C310           30.6536610953       53.7571981323        4.8412814962  MEMB      174             0.0000000000
     21725       174  PMPE      H10X           29.6361555151       54.1925900102        4.9384275189  MEMB      174             0.0000000000
     21726       174  PMPE      H10Y           30.8514164759       53.1268871949        5.7345465763  MEMB      174             0.0000000000
     21727       174  PMPE      C311           30.6595215521       52.8821685690        3.5964410722  MEMB      174             0.0000000000
     21728       174  PMPE      H11X           31.4045692568       52.0592568793        3.5512556864  MEMB      174             0.0000000000
     21729       174  PMPE      H11Y           30.7218585867       53.5341881914        2.6990524924  MEMB      174             0.0000000000
     21730       174  PMPE      C312           29.3897925894       51.9858369215        3.5395625668  MEMB      174             0.0000000000
     21731       174  PMPE      H12X           28.4274441509       52.5019183675        3.7441766005  MEMB      174             0.0000000000
     21732       174  PMPE      H12Y           29.5851661082       51.0859479226        4.1611335304  MEMB      174             0.0000000000
     21733       174  PMPE      C313           29.1554216868       51.4151846068        2.1302559146  MEMB      174             0.0000000000
     21734       174  PMPE      H13X           29.3759194296       52.1543604923        1.3306798074  MEMB      174             0.0000000000
     21735       174  PMPE      H13Y           28.1578770652       50.9262655732        2.1166940789  MEMB      174             0.0000000000
     21736       174  PMPE      C314           30.1334715332       50.1973574131        1.9068309692  MEMB      174             0.0000000000
     21737       174  PMPE      H14X           29.8441334877       49.4816694200        2.7058266071  MEMB      174             0.0000000000
     21738       174  PMPE      H14Y           31.2238561016       50.4099170587        1.8926727324  MEMB      174             0.0000000000
     21739       174  PMPE      C315           29.9578853339       49.3512729635        0.6585921070  MEMB      174             0.0000000000
     21740       174  PMPE      H15X           28.9195169083       49.1026117455        0.3515418505  MEMB      174             0.0000000000
     21741       174  PMPE      H15Y           30.4283655743       48.3633200300        0.8507319785  MEMB      174             0.0000000000
     21742       174  PMPE      C316           30.6342671700       49.9654493163       -0.5538286802  MEMB      174             0.0000000000
     21743       174  PMPE      H16X           30.5595080595       49.3828796518       -1.4968792629  MEMB      174             0.0000000000
     21744       174  PMPE      H16Y           31.6881626064       50.0946323651       -0.2268157164  MEMB      174             0.0000000000
     21745       174  PMPE      H16Z           30.4165020339       51.0330306479       -0.7710126623  MEMB      174             0.0000000000
     21746       175  PMPG      C13            26.5769443971      -55.3614514724       20.8772780624  MEMB      175             0.0000000000
     21747       175  PMPG      H13A           27.4082045280      -56.0350486551       20.5779547446  MEMB      175             0.0000000000
     21748       175  PMPG      H13B           26.5803018242      -55.4694981656       21.9830065220  MEMB      175             0.0000000000
     21749       175  PMPG      OC3            25.3909513513      -55.9257719257       20.3528743551  MEMB      175             0.0000000000
     21750       175  PMPG      HO3            25.3950657838      -55.6110365675       19.4459429261  MEMB      175             0.0000000000
     21751       175  PMPG      C12            26.5471809191      -53.8346769033       20.4516040957  MEMB      175             0.0000000000
     21752       175  PMPG      H12A           27.5560859511      -53.4115017304       20.6656425257  MEMB      175             0.0000000000
     21753       175  PMPG      OC2            25.5938672371      -53.1222128215       21.2413058407  MEMB      175             0.0000000000
     21754       175  PMPG      HO2            25.5622996831      -52.2412952704       20.8080569542  MEMB      175             0.0000000000
     21755       175  PMPG      C11            26.2544898907      -53.7331995002       18.9563531345  MEMB      175             0.0000000000
     21756       175  PMPG      H11A           26.4029601152      -52.6830446380       18.6255171641  MEMB      175             0.0000000000
     21757       175  PMPG      H11B           25.1640102193      -53.8365057735       18.7706037154  MEMB      175             0.0000000000
     21758       175  PMPG      P              28.4598265864      -54.6119144087       17.6573339010  MEMB      175             0.0000000000
     21759       175  PMPG      O13            29.1612265565      -55.8549247300       18.0726529470  MEMB      175             0.0000000000
     21760       175  PMPG      O14            28.9621090074      -53.2579707168       18.1358642632  MEMB      175             0.0000000000
     21761       175  PMPG      O11            28.2758582377      -54.6901384491       16.1075998082  MEMB      175             0.0000000000
     21762       175  PMPG      O12            26.9125148114      -54.6831170704       18.1471335920  MEMB      175             0.0000000000
     21763       175  PMPG      C1             28.9504961466      -53.6306543007       15.3521899675  MEMB      175             0.0000000000
     21764       175  PMPG      HA             29.2323869179      -53.9680502254       14.3318848081  MEMB      175             0.0000000000
     21765       175  PMPG      HB             29.9628497570      -53.4459987764       15.7709541578  MEMB      175             0.0000000000
     21766       175  PMPG      C2             28.0023779947      -52.4098474355       15.1652945050  MEMB      175             0.0000000000
     21767       175  PMPG      HS             28.0095568698      -51.9392859336       16.1716947406  MEMB      175             0.0000000000
     21768       175  PMPG      O21            26.6767120434      -53.0051496520       15.0532529266  MEMB      175             0.0000000000
     21769       175  PMPG      C21            25.6482533020      -52.2197256866       15.3073665270  MEMB      175             0.0000000000
     21770       175  PMPG      O22            25.6610549801      -51.0025228064       15.4736328487  MEMB      175             0.0000000000
     21771       175  PMPG      C22            24.3510674110      -52.9559852815       15.2094016825  MEMB      175             0.0000000000
     21772       175  PMPG      H2R            23.4724923699      -52.4238210089       15.6327542822  MEMB      175             0.0000000000
     21773       175  PMPG      H2S            24.5538759505      -53.8985808534       15.7614012532  MEMB      175             0.0000000000
     21774       175  PMPG      C3             28.2810201772      -51.4353361492       13.9926028712  MEMB      175             0.0000000000
     21775       175  PMPG      HX             29.3066247654      -51.0529395280       14.1829429259  MEMB      175             0.0000000000
     21776       175  PMPG      HY             27.5533500246      -50.5974670345       13.9397589219  MEMB      175             0.0000000000
     21777       175  PMPG      O31            28.1898796648      -52.1838874359       12.8202779686  MEMB      175             0.0000000000
     21778       175  PMPG      C31            29.2580634551      -52.3462011420       12.1051991718  MEMB      175             0.0000000000
     21779       175  PMPG      O32            30.4109482232      -51.9980575891       12.3848642129  MEMB      175             0.0000000000
     21780       175  PMPG      C32            28.8946331280      -52.8566489246       10.7317820774  MEMB      175             0.0000000000
     21781       175  PMPG      H2X            29.3698586520      -52.0958357708       10.0763088294  MEMB      175             0.0000000000
     21782       175  PMPG      H2Y            27.7922056550      -52.8767051357       10.5955008257  MEMB      175             0.0000000000
     21783       175  PMPG      C23            24.0140541539      -53.2870592231       13.7573574742  MEMB      175             0.0000000000
     21784       175  PMPG      H3R            24.2790711250      -52.4553113607       13.0701293150  MEMB      175             0.0000000000
     21785       175  PMPG      H3S            22.9054979868      -53.3494391217       13.7965097556  MEMB      175             0.0000000000
     21786       175  PMPG      C24            24.4157486910      -54.6512045633       13.2882039455  MEMB      175             0.0000000000
     21787       175  PMPG      H4R            24.0524405365      -55.3543888665       14.0678577698  MEMB      175             0.0000000000
     21788       175  PMPG      H4S            25.5252972120      -54.6068740087       13.2527353517  MEMB      175             0.0000000000
     21789       175  PMPG      C25            23.9355950979      -55.0953593265       11.9089815003  MEMB      175             0.0000000000
     21790       175  PMPG      H5R            22.8257659954      -55.0454870248       11.8983445579  MEMB      175             0.0000000000
     21791       175  PMPG      H5S            24.2462354189      -56.1517782650       11.7613241373  MEMB      175             0.0000000000
     21792       175  PMPG      C26            24.5816753849      -54.4708962804       10.6852839264  MEMB      175             0.0000000000
     21793       175  PMPG      H6R            25.6317326793      -54.1473347819       10.8496256794  MEMB      175             0.0000000000
     21794       175  PMPG      H6S            24.0959833793      -53.4745596029       10.6095366930  MEMB      175             0.0000000000
     21795       175  PMPG      C27            24.3046162687      -55.2469039106        9.4609838628  MEMB      175             0.0000000000
     21796       175  PMPG      H7R            23.2158823713      -55.1185135628        9.2807178046  MEMB      175             0.0000000000
     21797       175  PMPG      H7S            24.5859225346      -56.3209118314        9.5021503575  MEMB      175             0.0000000000
     21798       175  PMPG      C28            25.1583491799      -54.7748304054        8.2505241788  MEMB      175             0.0000000000
     21799       175  PMPG      H8R            24.8773259523      -55.5015395553        7.4585383233  MEMB      175             0.0000000000
     21800       175  PMPG      H8S            26.2468840798      -54.9709476157        8.3551701003  MEMB      175             0.0000000000
     21801       175  PMPG      C29            24.9354058682      -53.2974561830        7.8388092964  MEMB      175             0.0000000000
     21802       175  PMPG      H9R            25.2945639536      -52.4405677798        8.4479623841  MEMB      175             0.0000000000
     21803       175  PMPG      C217           24.8552549274      -53.1284692031        6.2970313053  MEMB      175             0.0000000000
     21804       175  PMPG      H17R           25.2686208085      -52.1552733713        6.0627079861  MEMB      175             0.0000000000
     21805       175  PMPG      H17S           25.1255952791      -54.0730268806        5.8413829482  MEMB      175             0.0000000000
     21806       175  PMPG      C210           23.6080007817      -52.9998098991        7.1445456316  MEMB      175             0.0000000000
     21807       175  PMPG      H10R           23.2276729681      -51.9688584606        7.3082865091  MEMB      175             0.0000000000
     21808       175  PMPG      C211           22.4432632435      -54.0083767491        6.8735306979  MEMB      175             0.0000000000
     21809       175  PMPG      H11R           22.8490866986      -55.0105107495        6.6178829320  MEMB      175             0.0000000000
     21810       175  PMPG      H11S           21.7485045686      -54.0070664475        7.7404959334  MEMB      175             0.0000000000
     21811       175  PMPG      C212           21.6343863498      -53.4641381584        5.7304826301  MEMB      175             0.0000000000
     21812       175  PMPG      H12R           21.4406306673      -52.3862369858        5.9173217722  MEMB      175             0.0000000000
     21813       175  PMPG      H12S           20.6113788789      -53.8907802661        5.6546342940  MEMB      175             0.0000000000
     21814       175  PMPG      C213           22.2397206946      -53.7321771499        4.3287391903  MEMB      175             0.0000000000
     21815       175  PMPG      H13R           21.9084950396      -54.7667257340        4.0956730347  MEMB      175             0.0000000000
     21816       175  PMPG      H13S           23.3503174854      -53.7268505241        4.3581910341  MEMB      175             0.0000000000
     21817       175  PMPG      C214           21.6720887065      -52.8017862587        3.1768043397  MEMB      175             0.0000000000
     21818       175  PMPG      H14R           21.5423375582      -51.7793782421        3.5917350447  MEMB      175             0.0000000000
     21819       175  PMPG      H14S           20.7018832178      -53.2505727742        2.8741285006  MEMB      175             0.0000000000
     21820       175  PMPG      C215           22.7599606699      -52.7585473474        2.0570158671  MEMB      175             0.0000000000
     21821       175  PMPG      H15R           23.6599783593      -52.4076591976        2.6058012561  MEMB      175             0.0000000000
     21822       175  PMPG      H15S           22.4854079637      -51.9545281425        1.3411280928  MEMB      175             0.0000000000
     21823       175  PMPG      C216           22.9385030891      -54.1357928257        1.3477263750  MEMB      175             0.0000000000
     21824       175  PMPG      H16R           22.0689227993      -54.8199063986        1.4484217400  MEMB      175             0.0000000000
     21825       175  PMPG      H16S           23.8781800628      -54.6208273486        1.6884155088  MEMB      175             0.0000000000
     21826       175  PMPG      H16T           23.2297072543      -53.9989340871        0.2843398522  MEMB      175             0.0000000000
     21827       175  PMPG      C33            29.4050567180      -54.3217433929       10.4069813711  MEMB      175             0.0000000000
     21828       175  PMPG      H3X            28.6488494076      -54.9534673742       10.9202030863  MEMB      175             0.0000000000
     21829       175  PMPG      H3Y            30.3313024719      -54.6078353657       10.9496981080  MEMB      175             0.0000000000
     21830       175  PMPG      C34            29.5410714178      -54.5815373884        8.9714672268  MEMB      175             0.0000000000
     21831       175  PMPG      H4X            30.3494570423      -53.9737716138        8.5116253481  MEMB      175             0.0000000000
     21832       175  PMPG      H4Y            28.5691456497      -54.4206171734        8.4578674412  MEMB      175             0.0000000000
     21833       175  PMPG      C35            29.8961601670      -56.0722049963        8.8042079800  MEMB      175             0.0000000000
     21834       175  PMPG      H5X            29.0588755724      -56.7387426253        9.1025414435  MEMB      175             0.0000000000
     21835       175  PMPG      H5Y            30.7777123938      -56.2437935665        9.4582291489  MEMB      175             0.0000000000
     21836       175  PMPG      C36            30.4285190673      -56.5873984631        7.4247068889  MEMB      175             0.0000000000
     21837       175  PMPG      H6X            30.8121825090      -57.6296820701        7.4524394259  MEMB      175             0.0000000000
     21838       175  PMPG      H6Y            31.3612647317      -56.0734333494        7.1082477091  MEMB      175             0.0000000000
     21839       175  PMPG      C37            29.3206743535      -56.3628609227        6.3769826264  MEMB      175             0.0000000000
     21840       175  PMPG      H7X            28.8026699373      -55.3955720248        6.5511795091  MEMB      175             0.0000000000
     21841       175  PMPG      H7Y            28.4866154234      -57.0950838892        6.4271461355  MEMB      175             0.0000000000
     21842       175  PMPG      C38            29.8395462011      -56.3762145138        4.8968992305  MEMB      175             0.0000000000
     21843       175  PMPG      H8X            30.1317236448      -57.3921755135        4.5551732239  MEMB      175             0.0000000000
     21844       175  PMPG      H8Y            30.7373303705      -55.7217995261        4.9036468155  MEMB      175             0.0000000000
     21845       175  PMPG      C39            28.8588666060      -55.7894888286        3.8841394143  MEMB      175             0.0000000000
     21846       175  PMPG      H9X            28.1598373984      -56.5725216680        3.5200806148  MEMB      175             0.0000000000
     21847       175  PMPG      H9Y            29.4325343230      -55.5774337286        2.9566382445  MEMB      175             0.0000000000
     21848       175  PMPG      C310           28.0614735932      -54.5074273720        4.2804649890  MEMB      175             0.0000000000
     21849       175  PMPG      H10X           28.6508967835      -53.7978817042        4.8996955384  MEMB      175             0.0000000000
     21850       175  PMPG      H10Y           27.3729090406      -54.8890093325        5.0644262516  MEMB      175             0.0000000000
     21851       175  PMPG      C311           27.2789601482      -53.8137967811        3.1843404287  MEMB      175             0.0000000000
     21852       175  PMPG      H11X           26.5759165320      -53.1523957098        3.7344313120  MEMB      175             0.0000000000
     21853       175  PMPG      H11Y           26.5695201318      -54.4912161814        2.6626906687  MEMB      175             0.0000000000
     21854       175  PMPG      C312           28.1075962176      -52.9244254398        2.2021403806  MEMB      175             0.0000000000
     21855       175  PMPG      H12X           29.1437540735      -53.2579575062        2.4245244104  MEMB      175             0.0000000000
     21856       175  PMPG      H12Y           28.1305413235      -51.8753160445        2.5670571476  MEMB      175             0.0000000000
     21857       175  PMPG      C313           27.6354380418      -52.9604270968        0.7206099392  MEMB      175             0.0000000000
     21858       175  PMPG      H13X           28.3079667430      -52.1669506894        0.3301990258  MEMB      175             0.0000000000
     21859       175  PMPG      H13Y           26.5617038375      -52.6939163832        0.6186866750  MEMB      175             0.0000000000
     21860       175  PMPG      C314           27.9734394130      -54.2558162629       -0.0561769601  MEMB      175             0.0000000000
     21861       175  PMPG      H14X           27.4688054707      -55.1076732130        0.4478127598  MEMB      175             0.0000000000
     21862       175  PMPG      H14Y           29.0634251975      -54.4637228330       -0.1111977473  MEMB      175             0.0000000000
     21863       175  PMPG      C315           27.5587155891      -54.4024430457       -1.5332068664  MEMB      175             0.0000000000
     21864       175  PMPG      H15X           28.1080530865      -53.5756471748       -2.0321644260  MEMB      175             0.0000000000
     21865       175  PMPG      H15Y           26.4941999402      -54.0849153124       -1.5157792289  MEMB      175             0.0000000000
     21866       175  PMPG      C316           27.9507946317      -55.7672187208       -2.1205444071  MEMB      175             0.0000000000
     21867       175  PMPG      H16X           27.1804395493      -56.5485311443       -1.9461174014  MEMB      175             0.0000000000
     21868       175  PMPG      H16Y           28.9519748153      -56.1520647317       -1.8309710143  MEMB      175             0.0000000000
     21869       175  PMPG      H16Z           27.8938105874      -55.6712354381       -3.2259224446  MEMB      175             0.0000000000
     21870       176  QMPE      N              37.6902703054      -48.3031491984       20.0895423310  MEMB      176             0.0000000000
     21871       176  QMPE      HN1            38.5843689039      -48.8135285171       20.2368528126  MEMB      176             0.0000000000
     21872       176  QMPE      HN2            37.6625746039      -47.8979415716       21.0469553561  MEMB      176             0.0000000000
     21873       176  QMPE      HN3            36.9180141505      -48.9788031859       19.9200956191  MEMB      176             0.0000000000
     21874       176  QMPE      C12            37.6495535613      -47.3298199478       18.9804090970  MEMB      176             0.0000000000
     21875       176  QMPE      H12A           36.7742153029      -46.6460313301       19.0035817357  MEMB      176             0.0000000000
     21876       176  QMPE      H12B           37.6428527182      -47.9035045146       18.0290091025  MEMB      176             0.0000000000
     21877       176  QMPE      C11            38.9581703805      -46.4501295368       18.9989798170  MEMB      176             0.0000000000
     21878       176  QMPE      H11A           39.0145012741      -45.7711264462       19.8765346757  MEMB      176             0.0000000000
     21879       176  QMPE      H11B           38.9119140739      -45.9259223912       18.0205176430  MEMB      176             0.0000000000
     21880       176  QMPE      P              41.4691159514      -46.2847257158       18.8585116478  MEMB      176             0.0000000000
     21881       176  QMPE      O13            42.6565881796      -47.1635074937       19.1363984922  MEMB      176             0.0000000000
     21882       176  QMPE      O14            41.3124319609      -44.9871857096       19.5923272595  MEMB      176             0.0000000000
     21883       176  QMPE      O11            41.4694914275      -46.0276965771       17.3242822138  MEMB      176             0.0000000000
     21884       176  QMPE      O12            40.1677870159      -47.1766330309       19.0195491389  MEMB      176             0.0000000000
     21885       176  QMPE      C1             41.6452746624      -46.8025708245       16.1977439086  MEMB      176             0.0000000000
     21886       176  QMPE      HA             41.3403308419      -46.1456420068       15.3552626335  MEMB      176             0.0000000000
     21887       176  QMPE      HB             40.9824951753      -47.6942230948       16.1984474448  MEMB      176             0.0000000000
     21888       176  QMPE      C2             43.1902535779      -47.2163325888       15.8998389706  MEMB      176             0.0000000000
     21889       176  QMPE      HS             43.5513249660      -47.8775283825       16.7163980576  MEMB      176             0.0000000000
     21890       176  QMPE      O21            44.0446197806      -46.0663590473       15.9044312189  MEMB      176             0.0000000000
     21891       176  QMPE      C21            45.2790070574      -46.3012512260       16.1763796494  MEMB      176             0.0000000000
     21892       176  QMPE      O22            45.8449611221      -47.3884751252       16.2246251772  MEMB      176             0.0000000000
     21893       176  QMPE      C22            46.0784100387      -44.9394605286       16.3314859334  MEMB      176             0.0000000000
     21894       176  QMPE      H2R            47.1727941026      -45.0494678790       16.4881492964  MEMB      176             0.0000000000
     21895       176  QMPE      H2S            45.6748910605      -44.4051025947       17.2180267023  MEMB      176             0.0000000000
     21896       176  QMPE      C3             43.2510677307      -47.8498176628       14.3994930170  MEMB      176             0.0000000000
     21897       176  QMPE      HX             42.5071445239      -48.6725057883       14.4633937101  MEMB      176             0.0000000000
     21898       176  QMPE      HY             44.2935474359      -48.1823370065       14.2071708461  MEMB      176             0.0000000000
     21899       176  QMPE      O31            42.8378923894      -46.8337624355       13.4470408953  MEMB      176             0.0000000000
     21900       176  QMPE      C31            43.2232568417      -47.0109003563       12.1858016601  MEMB      176             0.0000000000
     21901       176  QMPE      O32            44.0248216874      -47.8565409923       11.7764137451  MEMB      176             0.0000000000
     21902       176  QMPE      C32            42.3246290754      -46.1479195248       11.2814732033  MEMB      176             0.0000000000
     21903       176  QMPE      H2X            41.6807120717      -45.4324972574       11.8363271598  MEMB      176             0.0000000000
     21904       176  QMPE      H2Y            43.0023827839      -45.5343990625       10.6501545287  MEMB      176             0.0000000000
     21905       176  QMPE      C23            45.8309965323      -44.0194675918       15.0773364714  MEMB      176             0.0000000000
     21906       176  QMPE      H3R            46.4138441466      -43.0867808172       15.2345150514  MEMB      176             0.0000000000
     21907       176  QMPE      H3S            44.7300775467      -43.8743545187       15.1125551818  MEMB      176             0.0000000000
     21908       176  QMPE      C24            46.2827597977      -44.5306761248       13.6892711953  MEMB      176             0.0000000000
     21909       176  QMPE      H4R            45.7314689382      -45.4874192169       13.5666262768  MEMB      176             0.0000000000
     21910       176  QMPE      H4S            47.3447199397      -44.8489497989       13.7618248098  MEMB      176             0.0000000000
     21911       176  QMPE      C25            46.0511983413      -43.6208334705       12.4890186722  MEMB      176             0.0000000000
     21912       176  QMPE      H5R            46.7435433125      -42.7551751868       12.5639557619  MEMB      176             0.0000000000
     21913       176  QMPE      H5S            45.1085670094      -43.0669637434       12.6864908875  MEMB      176             0.0000000000
     21914       176  QMPE      C26            46.2546266143      -44.3454742347       11.1514122562  MEMB      176             0.0000000000
     21915       176  QMPE      H6R            45.4144488097      -45.0494035972       10.9700132203  MEMB      176             0.0000000000
     21916       176  QMPE      H6S            47.1936896752      -44.9391299305       11.1440282251  MEMB      176             0.0000000000
     21917       176  QMPE      C27            46.1412440876      -43.4065284911        9.8979086465  MEMB      176             0.0000000000
     21918       176  QMPE      H7R            46.9880673381      -42.7365720243       10.1593853751  MEMB      176             0.0000000000
     21919       176  QMPE      H7S            45.1322306956      -42.9438543143        9.9442261233  MEMB      176             0.0000000000
     21920       176  QMPE      C28            46.3091060431      -44.1352533860        8.5479141126  MEMB      176             0.0000000000
     21921       176  QMPE      H8R            47.3022664399      -44.6210961760        8.4387784067  MEMB      176             0.0000000000
     21922       176  QMPE      H8S            46.3252756727      -43.3743525860        7.7385378075  MEMB      176             0.0000000000
     21923       176  QMPE      C29            45.1698463482      -45.1855793798        8.3398731297  MEMB      176             0.0000000000
     21924       176  QMPE      H9R            44.1989671684      -44.8641009591        8.7738849620  MEMB      176             0.0000000000
     21925       176  QMPE      C217           45.5538428139      -46.6173552006        8.6364900112  MEMB      176             0.0000000000
     21926       176  QMPE      H17R           46.6159168609      -46.8052051200        8.7344690650  MEMB      176             0.0000000000
     21927       176  QMPE      H17S           44.7829735034      -47.2848017540        9.0014063212  MEMB      176             0.0000000000
     21928       176  QMPE      C210           45.2074988586      -46.2632156300        7.2045343991  MEMB      176             0.0000000000
     21929       176  QMPE      H10R           44.1416697255      -46.5177718969        7.0214207261  MEMB      176             0.0000000000
     21930       176  QMPE      C211           46.2989594975      -46.1760654116        6.1601034536  MEMB      176             0.0000000000
     21931       176  QMPE      H11R           46.7287306860      -45.1546645801        6.0803686873  MEMB      176             0.0000000000
     21932       176  QMPE      H11S           47.1325075047      -46.8998752474        6.2850768384  MEMB      176             0.0000000000
     21933       176  QMPE      C212           45.6645681722      -46.5710258621        4.7260709122  MEMB      176             0.0000000000
     21934       176  QMPE      H12R           44.7611275404      -45.9389903446        4.5895166075  MEMB      176             0.0000000000
     21935       176  QMPE      H12S           45.3690063370      -47.6408140596        4.7762453421  MEMB      176             0.0000000000
     21936       176  QMPE      C213           46.7081388514      -46.3378247450        3.6140539594  MEMB      176             0.0000000000
     21937       176  QMPE      H13R           46.6459975687      -46.9914243216        2.7178022279  MEMB      176             0.0000000000
     21938       176  QMPE      H13S           47.7032778146      -46.5696031285        4.0502860038  MEMB      176             0.0000000000
     21939       176  QMPE      C214           46.7194341734      -44.8782917091        3.0662461993  MEMB      176             0.0000000000
     21940       176  QMPE      H14R           47.7087493878      -44.6619730099        2.6093186538  MEMB      176             0.0000000000
     21941       176  QMPE      H14S           46.6200531659      -44.1517025154        3.9008189808  MEMB      176             0.0000000000
     21942       176  QMPE      C215           45.5092692621      -44.6148048924        2.1322365759  MEMB      176             0.0000000000
     21943       176  QMPE      H15R           44.6434894997      -45.0453878817        2.6793605503  MEMB      176             0.0000000000
     21944       176  QMPE      H15S           45.6780827418      -45.2892926200        1.2656977515  MEMB      176             0.0000000000
     21945       176  QMPE      C216           45.2451609618      -43.1159069527        1.9336600497  MEMB      176             0.0000000000
     21946       176  QMPE      H16R           44.5793262528      -42.7689858356        2.7525814710  MEMB      176             0.0000000000
     21947       176  QMPE      H16S           44.7671444976      -42.8240666429        0.9741554683  MEMB      176             0.0000000000
     21948       176  QMPE      H16T           46.2222266359      -42.5988529639        2.0446506400  MEMB      176             0.0000000000
     21949       176  QMPE      C33            41.3823039031      -47.0301936895       10.4897702232  MEMB      176             0.0000000000
     21950       176  QMPE      H3X            40.6035282252      -47.5434272737       11.0934425744  MEMB      176             0.0000000000
     21951       176  QMPE      H3Y            41.9452759996      -47.7182218946        9.8234362841  MEMB      176             0.0000000000
     21952       176  QMPE      C34            40.6384011209      -46.2406167082        9.3472245777  MEMB      176             0.0000000000
     21953       176  QMPE      H4X            41.4610442562      -45.8310001921        8.7228901895  MEMB      176             0.0000000000
     21954       176  QMPE      H4Y            40.0889868984      -45.3711452105        9.7673246144  MEMB      176             0.0000000000
     21955       176  QMPE      C35            39.6372994491      -47.0980916852        8.6208033013  MEMB      176             0.0000000000
     21956       176  QMPE      H5X            39.0782879920      -46.4625438418        7.9011464472  MEMB      176             0.0000000000
     21957       176  QMPE      H5Y            38.9018304653      -47.3250443950        9.4219892703  MEMB      176             0.0000000000
     21958       176  QMPE      C36            40.0994535655      -48.4366598616        7.7991023513  MEMB      176             0.0000000000
     21959       176  QMPE      H6X            39.1771898187      -48.9080785275        7.3972123534  MEMB      176             0.0000000000
     21960       176  QMPE      H6Y            40.4420519138      -49.2068581270        8.5228026721  MEMB      176             0.0000000000
     21961       176  QMPE      C37            41.0860819233      -48.0566151462        6.6457409285  MEMB      176             0.0000000000
     21962       176  QMPE      H7X            42.0216116721      -47.5891056625        7.0206277851  MEMB      176             0.0000000000
     21963       176  QMPE      H7Y            41.2841207211      -49.0334619912        6.1549541455  MEMB      176             0.0000000000
     21964       176  QMPE      C38            40.5238512310      -47.2054063030        5.4950282787  MEMB      176             0.0000000000
     21965       176  QMPE      H8X            39.5240919994      -47.6535867242        5.3108072371  MEMB      176             0.0000000000
     21966       176  QMPE      H8Y            40.5385726697      -46.1482473064        5.8363769119  MEMB      176             0.0000000000
     21967       176  QMPE      C39            41.4896986908      -47.1500909040        4.2807033030  MEMB      176             0.0000000000
     21968       176  QMPE      H9X            41.7207419409      -48.1956916812        3.9846309229  MEMB      176             0.0000000000
     21969       176  QMPE      H9Y            42.4514107472      -46.6834003177        4.5834088340  MEMB      176             0.0000000000
     21970       176  QMPE      C310           40.8328624543      -46.5021950936        3.0891590076  MEMB      176             0.0000000000
     21971       176  QMPE      H10X           40.4021363224      -45.4936227476        3.2668606464  MEMB      176             0.0000000000
     21972       176  QMPE      H10Y           40.0418887438      -47.1970725048        2.7344383119  MEMB      176             0.0000000000
     21973       176  QMPE      C311           41.8303523406      -46.3190917847        1.8625536485  MEMB      176             0.0000000000
     21974       176  QMPE      H11X           42.0107914611      -47.3576240778        1.5115375727  MEMB      176             0.0000000000
     21975       176  QMPE      H11Y           42.7845223174      -45.9947878307        2.3302163015  MEMB      176             0.0000000000
     21976       176  QMPE      C312           41.3931407552      -45.4834166134        0.7149121555  MEMB      176             0.0000000000
     21977       176  QMPE      H12X           40.2868016913      -45.5667211075        0.6566455373  MEMB      176             0.0000000000
     21978       176  QMPE      H12Y           41.7867552743      -45.8292461670       -0.2647768098  MEMB      176             0.0000000000
     21979       176  QMPE      C313           41.6527120797      -44.0364347891        0.9473523334  MEMB      176             0.0000000000
     21980       176  QMPE      H13X           41.4144548756      -43.6500988244        1.9614034683  MEMB      176             0.0000000000
     21981       176  QMPE      H13Y           42.7297195577      -43.8751571865        0.7274307648  MEMB      176             0.0000000000
     21982       176  QMPE      C314           40.7948443067      -43.2398738321        0.0119360878  MEMB      176             0.0000000000
     21983       176  QMPE      H14X           39.7168433151      -43.2733596157        0.2786092070  MEMB      176             0.0000000000
     21984       176  QMPE      H14Y           40.7178205462      -43.6081629309       -1.0334108099  MEMB      176             0.0000000000
     21985       176  QMPE      C315           41.2508399806      -41.8049174532       -0.1640427084  MEMB      176             0.0000000000
     21986       176  QMPE      H15X           40.7565010947      -41.3317833141       -1.0393099357  MEMB      176             0.0000000000
     21987       176  QMPE      H15Y           41.1044395974      -41.1921001653        0.7510217452  MEMB      176             0.0000000000
     21988       176  QMPE      H15Z           42.3235160684      -41.8496733827       -0.4498449579  MEMB      176             0.0000000000
     21989       177  PMPE      N             -41.2399959222       47.7751840358       18.0280634354  MEMB      177             0.0000000000
     21990       177  PMPE      HN1           -42.2290449238       48.0876097282       18.1040381807  MEMB      177             0.0000000000
     21991       177  PMPE      HN2           -40.7553807908       48.6365229961       17.7042682343  MEMB      177             0.0000000000
     21992       177  PMPE      HN3           -41.1662758937       46.9001027563       17.4709297617  MEMB      177             0.0000000000
     21993       177  PMPE      C12           -40.7861129017       47.5353319803       19.4482820923  MEMB      177             0.0000000000
     21994       177  PMPE      H12A          -41.3893653005       48.2143410412       20.0880902325  MEMB      177             0.0000000000
     21995       177  PMPE      H12B          -39.7385688437       47.9031899398       19.4889387429  MEMB      177             0.0000000000
     21996       177  PMPE      C11           -40.8391920765       46.0848648846       19.9238714540  MEMB      177             0.0000000000
     21997       177  PMPE      H11A          -40.5462784482       46.1854908076       20.9908282742  MEMB      177             0.0000000000
     21998       177  PMPE      H11B          -40.1264197219       45.5135592993       19.2915056882  MEMB      177             0.0000000000
     21999       177  PMPE      P             -42.3298186410       44.1892719474       18.9027478296  MEMB      177             0.0000000000
     22000       177  PMPE      O13           -43.7023521413       43.7072970306       19.2843559758  MEMB      177             0.0000000000
     22001       177  PMPE      O14           -41.2230509305       43.2329631686       19.0381514694  MEMB      177             0.0000000000
     22002       177  PMPE      O11           -42.3306664656       44.7895115526       17.4729100809  MEMB      177             0.0000000000
     22003       177  PMPE      O12           -42.0802957198       45.3797754039       19.9016176652  MEMB      177             0.0000000000
     22004       177  PMPE      C1            -43.5247944747       44.7745973506       16.6701261066  MEMB      177             0.0000000000
     22005       177  PMPE      HA            -43.4322659090       45.5611333091       15.8909465847  MEMB      177             0.0000000000
     22006       177  PMPE      HB            -44.3713854380       45.0340841425       17.3411487287  MEMB      177             0.0000000000
     22007       177  PMPE      C2            -43.7858898272       43.3354153607       16.0753924286  MEMB      177             0.0000000000
     22008       177  PMPE      HS            -44.1452767391       42.6495470523       16.8721022163  MEMB      177             0.0000000000
     22009       177  PMPE      O21           -42.5201088670       42.8323800096       15.6119033463  MEMB      177             0.0000000000
     22010       177  PMPE      C21           -42.4640048878       41.5561515617       15.3101791956  MEMB      177             0.0000000000
     22011       177  PMPE      O22           -43.3200003829       40.7315652943       15.5347545398  MEMB      177             0.0000000000
     22012       177  PMPE      C22           -41.1276947899       41.1734831875       14.6579050974  MEMB      177             0.0000000000
     22013       177  PMPE      H2R           -41.3778962049       40.5889682110       13.7468276791  MEMB      177             0.0000000000
     22014       177  PMPE      H2S           -40.5642886503       40.6048250658       15.4283095465  MEMB      177             0.0000000000
     22015       177  PMPE      C3            -44.8808857959       43.3429216322       14.9669373325  MEMB      177             0.0000000000
     22016       177  PMPE      HX            -45.7223298264       43.8955959667       15.4368775112  MEMB      177             0.0000000000
     22017       177  PMPE      HY            -45.2508831557       42.3493208425       14.6350030213  MEMB      177             0.0000000000
     22018       177  PMPE      O31           -44.3525781224       43.9481712192       13.7887773994  MEMB      177             0.0000000000
     22019       177  PMPE      C31           -45.0351183813       45.0496634857       13.3488424575  MEMB      177             0.0000000000
     22020       177  PMPE      O32           -46.1871695267       45.2861063676       13.5580889423  MEMB      177             0.0000000000
     22021       177  PMPE      C32           -44.3045822865       45.9258173300       12.4273091226  MEMB      177             0.0000000000
     22022       177  PMPE      H2X           -43.5740069909       45.4235382802       11.7577595563  MEMB      177             0.0000000000
     22023       177  PMPE      H2Y           -43.5960162837       46.4343866071       13.1155043882  MEMB      177             0.0000000000
     22024       177  PMPE      C23           -40.2682000181       42.3611257818       14.2569100925  MEMB      177             0.0000000000
     22025       177  PMPE      H3R           -39.2315078631       42.0198752331       14.0492116914  MEMB      177             0.0000000000
     22026       177  PMPE      H3S           -40.2017750638       43.0973671006       15.0862817865  MEMB      177             0.0000000000
     22027       177  PMPE      C24           -40.7281570524       43.0601433301       12.9333594913  MEMB      177             0.0000000000
     22028       177  PMPE      H4R           -41.7909842492       43.3835784411       12.9438121202  MEMB      177             0.0000000000
     22029       177  PMPE      H4S           -40.6173227310       42.3696346553       12.0700900208  MEMB      177             0.0000000000
     22030       177  PMPE      C25           -40.0557723229       44.4428224495       12.5855783494  MEMB      177             0.0000000000
     22031       177  PMPE      H5R           -38.9462727570       44.5005105938       12.5836347424  MEMB      177             0.0000000000
     22032       177  PMPE      H5S           -40.3346525590       45.2427303987       13.3043924960  MEMB      177             0.0000000000
     22033       177  PMPE      C26           -40.4519514248       44.9330188364       11.1945422116  MEMB      177             0.0000000000
     22034       177  PMPE      H6R           -41.5592397446       44.9722124634       11.1127045754  MEMB      177             0.0000000000
     22035       177  PMPE      H6S           -40.1609075020       44.1159864352       10.5002273527  MEMB      177             0.0000000000
     22036       177  PMPE      C27           -39.9599812425       46.2039120189       10.7724712590  MEMB      177             0.0000000000
     22037       177  PMPE      H7R           -38.9261016775       46.2381951924       11.1777350662  MEMB      177             0.0000000000
     22038       177  PMPE      H7S           -40.5484902446       46.9978090877       11.2801185579  MEMB      177             0.0000000000
     22039       177  PMPE      C28           -40.1827423911       46.4958627545        9.2992644231  MEMB      177             0.0000000000
     22040       177  PMPE      H8R           -41.2694084900       46.6458570609        9.1232555159  MEMB      177             0.0000000000
     22041       177  PMPE      H8S           -39.8802208944       45.6062486096        8.7064842188  MEMB      177             0.0000000000
     22042       177  PMPE      C29           -39.3452754484       47.7191784420        8.8752653406  MEMB      177             0.0000000000
     22043       177  PMPE      H9R           -38.2379264706       47.6419109921        8.9214108230  MEMB      177             0.0000000000
     22044       177  PMPE      C217          -39.8662190241       48.9076650460        9.5526463477  MEMB      177             0.0000000000
     22045       177  PMPE      H17R          -39.1979581821       49.6777711990        9.9176842457  MEMB      177             0.0000000000
     22046       177  PMPE      H17S          -40.8093222540       48.8871050975       10.0846448120  MEMB      177             0.0000000000
     22047       177  PMPE      C210          -39.9373419182       48.8212007050        8.0108530654  MEMB      177             0.0000000000
     22048       177  PMPE      H10R          -39.1943679051       49.5322656283        7.5904999429  MEMB      177             0.0000000000
     22049       177  PMPE      C211          -41.2577706036       48.8383492982        7.2623155770  MEMB      177             0.0000000000
     22050       177  PMPE      H11R          -41.5277323365       49.8120977000        6.8005197553  MEMB      177             0.0000000000
     22051       177  PMPE      H11S          -42.0957953214       48.7745288789        7.9889253339  MEMB      177             0.0000000000
     22052       177  PMPE      C212          -41.4318401077       47.6866884136        6.2989696491  MEMB      177             0.0000000000
     22053       177  PMPE      H12R          -42.5153193762       47.6342188104        6.0588853201  MEMB      177             0.0000000000
     22054       177  PMPE      H12S          -41.1036262858       46.7069807763        6.7073447783  MEMB      177             0.0000000000
     22055       177  PMPE      C213          -40.7062432119       47.8720543050        4.9571906823  MEMB      177             0.0000000000
     22056       177  PMPE      H13R          -39.6002334524       47.8372189340        5.0564378567  MEMB      177             0.0000000000
     22057       177  PMPE      H13S          -41.0186737176       48.8360449852        4.5017461827  MEMB      177             0.0000000000
     22058       177  PMPE      C214          -41.1537533590       46.8686720831        3.8664453158  MEMB      177             0.0000000000
     22059       177  PMPE      H14R          -42.2428836103       46.7672465548        3.6719480580  MEMB      177             0.0000000000
     22060       177  PMPE      H14S          -40.6849122073       45.9006071450        4.1445811692  MEMB      177             0.0000000000
     22061       177  PMPE      C215          -40.6235477238       47.0684696907        2.4136404246  MEMB      177             0.0000000000
     22062       177  PMPE      H15R          -41.1445533741       46.3044570176        1.7978808614  MEMB      177             0.0000000000
     22063       177  PMPE      H15S          -39.5590874697       46.7503022116        2.4097859935  MEMB      177             0.0000000000
     22064       177  PMPE      C216          -40.8510378321       48.4267767874        1.8139245280  MEMB      177             0.0000000000
     22065       177  PMPE      H16R          -40.2171548503       49.2465787233        2.2144719973  MEMB      177             0.0000000000
     22066       177  PMPE      H16S          -40.8685038014       48.4213373150        0.7030744489  MEMB      177             0.0000000000
     22067       177  PMPE      H16T          -41.8500777222       48.7647658114        2.1632137967  MEMB      177             0.0000000000
     22068       177  PMPE      C33           -45.1286875449       47.0065281208       11.6304351569  MEMB      177             0.0000000000
     22069       177  PMPE      H3X           -44.3402199052       47.7698780399       11.4574130846  MEMB      177             0.0000000000
     22070       177  PMPE      H3Y           -45.8863878319       47.5180341043       12.2617610877  MEMB      177             0.0000000000
     22071       177  PMPE      C34           -45.6934916403       46.3919667791       10.2873356439  MEMB      177             0.0000000000
     22072       177  PMPE      H4X           -46.1749654871       47.3175868382        9.9055871936  MEMB      177             0.0000000000
     22073       177  PMPE      H4Y           -46.4187912636       45.5530841713       10.3546945499  MEMB      177             0.0000000000
     22074       177  PMPE      C35           -44.6178302893       46.0299189902        9.2188610561  MEMB      177             0.0000000000
     22075       177  PMPE      H5X           -44.4709167184       44.9326549792        9.3123976879  MEMB      177             0.0000000000
     22076       177  PMPE      H5Y           -43.6906764698       46.5830300906        9.4811112467  MEMB      177             0.0000000000
     22077       177  PMPE      C36           -44.9984170637       46.4047731024        7.7767169509  MEMB      177             0.0000000000
     22078       177  PMPE      H6X           -44.0498937088       46.3887137124        7.1984719142  MEMB      177             0.0000000000
     22079       177  PMPE      H6Y           -45.4219482675       47.4234534147        7.9079895160  MEMB      177             0.0000000000
     22080       177  PMPE      C37           -46.0009842154       45.4870711048        7.1786983449  MEMB      177             0.0000000000
     22081       177  PMPE      H7X           -46.9526195273       45.5841263202        7.7437569729  MEMB      177             0.0000000000
     22082       177  PMPE      H7Y           -45.6306781051       44.4471883482        7.3045482386  MEMB      177             0.0000000000
     22083       177  PMPE      C38           -46.3766423587       45.7643202391        5.7532584012  MEMB      177             0.0000000000
     22084       177  PMPE      H8X           -46.9800190620       46.6900266298        5.6378225470  MEMB      177             0.0000000000
     22085       177  PMPE      H8Y           -47.0892791061       44.9259640622        5.5995404021  MEMB      177             0.0000000000
     22086       177  PMPE      C39           -45.1203060814       45.6507107745        4.7733587006  MEMB      177             0.0000000000
     22087       177  PMPE      H9X           -44.3625039219       46.4597976721        4.8470841900  MEMB      177             0.0000000000
     22088       177  PMPE      H9Y           -45.4289522934       45.7412192861        3.7099364767  MEMB      177             0.0000000000
     22089       177  PMPE      C310          -44.3136848787       44.2948614190        4.8412814962  MEMB      177             0.0000000000
     22090       177  PMPE      H10X          -44.9782504668       43.4098550505        4.9384275189  MEMB      177             0.0000000000
     22091       177  PMPE      H10Y          -43.6544430428       44.3372792240        5.7345465763  MEMB      177             0.0000000000
     22092       177  PMPE      C311          -43.4622942158       44.0927599079        3.5964410722  MEMB      177             0.0000000000
     22093       177  PMPE      H11X          -42.4859948844       44.6210773758        3.5512556864  MEMB      177             0.0000000000
     22094       177  PMPE      H11Y          -44.0808592906       44.3081496523        2.6990524924  MEMB      177             0.0000000000
     22095       177  PMPE      C312          -42.8931265836       42.6464991198        3.5395625668  MEMB      177             0.0000000000
     22096       177  PMPE      H12X          -43.6229753476       41.8342335488        3.7441766005  MEMB      177             0.0000000000
     22097       177  PMPE      H12Y          -41.9725837040       42.6225861693        4.1611335304  MEMB      177             0.0000000000
     22098       177  PMPE      C313          -42.3944543605       42.2833190016        2.1302559146  MEMB      177             0.0000000000
     22099       177  PMPE      H13X          -43.0601239425       42.6730423034        1.3306798074  MEMB      177             0.0000000000
     22100       177  PMPE      H13Y          -42.1564091882       41.1982053718        2.1166940789  MEMB      177             0.0000000000
     22101       177  PMPE      C314          -40.9792049500       42.9441924248        1.9068309692  MEMB      177             0.0000000000
     22102       177  PMPE      H14X          -40.3526989692       42.4931757244        2.7058266071  MEMB      177             0.0000000000
     22103       177  PMPE      H14Y          -40.9267492971       44.0538628780        1.8926727324  MEMB      177             0.0000000000
     22104       177  PMPE      C315          -40.1990197701       42.5727082470        0.6585921070  MEMB      177             0.0000000000
     22105       177  PMPE      H15X          -40.2040542151       41.5049929090        0.3515418505  MEMB      177             0.0000000000
     22106       177  PMPE      H15Y          -39.1276021367       42.7951198254        0.8507319785  MEMB      177             0.0000000000
     22107       177  PMPE      C316          -40.6350061376       43.3755910952       -0.5538286802  MEMB      177             0.0000000000
     22108       177  PMPE      H16X          -40.0868542607       43.1646269790       -1.4968792629  MEMB      177             0.0000000000
     22109       177  PMPE      H16Y          -40.5102240289       44.4300166622       -0.2268157164  MEMB      177             0.0000000000
     22110       177  PMPE      H16Z          -41.7237618042       43.4175750507       -0.7710126623  MEMB      177             0.0000000000
     22111       178  OYPE      N              48.5947125566       36.0103808844       21.0311335939  MEMB      178             0.0000000000
     22112       178  OYPE      HN1            49.3082933364       36.5578142968       21.5533589503  MEMB      178             0.0000000000
     22113       178  OYPE      HN2            47.8073329460       36.6382506053       20.7714939124  MEMB      178             0.0000000000
     22114       178  OYPE      HN3            48.2272127342       35.1851816222       21.5464879828  MEMB      178             0.0000000000
     22115       178  OYPE      C12            49.2572693208       35.5387366332       19.7229574952  MEMB      178             0.0000000000
     22116       178  OYPE      H12A           48.8390693188       34.5334587551       19.5019461849  MEMB      178             0.0000000000
     22117       178  OYPE      H12B           50.3025663301       35.2963397130       20.0109140868  MEMB      178             0.0000000000
     22118       178  OYPE      C11            49.2494182952       36.5990165207       18.5436056997  MEMB      178             0.0000000000
     22119       178  OYPE      H11A           48.2586153744       36.9841782570       18.2206801033  MEMB      178             0.0000000000
     22120       178  OYPE      H11B           49.5674801433       36.0599076828       17.6257172036  MEMB      178             0.0000000000
     22121       178  OYPE      P              51.6293653493       37.7002973655       18.5988666426  MEMB      178             0.0000000000
     22122       178  OYPE      O13            52.1721202619       36.3437319785       18.9357165739  MEMB      178             0.0000000000
     22123       178  OYPE      O14            52.1083698137       38.9310371893       19.2819633104  MEMB      178             0.0000000000
     22124       178  OYPE      O11            51.7436024222       37.8621331987       17.0335876603  MEMB      178             0.0000000000
     22125       178  OYPE      O12            50.0579835706       37.6949966323       18.8521690571  MEMB      178             0.0000000000
     22126       178  OYPE      C1             51.0956087142       38.8502653649       16.3857427732  MEMB      178             0.0000000000
     22127       178  OYPE      HA             51.8092296364       39.2027877197       15.6106336379  MEMB      178             0.0000000000
     22128       178  OYPE      HB             50.8267128875       39.7591440914       16.9653593280  MEMB      178             0.0000000000
     22129       178  OYPE      C2             49.8591411694       38.3116078000       15.6332751470  MEMB      178             0.0000000000
     22130       178  OYPE      HS             48.9626388791       38.3467850060       16.2885362212  MEMB      178             0.0000000000
     22131       178  OYPE      O21            50.0295651714       36.9965619681       15.1541377687  MEMB      178             0.0000000000
     22132       178  OYPE      C21            49.0138216646       36.3070125907       14.7800585499  MEMB      178             0.0000000000
     22133       178  OYPE      O22            47.8030534686       36.5204145495       15.0540837847  MEMB      178             0.0000000000
     22134       178  OYPE      C22            49.5121260270       35.0137864151       14.0449509026  MEMB      178             0.0000000000
     22135       178  OYPE      H2R            50.1982384380       34.4983320775       14.7505554879  MEMB      178             0.0000000000
     22136       178  OYPE      H2S            50.0768067749       35.2084233802       13.1081620528  MEMB      178             0.0000000000
     22137       178  OYPE      C3             49.4934847554       39.2406221354       14.4586444659  MEMB      178             0.0000000000
     22138       178  OYPE      HX             49.3117559735       40.2965049768       14.7525952574  MEMB      178             0.0000000000
     22139       178  OYPE      HY             48.5937036526       38.7997935611       13.9786600153  MEMB      178             0.0000000000
     22140       178  OYPE      O31            50.5847301082       39.2790629190       13.5594697846  MEMB      178             0.0000000000
     22141       178  OYPE      C31            50.2569144811       39.5347128283       12.2761407840  MEMB      178             0.0000000000
     22142       178  OYPE      O32            49.0874120921       39.6490367504       11.8475837684  MEMB      178             0.0000000000
     22143       178  OYPE      C32            51.4227915805       39.5286641182       11.3001010086  MEMB      178             0.0000000000
     22144       178  OYPE      H2X            51.8097296707       40.5599837439       11.1552565308  MEMB      178             0.0000000000
     22145       178  OYPE      H2Y            52.2301707202       38.9765207352       11.8269765057  MEMB      178             0.0000000000
     22146       178  OYPE      C23            48.3625084409       34.0489008099       13.7380765262  MEMB      178             0.0000000000
     22147       178  OYPE      H3R            47.6398533372       34.0396838994       14.5818807013  MEMB      178             0.0000000000
     22148       178  OYPE      H3S            48.9248383063       33.0928770544       13.6738538349  MEMB      178             0.0000000000
     22149       178  OYPE      C24            47.8188809412       34.1416684535       12.2451903234  MEMB      178             0.0000000000
     22150       178  OYPE      H4R            47.2273276575       33.2176120660       12.0705319174  MEMB      178             0.0000000000
     22151       178  OYPE      H4S            48.7201901697       34.0369043909       11.6041074698  MEMB      178             0.0000000000
     22152       178  OYPE      C25            46.8948604461       35.4247846596       11.9738215266  MEMB      178             0.0000000000
     22153       178  OYPE      H5R            47.5622212620       36.3015124778       11.8313479137  MEMB      178             0.0000000000
     22154       178  OYPE      H5S            46.2807858367       35.5828375588       12.8861002070  MEMB      178             0.0000000000
     22155       178  OYPE      C26            45.9862266927       35.3962903025       10.6789726715  MEMB      178             0.0000000000
     22156       178  OYPE      H6R            45.5269611693       36.4078117824       10.6641290682  MEMB      178             0.0000000000
     22157       178  OYPE      H6S            45.2127298094       34.6211716096       10.8666275720  MEMB      178             0.0000000000
     22158       178  OYPE      C27            46.6292948663       34.9869121357        9.2887623578  MEMB      178             0.0000000000
     22159       178  OYPE      H7R            45.7312542797       34.8862401341        8.6424580038  MEMB      178             0.0000000000
     22160       178  OYPE      H7S            47.1150505119       33.9963943173        9.4200521881  MEMB      178             0.0000000000
     22161       178  OYPE      C28            47.7180021484       35.9830661430        8.7274949764  MEMB      178             0.0000000000
     22162       178  OYPE      H8R            48.0178496941       35.6016097625        7.7280430113  MEMB      178             0.0000000000
     22163       178  OYPE      H8S            48.5618018235       35.9385907062        9.4488443546  MEMB      178             0.0000000000
     22164       178  OYPE      C29            47.2393478148       37.3590475225        8.5121831150  MEMB      178             0.0000000000
     22165       178  OYPE      H9R            47.3050424690       38.0728207413        9.3465760369  MEMB      178             0.0000000000
     22166       178  OYPE      C210           46.7005375042       37.7525169436        7.3300324977  MEMB      178             0.0000000000
     22167       178  OYPE      H10R           46.5216124249       38.8058370470        7.0683021841  MEMB      178             0.0000000000
     22168       178  OYPE      C211           46.5489232481       36.9028759163        6.1090857115  MEMB      178             0.0000000000
     22169       178  OYPE      H11R           46.6096681972       35.8082266434        6.2890137579  MEMB      178             0.0000000000
     22170       178  OYPE      H11S           47.2528860476       37.2829515622        5.3381770778  MEMB      178             0.0000000000
     22171       178  OYPE      C212           45.1362636912       37.0339767492        5.4665091416  MEMB      178             0.0000000000
     22172       178  OYPE      H12R           44.6984632902       38.0547257128        5.4396143075  MEMB      178             0.0000000000
     22173       178  OYPE      H12S           44.5080825052       36.3511291984        6.0775967301  MEMB      178             0.0000000000
     22174       178  OYPE      C213           45.0067694168       36.4177639122        4.0387964328  MEMB      178             0.0000000000
     22175       178  OYPE      H13R           43.9247948991       36.4445185514        3.7879258241  MEMB      178             0.0000000000
     22176       178  OYPE      H13S           45.4903029462       35.4178682373        4.0657233195  MEMB      178             0.0000000000
     22177       178  OYPE      C214           45.7508045073       37.2220081027        2.9214894346  MEMB      178             0.0000000000
     22178       178  OYPE      H14R           46.8208770476       37.4079561302        3.1553489150  MEMB      178             0.0000000000
     22179       178  OYPE      H14S           45.2352871901       38.2061587839        2.9183412767  MEMB      178             0.0000000000
     22180       178  OYPE      C215           45.6970335935       36.5317811622        1.5520058273  MEMB      178             0.0000000000
     22181       178  OYPE      H15R           46.1981135801       37.1667438269        0.7903873514  MEMB      178             0.0000000000
     22182       178  OYPE      H15S           44.6395875051       36.4578023735        1.2193567014  MEMB      178             0.0000000000
     22183       178  OYPE      C216           46.5196315386       35.2102024790        1.4998601664  MEMB      178             0.0000000000
     22184       178  OYPE      H16R           46.0222526050       34.3594029754        2.0127683323  MEMB      178             0.0000000000
     22185       178  OYPE      H16S           47.4693159092       35.4300256663        2.0328685875  MEMB      178             0.0000000000
     22186       178  OYPE      H16T           46.6967591947       34.9353054596        0.4380780616  MEMB      178             0.0000000000
     22187       178  OYPE      C33            51.0966219998       38.9585145525        9.8917766312  MEMB      178             0.0000000000
     22188       178  OYPE      H3X            50.5988394081       39.5958182105        9.1299517678  MEMB      178             0.0000000000
     22189       178  OYPE      H3Y            50.3071297205       38.1992383521       10.0775790700  MEMB      178             0.0000000000
     22190       178  OYPE      C34            52.2131113852       38.2274475655        9.1874840286  MEMB      178             0.0000000000
     22191       178  OYPE      H4X            51.8184674803       37.7687971763        8.2557026812  MEMB      178             0.0000000000
     22192       178  OYPE      H4Y            52.9946312199       38.9446299933        8.8570342391  MEMB      178             0.0000000000
     22193       178  OYPE      C35            52.8390864924       37.0724966323       10.0372680338  MEMB      178             0.0000000000
     22194       178  OYPE      H5X            53.2443147557       37.3795034480       11.0251232333  MEMB      178             0.0000000000
     22195       178  OYPE      H5Y            53.7213215622       36.7430110155        9.4478430439  MEMB      178             0.0000000000
     22196       178  OYPE      C36            52.0571417681       35.7488243980       10.1549064910  MEMB      178             0.0000000000
     22197       178  OYPE      H6X            52.7851332594       34.9795532226       10.4904230658  MEMB      178             0.0000000000
     22198       178  OYPE      H6Y            51.2916159083       35.8441864786       10.9544041224  MEMB      178             0.0000000000
     22199       178  OYPE      C37            51.5149078012       35.2055864723        8.8464996727  MEMB      178             0.0000000000
     22200       178  OYPE      H7X            50.6108592346       35.8229054962        8.6569361588  MEMB      178             0.0000000000
     22201       178  OYPE      H7Y            52.2508014823       35.4736174226        8.0585016224  MEMB      178             0.0000000000
     22202       178  OYPE      C38            51.1453318638       33.6703220951        8.8653192489  MEMB      178             0.0000000000
     22203       178  OYPE      H8X            52.0017012376       33.0040934065        9.1042589470  MEMB      178             0.0000000000
     22204       178  OYPE      H8Y            50.5693280055       33.5591425908        9.8088125950  MEMB      178             0.0000000000
     22205       178  OYPE      C39            50.3471319880       33.0376288813        7.7326535201  MEMB      178             0.0000000000
     22206       178  OYPE      H9X            50.0852936384       31.9986781129        7.9816941736  MEMB      178             0.0000000000
     22207       178  OYPE      C310           50.1024010612       33.4926943327        6.4728607467  MEMB      178             0.0000000000
     22208       178  OYPE      H10X           49.4658757875       32.8557080759        5.8411289138  MEMB      178             0.0000000000
     22209       178  OYPE      C311           50.4485640208       34.7607326811        5.8485063962  MEMB      178             0.0000000000
     22210       178  OYPE      H11X           49.9421866568       35.5887697289        6.3891154339  MEMB      178             0.0000000000
     22211       178  OYPE      H11Y           51.5460802026       34.8850910073        5.7288639749  MEMB      178             0.0000000000
     22212       178  OYPE      C312           49.8665202636       34.7629228081        4.4205985555  MEMB      178             0.0000000000
     22213       178  OYPE      H12X           48.7772986675       34.5454673545        4.4457087323  MEMB      178             0.0000000000
     22214       178  OYPE      H12Y           50.3604596930       33.9829664798        3.8025263545  MEMB      178             0.0000000000
     22215       178  OYPE      C313           50.1564659270       36.1245394076        3.7595063943  MEMB      178             0.0000000000
     22216       178  OYPE      H13X           49.5878401006       36.2897149766        2.8194525579  MEMB      178             0.0000000000
     22217       178  OYPE      H13Y           49.9091747958       36.9600537587        4.4487696850  MEMB      178             0.0000000000
     22218       178  OYPE      C314           51.6656333286       36.2977965300        3.4510261256  MEMB      178             0.0000000000
     22219       178  OYPE      H14X           52.0001174051       35.4266173012        2.8481257922  MEMB      178             0.0000000000
     22220       178  OYPE      H14Y           52.2424933355       36.2060304714        4.3960835749  MEMB      178             0.0000000000
     22221       178  OYPE      C315           51.9948425634       37.7382689591        3.0245882386  MEMB      178             0.0000000000
     22222       178  OYPE      H15X           53.0655297180       37.8206309082        2.7396911266  MEMB      178             0.0000000000
     22223       178  OYPE      H15Y           51.8775656223       38.3128582882        3.9682059277  MEMB      178             0.0000000000
     22224       178  OYPE      C316           51.0908905849       38.3219709206        1.9186198053  MEMB      178             0.0000000000
     22225       178  OYPE      H16X           50.1228859472       38.5431326213        2.4169930324  MEMB      178             0.0000000000
     22226       178  OYPE      H16Y           50.8586947751       37.5809946697        1.1240376087  MEMB      178             0.0000000000
     22227       178  OYPE      C317           51.6012191246       39.6471966167        1.2951847905  MEMB      178             0.0000000000
     22228       178  OYPE      H17X           51.4348932522       40.5190846730        1.9633666082  MEMB      178             0.0000000000
     22229       178  OYPE      H17Y           51.0075785554       39.8380976452        0.3756905770  MEMB      178             0.0000000000
     22230       178  OYPE      C318           53.0383938725       39.5883685038        0.7625896384  MEMB      178             0.0000000000
     22231       178  OYPE      H18X           53.2969774678       40.5904617473        0.3585287025  MEMB      178             0.0000000000
     22232       178  OYPE      H18Y           53.7458630573       39.4369503254        1.6057265454  MEMB      178             0.0000000000
     22233       178  OYPE      H18Z           53.2635445973       38.7394464218        0.0821789622  MEMB      178             0.0000000000
     22234       179  QMPE      N             -35.7854250118      -52.3796857448       21.3544351877  MEMB      179             0.0000000000
     22235       179  QMPE      HN1           -35.6903402190      -52.5332654727       22.3786285143  MEMB      179             0.0000000000
     22236       179  QMPE      HN2           -36.5478018794      -51.6758264506       21.2839837317  MEMB      179             0.0000000000
     22237       179  QMPE      HN3           -36.1856059881      -53.2471193716       20.9433219085  MEMB      179             0.0000000000
     22238       179  QMPE      C12           -34.5046156731      -51.9775893127       20.6734993915  MEMB      179             0.0000000000
     22239       179  QMPE      H12A          -33.7186673849      -52.6722756667       21.0395828612  MEMB      179             0.0000000000
     22240       179  QMPE      H12B          -34.3734014991      -50.9435849802       21.0581280056  MEMB      179             0.0000000000
     22241       179  QMPE      C11           -34.4594754306      -51.9576489716       19.1482877285  MEMB      179             0.0000000000
     22242       179  QMPE      H11A          -33.4174754186      -51.7479118537       18.8249192285  MEMB      179             0.0000000000
     22243       179  QMPE      H11B          -35.0396433705      -51.0796218052       18.7922056820  MEMB      179             0.0000000000
     22244       179  QMPE      P             -34.0268462902      -54.2712000097       18.2048006335  MEMB      179             0.0000000000
     22245       179  QMPE      O13           -34.7786349988      -55.5472138944       18.3242239889  MEMB      179             0.0000000000
     22246       179  QMPE      O14           -32.7397542658      -54.1465518797       18.9421838392  MEMB      179             0.0000000000
     22247       179  QMPE      O11           -33.9204244988      -53.8704173118       16.7053705104  MEMB      179             0.0000000000
     22248       179  QMPE      O12           -35.0248107562      -53.1753811068       18.6471986804  MEMB      179             0.0000000000
     22249       179  QMPE      C1            -35.0617154109      -53.4716819967       15.8802052745  MEMB      179             0.0000000000
     22250       179  QMPE      HA            -35.1280539343      -52.3645077668       15.8162878380  MEMB      179             0.0000000000
     22251       179  QMPE      HB            -35.9782850939      -53.9900293206       16.2345176742  MEMB      179             0.0000000000
     22252       179  QMPE      C2            -34.8094814365      -53.8192916710       14.3693187278  MEMB      179             0.0000000000
     22253       179  QMPE      HS            -35.8375233408      -53.7903320849       13.9490664070  MEMB      179             0.0000000000
     22254       179  QMPE      O21           -34.0709807316      -55.0439469941       14.3442263183  MEMB      179             0.0000000000
     22255       179  QMPE      C21           -34.5690343315      -56.1021649560       13.7690412618  MEMB      179             0.0000000000
     22256       179  QMPE      O22           -35.7091539387      -56.3076418877       13.5248216745  MEMB      179             0.0000000000
     22257       179  QMPE      C22           -33.3735489818      -56.9463883270       13.2593586096  MEMB      179             0.0000000000
     22258       179  QMPE      H2R           -33.7667077449      -57.9379213581       12.9485383460  MEMB      179             0.0000000000
     22259       179  QMPE      H2S           -32.6919410290      -57.2902065091       14.0665268732  MEMB      179             0.0000000000
     22260       179  QMPE      C3            -34.1395644423      -52.7077611330       13.5570588147  MEMB      179             0.0000000000
     22261       179  QMPE      HX            -33.2592790850      -52.2884332246       14.0895839350  MEMB      179             0.0000000000
     22262       179  QMPE      HY            -34.7035909840      -51.7507883225       13.5370998627  MEMB      179             0.0000000000
     22263       179  QMPE      O31           -33.7416667548      -53.0710147193       12.2303264778  MEMB      179             0.0000000000
     22264       179  QMPE      C31           -34.6360072320      -53.2507125536       11.3219120006  MEMB      179             0.0000000000
     22265       179  QMPE      O32           -35.8246745202      -53.1204400681       11.4344901362  MEMB      179             0.0000000000
     22266       179  QMPE      C32           -33.8992750465      -53.5820852914       10.0213593797  MEMB      179             0.0000000000
     22267       179  QMPE      H2X           -32.8864678009      -53.1254450193       10.0260897342  MEMB      179             0.0000000000
     22268       179  QMPE      H2Y           -33.9444739225      -54.6748513206        9.8260624095  MEMB      179             0.0000000000
     22269       179  QMPE      C23           -32.4658735643      -56.2366706427       12.1452858407  MEMB      179             0.0000000000
     22270       179  QMPE      H3R           -32.1071171943      -55.2266329783       12.4375854572  MEMB      179             0.0000000000
     22271       179  QMPE      H3S           -33.1314341082      -56.1462432657       11.2603154380  MEMB      179             0.0000000000
     22272       179  QMPE      C24           -31.2381912066      -57.0151048529       11.7487710708  MEMB      179             0.0000000000
     22273       179  QMPE      H4R           -31.5477813028      -58.0577410852       11.5220882379  MEMB      179             0.0000000000
     22274       179  QMPE      H4S           -30.6620079785      -56.9462231686       12.6961830881  MEMB      179             0.0000000000
     22275       179  QMPE      C25           -30.4756134619      -56.3940259337       10.5875319118  MEMB      179             0.0000000000
     22276       179  QMPE      H5R           -29.4008155145      -56.6752202621       10.5797555949  MEMB      179             0.0000000000
     22277       179  QMPE      H5S           -30.5532926990      -55.2992382020       10.7599473497  MEMB      179             0.0000000000
     22278       179  QMPE      C26           -31.1045337646      -56.5853653166        9.2512289544  MEMB      179             0.0000000000
     22279       179  QMPE      H6R           -30.4635812788      -55.9978771674        8.5595943253  MEMB      179             0.0000000000
     22280       179  QMPE      H6S           -32.1152716897      -56.1250298043        9.2798783288  MEMB      179             0.0000000000
     22281       179  QMPE      C27           -31.3914806186      -58.0535687039        8.9372021835  MEMB      179             0.0000000000
     22282       179  QMPE      H7R           -31.6718259997      -58.7620626863        9.7457589240  MEMB      179             0.0000000000
     22283       179  QMPE      H7S           -30.4179302956      -58.5306163895        8.6944134453  MEMB      179             0.0000000000
     22284       179  QMPE      C28           -32.2525527172      -58.3631848059        7.6594269922  MEMB      179             0.0000000000
     22285       179  QMPE      H8R           -32.2168116251      -59.4619706929        7.4990760115  MEMB      179             0.0000000000
     22286       179  QMPE      H8S           -31.8178610934      -57.9429602414        6.7273452984  MEMB      179             0.0000000000
     22287       179  QMPE      C29           -33.6868789153      -57.8637981305        7.7495640111  MEMB      179             0.0000000000
     22288       179  QMPE      H9R           -33.9128217449      -56.8207002925        8.0581383532  MEMB      179             0.0000000000
     22289       179  QMPE      C217          -34.8158250637      -58.9039718334        7.7939310137  MEMB      179             0.0000000000
     22290       179  QMPE      H17R          -34.6322537106      -59.9579435625        7.6256040200  MEMB      179             0.0000000000
     22291       179  QMPE      H17S          -35.5953045876      -58.6137654816        8.4875305989  MEMB      179             0.0000000000
     22292       179  QMPE      C210          -34.5615469720      -58.1701116340        6.5113514220  MEMB      179             0.0000000000
     22293       179  QMPE      H10R          -35.4314173101      -57.5066373597        6.3178354250  MEMB      179             0.0000000000
     22294       179  QMPE      C211          -34.0796971658      -59.0646983779        5.4110495374  MEMB      179             0.0000000000
     22295       179  QMPE      H11R          -33.4048591783      -59.8536447314        5.8066221021  MEMB      179             0.0000000000
     22296       179  QMPE      H11S          -34.9203455149      -59.5995956677        4.9196063854  MEMB      179             0.0000000000
     22297       179  QMPE      C212          -33.4370851707      -58.2171006669        4.3246826714  MEMB      179             0.0000000000
     22298       179  QMPE      H12R          -32.5106534582      -57.7508533273        4.7230026400  MEMB      179             0.0000000000
     22299       179  QMPE      H12S          -34.0126035624      -57.3511117074        3.9333224225  MEMB      179             0.0000000000
     22300       179  QMPE      C213          -32.8585769029      -59.0940298195        3.2174547524  MEMB      179             0.0000000000
     22301       179  QMPE      H13R          -33.5659189980      -59.4898039022        2.4576182594  MEMB      179             0.0000000000
     22302       179  QMPE      H13S          -32.2262689952      -59.8726920958        3.6951501644  MEMB      179             0.0000000000
     22303       179  QMPE      C214          -31.8305307767      -58.2519245256        2.3840621726  MEMB      179             0.0000000000
     22304       179  QMPE      H14R          -32.1977292304      -57.2043588198        2.4298095801  MEMB      179             0.0000000000
     22305       179  QMPE      H14S          -31.9651526091      -58.5570585175        1.3243012944  MEMB      179             0.0000000000
     22306       179  QMPE      C215          -30.3364595819      -58.1961439360        2.8344521496  MEMB      179             0.0000000000
     22307       179  QMPE      H15R          -30.3267952935      -58.1981084194        3.9454078446  MEMB      179             0.0000000000
     22308       179  QMPE      H15S          -29.6382898651      -57.3530081604        2.6447111588  MEMB      179             0.0000000000
     22309       179  QMPE      C216          -29.4409071303      -59.3748609620        2.3239041951  MEMB      179             0.0000000000
     22310       179  QMPE      H16R          -29.4932597147      -59.3147315080        1.2157677629  MEMB      179             0.0000000000
     22311       179  QMPE      H16S          -29.8661780379      -60.3804280096        2.5295737916  MEMB      179             0.0000000000
     22312       179  QMPE      H16T          -28.4242990623      -59.4070013623        2.7708894990  MEMB      179             0.0000000000
     22313       179  QMPE      C33           -34.4147036573      -52.8639798942        8.7333268272  MEMB      179             0.0000000000
     22314       179  QMPE      H3X           -34.0772382863      -51.8054825781        8.7379931716  MEMB      179             0.0000000000
     22315       179  QMPE      H3Y           -35.5193006814      -52.9757755623        8.7744146387  MEMB      179             0.0000000000
     22316       179  QMPE      C34           -33.9050633473      -53.5373442615        7.4745897018  MEMB      179             0.0000000000
     22317       179  QMPE      H4X           -34.3418384131      -54.5449482389        7.3064153913  MEMB      179             0.0000000000
     22318       179  QMPE      H4Y           -32.8115058777      -53.7157806393        7.3932653002  MEMB      179             0.0000000000
     22319       179  QMPE      C35           -34.5200001235      -52.8384091805        6.1883406821  MEMB      179             0.0000000000
     22320       179  QMPE      H5X           -34.1999049030      -51.7746467400        6.2047606016  MEMB      179             0.0000000000
     22321       179  QMPE      H5Y           -35.6200453279      -52.7222509907        6.2919230661  MEMB      179             0.0000000000
     22322       179  QMPE      C36           -34.1392931974      -53.6498858943        4.9947682846  MEMB      179             0.0000000000
     22323       179  QMPE      H6X           -34.4557102196      -54.7033333926        5.1511320505  MEMB      179             0.0000000000
     22324       179  QMPE      H6Y           -33.0414775245      -53.6885626570        4.8285583152  MEMB      179             0.0000000000
     22325       179  QMPE      C37           -34.7970838196      -53.2810489452        3.6675056546  MEMB      179             0.0000000000
     22326       179  QMPE      H7X           -35.8237342986      -53.7011000535        3.7296906911  MEMB      179             0.0000000000
     22327       179  QMPE      H7Y           -34.7949305035      -52.1719088345        3.7317258015  MEMB      179             0.0000000000
     22328       179  QMPE      C38           -34.1985528996      -53.8598439054        2.3925889876  MEMB      179             0.0000000000
     22329       179  QMPE      H8X           -34.6566599989      -54.8714329215        2.3587294335  MEMB      179             0.0000000000
     22330       179  QMPE      H8Y           -34.6308155741      -53.3520365374        1.5039922422  MEMB      179             0.0000000000
     22331       179  QMPE      C39           -32.6961630554      -53.8242376152        2.2151248819  MEMB      179             0.0000000000
     22332       179  QMPE      H9X           -32.3004053631      -54.2342620746        1.2614061537  MEMB      179             0.0000000000
     22333       179  QMPE      H9Y           -32.2128234582      -54.4872196593        2.9642295451  MEMB      179             0.0000000000
     22334       179  QMPE      C310          -32.0863270739      -52.3525757870        2.3406173063  MEMB      179             0.0000000000
     22335       179  QMPE      H10X          -31.0036012258      -52.2853066990        2.5804099508  MEMB      179             0.0000000000
     22336       179  QMPE      H10Y          -32.5235730093      -51.9222708042        3.2668867183  MEMB      179             0.0000000000
     22337       179  QMPE      C311          -32.2654917768      -51.4516728458        1.1223872643  MEMB      179             0.0000000000
     22338       179  QMPE      H11X          -32.0698566750      -51.8732926786        0.1132866858  MEMB      179             0.0000000000
     22339       179  QMPE      H11Y          -31.5103490514      -50.6392108948        1.1855230583  MEMB      179             0.0000000000
     22340       179  QMPE      C312          -33.5175622203      -50.6061162902        1.0277258120  MEMB      179             0.0000000000
     22341       179  QMPE      H12X          -33.3149804345      -49.7539042690        1.7111108597  MEMB      179             0.0000000000
     22342       179  QMPE      H12Y          -34.4236975517      -51.1503183163        1.3699001996  MEMB      179             0.0000000000
     22343       179  QMPE      C313          -33.7800195499      -50.0198355390       -0.4372874932  MEMB      179             0.0000000000
     22344       179  QMPE      H13X          -34.6248065050      -49.3125148888       -0.2946222734  MEMB      179             0.0000000000
     22345       179  QMPE      H13Y          -32.7953137552      -49.5232137393       -0.5716125885  MEMB      179             0.0000000000
     22346       179  QMPE      C314          -34.0747623272      -50.9773044213       -1.5965776245  MEMB      179             0.0000000000
     22347       179  QMPE      H14X          -34.9098706220      -51.6929455266       -1.4391837087  MEMB      179             0.0000000000
     22348       179  QMPE      H14Y          -33.2219693219      -51.6396714083       -1.8579863650  MEMB      179             0.0000000000
     22349       179  QMPE      C315          -34.3637621543      -50.2517411122       -2.9611920514  MEMB      179             0.0000000000
     22350       179  QMPE      H15X          -35.0632174990      -49.4363700879       -2.6779027196  MEMB      179             0.0000000000
     22351       179  QMPE      H15Y          -33.4203779995      -49.9123391984       -3.4398924934  MEMB      179             0.0000000000
     22352       179  QMPE      H15Z          -34.8898659555      -50.9771226998       -3.6179709816  MEMB      179             0.0000000000
     22353       180  PMPE      N              53.2156884642       29.4541703406       16.9679048411  MEMB      180             0.0000000000
     22354       180  PMPE      HN1            52.3933036635       29.2408572313       17.5677220472  MEMB      180             0.0000000000
     22355       180  PMPE      HN2            52.8779102299       29.4971388925       15.9852249992  MEMB      180             0.0000000000
     22356       180  PMPE      HN3            53.9196514806       28.6953402095       17.0689632092  MEMB      180             0.0000000000
     22357       180  PMPE      C12            53.8816853574       30.7056568207       17.4964560944  MEMB      180             0.0000000000
     22358       180  PMPE      H12A           53.1175755097       31.5048752118       17.6046553807  MEMB      180             0.0000000000
     22359       180  PMPE      H12B           54.6988864141       30.9325966731       16.7788198248  MEMB      180             0.0000000000
     22360       180  PMPE      C11            54.5586646020       30.4080724879       18.8352602813  MEMB      180             0.0000000000
     22361       180  PMPE      H11A           53.8725998327       29.8581424821       19.5143870056  MEMB      180             0.0000000000
     22362       180  PMPE      H11B           54.9435827433       31.3846618450       19.1991725298  MEMB      180             0.0000000000
     22363       180  PMPE      P              56.7643131145       29.4122555701       19.7937957741  MEMB      180             0.0000000000
     22364       180  PMPE      O13            56.2669463198       29.7532079949       21.1610142157  MEMB      180             0.0000000000
     22365       180  PMPE      O14            57.9722250925       30.1102032183       19.3711528257  MEMB      180             0.0000000000
     22366       180  PMPE      O11            56.9969148195       27.8996222425       19.7631989606  MEMB      180             0.0000000000
     22367       180  PMPE      O12            55.6903686277       29.6203689226       18.6112169921  MEMB      180             0.0000000000
     22368       180  PMPE      C1             56.8871430176       27.0365683836       18.6105359700  MEMB      180             0.0000000000
     22369       180  PMPE      HA             55.9846469324       27.1948567724       17.9822314349  MEMB      180             0.0000000000
     22370       180  PMPE      HB             56.8954242111       25.9825099263       18.9615534133  MEMB      180             0.0000000000
     22371       180  PMPE      C2             58.0378221934       27.3041293929       17.6894835989  MEMB      180             0.0000000000
     22372       180  PMPE      HS             58.9450358785       27.0833204099       18.2915864306  MEMB      180             0.0000000000
     22373       180  PMPE      O21            57.9290405358       28.5509147366       17.0041512618  MEMB      180             0.0000000000
     22374       180  PMPE      C21            59.0308144602       29.2067804553       16.6671384152  MEMB      180             0.0000000000
     22375       180  PMPE      O22            60.1714531092       28.7706593509       16.8299686730  MEMB      180             0.0000000000
     22376       180  PMPE      C22            58.7623998650       30.5643754827       16.1299587923  MEMB      180             0.0000000000
     22377       180  PMPE      H2R            59.1453371206       31.3073622908       16.8618401953  MEMB      180             0.0000000000
     22378       180  PMPE      H2S            57.7138879605       30.8455346048       15.8935408057  MEMB      180             0.0000000000
     22379       180  PMPE      C3             58.1096212141       26.2494243511       16.5222614559  MEMB      180             0.0000000000
     22380       180  PMPE      HX             58.3619597392       25.2488953589       16.9340721229  MEMB      180             0.0000000000
     22381       180  PMPE      HY             58.9373961172       26.5940816122       15.8662731675  MEMB      180             0.0000000000
     22382       180  PMPE      O31            56.8541916649       26.1898830107       15.8461195965  MEMB      180             0.0000000000
     22383       180  PMPE      C31            56.0421321188       25.0840664555       16.0111263922  MEMB      180             0.0000000000
     22384       180  PMPE      O32            56.2324383354       24.1015874215       16.7315631531  MEMB      180             0.0000000000
     22385       180  PMPE      C32            54.8573731679       25.1815641386       15.0793524642  MEMB      180             0.0000000000
     22386       180  PMPE      H2X            54.3386404263       24.1992996859       15.0595077266  MEMB      180             0.0000000000
     22387       180  PMPE      H2Y            55.1349585001       25.4556338365       14.0390865677  MEMB      180             0.0000000000
     22388       180  PMPE      C23            59.4488939147       30.6794463959       14.7015160003  MEMB      180             0.0000000000
     22389       180  PMPE      H3R            60.4564941848       30.2134863803       14.7456022679  MEMB      180             0.0000000000
     22390       180  PMPE      H3S            59.4631162001       31.7824329005       14.5690789785  MEMB      180             0.0000000000
     22391       180  PMPE      C24            58.7479261282       29.9647313354       13.5287421922  MEMB      180             0.0000000000
     22392       180  PMPE      H4R            58.5284648126       28.8974029900       13.7454631009  MEMB      180             0.0000000000
     22393       180  PMPE      H4S            59.5279258320       30.0708576591       12.7447406293  MEMB      180             0.0000000000
     22394       180  PMPE      C25            57.4029235222       30.5824412579       13.0729886666  MEMB      180             0.0000000000
     22395       180  PMPE      H5R            57.5131459762       31.5825255720       12.6018161933  MEMB      180             0.0000000000
     22396       180  PMPE      H5S            56.7448720072       30.7702267193       13.9482178405  MEMB      180             0.0000000000
     22397       180  PMPE      C26            56.6780991413       29.6208565507       12.1458481890  MEMB      180             0.0000000000
     22398       180  PMPE      H6R            55.6270386373       29.9748788965       12.0805718528  MEMB      180             0.0000000000
     22399       180  PMPE      H6S            56.8220576240       28.5972469977       12.5530583754  MEMB      180             0.0000000000
     22400       180  PMPE      C27            57.3131056878       29.5288738428       10.7190459514  MEMB      180             0.0000000000
     22401       180  PMPE      H7R            56.6670062003       28.8818024412       10.0880346683  MEMB      180             0.0000000000
     22402       180  PMPE      H7S            58.4059749324       29.3297217029       10.7018377704  MEMB      180             0.0000000000
     22403       180  PMPE      C28            57.0313351028       30.7875658132        9.9349530082  MEMB      180             0.0000000000
     22404       180  PMPE      H8R            57.6564487275       31.6230664731       10.3163878175  MEMB      180             0.0000000000
     22405       180  PMPE      H8S            55.9800247064       31.1240739972       10.0607691835  MEMB      180             0.0000000000
     22406       180  PMPE      C29            57.4056014246       30.3822030726        8.5066182046  MEMB      180             0.0000000000
     22407       180  PMPE      H9R            57.1971966835       29.3345163322        8.2012645650  MEMB      180             0.0000000000
     22408       180  PMPE      C217           58.8396220281       30.7512828341        8.1755017359  MEMB      180             0.0000000000
     22409       180  PMPE      H17R           59.3592898602       29.9030820990        7.7472613017  MEMB      180             0.0000000000
     22410       180  PMPE      H17S           59.3522327186       31.5141459233        8.7483537258  MEMB      180             0.0000000000
     22411       180  PMPE      C210           57.7108449046       31.3263120584        7.3193495366  MEMB      180             0.0000000000
     22412       180  PMPE      H10R           57.6725138452       30.8616007220        6.3109368812  MEMB      180             0.0000000000
     22413       180  PMPE      C211           57.4854285263       32.7965769591        7.4384530825  MEMB      180             0.0000000000
     22414       180  PMPE      H11R           58.1171219591       33.1240782884        8.2916978727  MEMB      180             0.0000000000
     22415       180  PMPE      H11S           56.4399907896       32.9397813943        7.7861210492  MEMB      180             0.0000000000
     22416       180  PMPE      C212           57.7969616207       33.7493648831        6.2046109956  MEMB      180             0.0000000000
     22417       180  PMPE      H12R           58.8703841958       33.5419454789        6.0069705058  MEMB      180             0.0000000000
     22418       180  PMPE      H12S           57.7007310257       34.7168321474        6.7422608625  MEMB      180             0.0000000000
     22419       180  PMPE      C213           56.7892355664       33.6918991072        5.0523647428  MEMB      180             0.0000000000
     22420       180  PMPE      H13R           55.9303015838       34.0767766605        5.6426383301  MEMB      180             0.0000000000
     22421       180  PMPE      H13S           56.5173375623       32.6775551107        4.6897368206  MEMB      180             0.0000000000
     22422       180  PMPE      C214           57.1900299716       34.5323277537        3.8457563411  MEMB      180             0.0000000000
     22423       180  PMPE      H14R           58.0057601062       34.1669507159        3.1859036940  MEMB      180             0.0000000000
     22424       180  PMPE      H14S           57.5305300601       35.5248003263        4.2109675324  MEMB      180             0.0000000000
     22425       180  PMPE      C215           56.0211031363       34.8289800335        2.9150098494  MEMB      180             0.0000000000
     22426       180  PMPE      H15R           55.2130153967       35.3070005025        3.5089890757  MEMB      180             0.0000000000
     22427       180  PMPE      H15S           55.6939018864       33.9673255124        2.2946770071  MEMB      180             0.0000000000
     22428       180  PMPE      C216           56.4143890966       35.7550238517        1.7496044901  MEMB      180             0.0000000000
     22429       180  PMPE      H16R           56.5115843783       35.2314531761        0.7745425623  MEMB      180             0.0000000000
     22430       180  PMPE      H16S           55.6966753325       36.6000388009        1.6777854332  MEMB      180             0.0000000000
     22431       180  PMPE      H16T           57.4448907854       36.1228443160        1.9422065358  MEMB      180             0.0000000000
     22432       180  PMPE      C33            53.9059280900       26.2648241652       15.6091837459  MEMB      180             0.0000000000
     22433       180  PMPE      H3X            54.4054242209       27.2404409943       15.7908337442  MEMB      180             0.0000000000
     22434       180  PMPE      H3Y            53.3797631588       25.9896007125       16.5481852295  MEMB      180             0.0000000000
     22435       180  PMPE      C34            52.7908584142       26.5725085612       14.6628601715  MEMB      180             0.0000000000
     22436       180  PMPE      H4X            52.0727580506       27.1566233326       15.2772407146  MEMB      180             0.0000000000
     22437       180  PMPE      H4Y            52.0810943761       25.7332738033       14.5008689400  MEMB      180             0.0000000000
     22438       180  PMPE      C35            53.2055288945       27.2453244541       13.3728868309  MEMB      180             0.0000000000
     22439       180  PMPE      H5X            53.8094395403       26.5025266512       12.8090922439  MEMB      180             0.0000000000
     22440       180  PMPE      H5Y            53.6596163742       28.2046862084       13.7011400781  MEMB      180             0.0000000000
     22441       180  PMPE      C36            52.0142434967       27.5523730826       12.4429007976  MEMB      180             0.0000000000
     22442       180  PMPE      H6X            51.2509905685       28.0365594410       13.0889109131  MEMB      180             0.0000000000
     22443       180  PMPE      H6Y            51.6438970033       26.5973824535       12.0126017409  MEMB      180             0.0000000000
     22444       180  PMPE      C37            52.4369987660       28.4836067235       11.2386905496  MEMB      180             0.0000000000
     22445       180  PMPE      H7X            52.8688241501       29.4614892908       11.5413347934  MEMB      180             0.0000000000
     22446       180  PMPE      H7Y            51.5353048241       28.7716474189       10.6570531036  MEMB      180             0.0000000000
     22447       180  PMPE      C38            53.4894411782       27.8003142544       10.2995937389  MEMB      180             0.0000000000
     22448       180  PMPE      H8X            53.0517273848       26.8037214603       10.0770395307  MEMB      180             0.0000000000
     22449       180  PMPE      H8Y            54.3882730321       27.4624677934       10.8584161663  MEMB      180             0.0000000000
     22450       180  PMPE      C39            53.8385152267       28.6587002057        9.0955281814  MEMB      180             0.0000000000
     22451       180  PMPE      H9X            54.6155089903       29.4108025039        9.3503689393  MEMB      180             0.0000000000
     22452       180  PMPE      H9Y            52.9768743409       29.2114761267        8.6638632039  MEMB      180             0.0000000000
     22453       180  PMPE      C310           54.4560979367       27.7996953578        7.9460140167  MEMB      180             0.0000000000
     22454       180  PMPE      H10X           53.9288347406       26.8252635421        7.8635693991  MEMB      180             0.0000000000
     22455       180  PMPE      H10Y           55.4953358411       27.7061807537        8.3275385303  MEMB      180             0.0000000000
     22456       180  PMPE      C311           54.3796819645       28.5644377323        6.5452002583  MEMB      180             0.0000000000
     22457       180  PMPE      H11X           54.8937560923       29.5491271577        6.5660659949  MEMB      180             0.0000000000
     22458       180  PMPE      H11Y           53.3493852502       28.8814637277        6.2763062075  MEMB      180             0.0000000000
     22459       180  PMPE      C312           55.1009911089       27.7901238847        5.4857643900  MEMB      180             0.0000000000
     22460       180  PMPE      H12X           54.3816359441       27.0364777256        5.0999318077  MEMB      180             0.0000000000
     22461       180  PMPE      H12Y           56.0568192517       27.3473148048        5.8387991321  MEMB      180             0.0000000000
     22462       180  PMPE      C313           55.4204493732       28.5850777860        4.2347599628  MEMB      180             0.0000000000
     22463       180  PMPE      H13X           56.1710075398       29.2965896690        4.6406347855  MEMB      180             0.0000000000
     22464       180  PMPE      H13Y           54.5368063958       29.1269160298        3.8348757342  MEMB      180             0.0000000000
     22465       180  PMPE      C314           55.9522616345       27.8020006666        3.0118137840  MEMB      180             0.0000000000
     22466       180  PMPE      H14X           55.2647777282       27.0316261487        2.6016795922  MEMB      180             0.0000000000
     22467       180  PMPE      H14Y           56.8672091193       27.2478807706        3.3120525983  MEMB      180             0.0000000000
     22468       180  PMPE      C315           56.3449796207       28.7573125687        1.9403144475  MEMB      180             0.0000000000
     22469       180  PMPE      H15X           55.3648301363       28.9886653163        1.4711621089  MEMB      180             0.0000000000
     22470       180  PMPE      H15Y           56.9792963223       28.2194357336        1.2036650775  MEMB      180             0.0000000000
     22471       180  PMPE      C316           56.9710056966       30.0713148294        2.3590525535  MEMB      180             0.0000000000
     22472       180  PMPE      H16X           56.3844937499       30.7412782853        3.0234870184  MEMB      180             0.0000000000
     22473       180  PMPE      H16Y           57.1396777189       30.7857224422        1.5250907751  MEMB      180             0.0000000000
     22474       180  PMPE      H16Z           57.9599787948       29.9022730068        2.8362086039  MEMB      180             0.0000000000
     22475       181  QMPE      N              47.5736306934       46.0746511680       17.7813511285  MEMB      181             0.0000000000
     22476       181  QMPE      HN1            46.6492353448       46.0305026347       17.3068577775  MEMB      181             0.0000000000
     22477       181  QMPE      HN2            47.5738679146       47.0285532192       18.1956833324  MEMB      181             0.0000000000
     22478       181  QMPE      HN3            48.3062442866       45.8421809261       17.0807550030  MEMB      181             0.0000000000
     22479       181  QMPE      C12            47.6305189808       44.9731523851       18.8245323500  MEMB      181             0.0000000000
     22480       181  QMPE      H12A           48.5043508535       45.1642194362       19.4834953730  MEMB      181             0.0000000000
     22481       181  QMPE      H12B           47.7455692505       44.0144124625       18.2750761343  MEMB      181             0.0000000000
     22482       181  QMPE      C11            46.4139461878       44.9803889738       19.7364240153  MEMB      181             0.0000000000
     22483       181  QMPE      H11A           46.3319880213       46.0080689744       20.1505227865  MEMB      181             0.0000000000
     22484       181  QMPE      H11B           46.5029542365       44.3198338062       20.6252802276  MEMB      181             0.0000000000
     22485       181  QMPE      P              44.4402678866       43.3116976440       19.2076383181  MEMB      181             0.0000000000
     22486       181  QMPE      O13            43.2580569244       43.5064147821       20.0474431949  MEMB      181             0.0000000000
     22487       181  QMPE      O14            45.3937892844       42.2643404852       19.6333029697  MEMB      181             0.0000000000
     22488       181  QMPE      O11            43.9241560346       42.9755956731       17.7167201149  MEMB      181             0.0000000000
     22489       181  QMPE      O12            45.2293140075       44.6805196855       19.0525879059  MEMB      181             0.0000000000
     22490       181  QMPE      C1             43.3265647497       43.8466447782       16.8168359012  MEMB      181             0.0000000000
     22491       181  QMPE      HA             43.8536985952       44.8108818712       16.9802301849  MEMB      181             0.0000000000
     22492       181  QMPE      HB             42.2393501501       43.8394187598       17.0453821144  MEMB      181             0.0000000000
     22493       181  QMPE      C2             43.6656053250       43.4539779666       15.3283366771  MEMB      181             0.0000000000
     22494       181  QMPE      HS             43.3316538915       42.4242500924       15.0784210909  MEMB      181             0.0000000000
     22495       181  QMPE      O21            45.0989024225       43.5605759823       15.0882924813  MEMB      181             0.0000000000
     22496       181  QMPE      C21            45.7269990347       42.4426528422       15.3966245742  MEMB      181             0.0000000000
     22497       181  QMPE      O22            45.3138627892       41.3873152143       15.7481752479  MEMB      181             0.0000000000
     22498       181  QMPE      C22            47.2581519943       42.7517730853       15.2217484182  MEMB      181             0.0000000000
     22499       181  QMPE      H2R            47.7048022538       42.8421972296       16.2349849350  MEMB      181             0.0000000000
     22500       181  QMPE      H2S            47.4043105140       43.7413089900       14.7382433965  MEMB      181             0.0000000000
     22501       181  QMPE      C3             42.8381463185       44.3771739380       14.3778667795  MEMB      181             0.0000000000
     22502       181  QMPE      HX             43.1692262787       45.4264478262       14.5319168932  MEMB      181             0.0000000000
     22503       181  QMPE      HY             41.7851766911       44.2772234557       14.7178465436  MEMB      181             0.0000000000
     22504       181  QMPE      O31            43.0264777352       43.9167915719       13.0611589328  MEMB      181             0.0000000000
     22505       181  QMPE      C31            43.1509665829       44.8201471386       12.0802296003  MEMB      181             0.0000000000
     22506       181  QMPE      O32            42.8354869511       45.9529902941       12.1403793717  MEMB      181             0.0000000000
     22507       181  QMPE      C32            43.6635326914       44.1166348542       10.7811243581  MEMB      181             0.0000000000
     22508       181  QMPE      H2X            44.7561113973       44.3180139366       10.7873976822  MEMB      181             0.0000000000
     22509       181  QMPE      H2Y            43.4936687979       43.0189923890       10.8065859382  MEMB      181             0.0000000000
     22510       181  QMPE      C23            47.9585640630       41.5853705143       14.4499748176  MEMB      181             0.0000000000
     22511       181  QMPE      H3R            47.4098484724       40.6663766938       14.7477705458  MEMB      181             0.0000000000
     22512       181  QMPE      H3S            49.0390724378       41.6506439452       14.7000992379  MEMB      181             0.0000000000
     22513       181  QMPE      C24            47.8015680952       41.7494856699       12.9852873867  MEMB      181             0.0000000000
     22514       181  QMPE      H4R            46.7105768747       41.7198325307       12.7774895021  MEMB      181             0.0000000000
     22515       181  QMPE      H4S            48.2556477248       40.8339385748       12.5495052856  MEMB      181             0.0000000000
     22516       181  QMPE      C25            48.3489610923       42.9806589697       12.2047627868  MEMB      181             0.0000000000
     22517       181  QMPE      H5R            49.4568351225       42.9644415374       12.2864523923  MEMB      181             0.0000000000
     22518       181  QMPE      H5S            48.0098200676       43.9053260208       12.7188588705  MEMB      181             0.0000000000
     22519       181  QMPE      C26            47.8355295824       43.0823027847       10.7164831360  MEMB      181             0.0000000000
     22520       181  QMPE      H6R            46.7668974631       43.3861616104       10.7124564980  MEMB      181             0.0000000000
     22521       181  QMPE      H6S            47.8339222127       42.0288151074       10.3636627826  MEMB      181             0.0000000000
     22522       181  QMPE      C27            48.7118076259       43.9712338858        9.8522782166  MEMB      181             0.0000000000
     22523       181  QMPE      H7R            49.6770809377       43.4878267283        9.5898157632  MEMB      181             0.0000000000
     22524       181  QMPE      H7S            49.0426259447       44.9046168289       10.3559413191  MEMB      181             0.0000000000
     22525       181  QMPE      C28            48.1254998987       44.2502781281        8.4511395779  MEMB      181             0.0000000000
     22526       181  QMPE      H8R            47.2286779195       44.9026706163        8.5175882064  MEMB      181             0.0000000000
     22527       181  QMPE      H8S            47.7922704117       43.2938498151        7.9944952288  MEMB      181             0.0000000000
     22528       181  QMPE      C29            49.2213979785       44.7664080523        7.4985600389  MEMB      181             0.0000000000
     22529       181  QMPE      H9R            49.8124641435       43.9347960947        7.0588063475  MEMB      181             0.0000000000
     22530       181  QMPE      C217           49.8638400417       46.1397518980        7.5672127555  MEMB      181             0.0000000000
     22531       181  QMPE      H17R           49.5885245917       46.5925095486        8.5117238079  MEMB      181             0.0000000000
     22532       181  QMPE      H17S           50.9048140660       46.0448193941        7.2839279303  MEMB      181             0.0000000000
     22533       181  QMPE      C210           48.8475556719       45.8928348687        6.5596633885  MEMB      181             0.0000000000
     22534       181  QMPE      H10R           49.2010192349       45.6460170309        5.5357176389  MEMB      181             0.0000000000
     22535       181  QMPE      C211           47.5119598364       46.6067764576        6.6625932259  MEMB      181             0.0000000000
     22536       181  QMPE      H11R           47.0453134600       46.6547921610        7.6696966134  MEMB      181             0.0000000000
     22537       181  QMPE      H11S           47.7362217992       47.6879304066        6.5395748186  MEMB      181             0.0000000000
     22538       181  QMPE      C212           46.5214062405       46.1541884575        5.5388666177  MEMB      181             0.0000000000
     22539       181  QMPE      H12R           46.6427163890       45.0537704295        5.4456733295  MEMB      181             0.0000000000
     22540       181  QMPE      H12S           46.8938606174       46.7028887612        4.6475040422  MEMB      181             0.0000000000
     22541       181  QMPE      C213           45.0615041552       46.3634951536        5.8721021936  MEMB      181             0.0000000000
     22542       181  QMPE      H13R           44.7901442443       47.4378299601        5.7915441329  MEMB      181             0.0000000000
     22543       181  QMPE      H13S           44.8795862099       45.9595502688        6.8909523461  MEMB      181             0.0000000000
     22544       181  QMPE      C214           44.2047681982       45.5197981775        4.8893561198  MEMB      181             0.0000000000
     22545       181  QMPE      H14R           43.2003570006       45.3307055887        5.3249276261  MEMB      181             0.0000000000
     22546       181  QMPE      H14S           44.6538430621       44.5388459971        4.6240527521  MEMB      181             0.0000000000
     22547       181  QMPE      C215           44.0550533679       46.3072366426        3.5503002682  MEMB      181             0.0000000000
     22548       181  QMPE      H15R           44.2386048532       47.3967601916        3.6667836362  MEMB      181             0.0000000000
     22549       181  QMPE      H15S           43.0121421625       46.3337584142        3.1682617001  MEMB      181             0.0000000000
     22550       181  QMPE      C216           45.0231291759       45.7611824496        2.4726254336  MEMB      181             0.0000000000
     22551       181  QMPE      H16R           45.9217963757       45.3088395280        2.9439039440  MEMB      181             0.0000000000
     22552       181  QMPE      H16S           45.1578085735       46.5158240096        1.6684499615  MEMB      181             0.0000000000
     22553       181  QMPE      H16T           44.5050007110       44.8864730356        2.0245766800  MEMB      181             0.0000000000
     22554       181  QMPE      C33            42.9287722166       44.6353528086        9.5233735249  MEMB      181             0.0000000000
     22555       181  QMPE      H3X            42.9574746193       45.7459670602        9.5291428260  MEMB      181             0.0000000000
     22556       181  QMPE      H3Y            41.8699697717       44.3068334463        9.5964058772  MEMB      181             0.0000000000
     22557       181  QMPE      C34            43.5896697153       44.0601768522        8.2371738383  MEMB      181             0.0000000000
     22558       181  QMPE      H4X            44.6622084051       44.3413180644        8.3074681373  MEMB      181             0.0000000000
     22559       181  QMPE      H4Y            43.0869404864       44.4906834840        7.3448458993  MEMB      181             0.0000000000
     22560       181  QMPE      C35            43.4802476975       42.5037561447        8.1995355874  MEMB      181             0.0000000000
     22561       181  QMPE      H5X            42.3889251113       42.3318852067        8.3169922578  MEMB      181             0.0000000000
     22562       181  QMPE      H5Y            44.1051722356       42.0091950906        8.9736155972  MEMB      181             0.0000000000
     22563       181  QMPE      C36            43.8668652685       42.0177227139        6.8215072544  MEMB      181             0.0000000000
     22564       181  QMPE      H6X            43.1696122728       42.2438217170        5.9866185333  MEMB      181             0.0000000000
     22565       181  QMPE      H6Y            43.8074265343       40.9124408836        6.9171095037  MEMB      181             0.0000000000
     22566       181  QMPE      C37            45.3249802173       42.2048976126        6.3571708247  MEMB      181             0.0000000000
     22567       181  QMPE      H7X            45.3519118282       43.3104224587        6.2503508536  MEMB      181             0.0000000000
     22568       181  QMPE      H7Y            45.9887438259       42.1062481372        7.2426127191  MEMB      181             0.0000000000
     22569       181  QMPE      C38            45.7691380955       41.3660611463        5.1384811149  MEMB      181             0.0000000000
     22570       181  QMPE      H8X            45.3585651823       40.3465523682        5.3008161402  MEMB      181             0.0000000000
     22571       181  QMPE      H8Y            45.3813787751       41.8737543984        4.2295193294  MEMB      181             0.0000000000
     22572       181  QMPE      C39            47.2777784531       41.2148235574        5.0919522954  MEMB      181             0.0000000000
     22573       181  QMPE      H9X            47.5245929483       40.3597578238        4.4269218255  MEMB      181             0.0000000000
     22574       181  QMPE      H9Y            47.7291716981       40.8433523107        6.0367138053  MEMB      181             0.0000000000
     22575       181  QMPE      C310           48.1404656788       42.4799953768        4.7638009665  MEMB      181             0.0000000000
     22576       181  QMPE      H10X           48.7436310917       42.6958569931        5.6714987589  MEMB      181             0.0000000000
     22577       181  QMPE      H10Y           47.4764025665       43.3184703497        4.4632998347  MEMB      181             0.0000000000
     22578       181  QMPE      C311           49.1129067253       42.2395874374        3.6226731511  MEMB      181             0.0000000000
     22579       181  QMPE      H11X           49.3613540775       41.1603541808        3.5340679835  MEMB      181             0.0000000000
     22580       181  QMPE      H11Y           50.0494088729       42.7545676602        3.9261199932  MEMB      181             0.0000000000
     22581       181  QMPE      C312           48.6939482749       42.7681556965        2.2533441938  MEMB      181             0.0000000000
     22582       181  QMPE      H12X           48.4758174898       43.8441786813        2.4233867482  MEMB      181             0.0000000000
     22583       181  QMPE      H12Y           47.7610749747       42.3071625928        1.8640446024  MEMB      181             0.0000000000
     22584       181  QMPE      C313           49.7769240342       42.8467645027        1.2624196032  MEMB      181             0.0000000000
     22585       181  QMPE      H13X           50.5813835094       43.4991186043        1.6644151092  MEMB      181             0.0000000000
     22586       181  QMPE      H13Y           50.2312745190       41.8331038935        1.2429590841  MEMB      181             0.0000000000
     22587       181  QMPE      C314           49.2849114249       43.1542717151       -0.1181230490  MEMB      181             0.0000000000
     22588       181  QMPE      H14X           50.1138492977       43.4917267579       -0.7763818713  MEMB      181             0.0000000000
     22589       181  QMPE      H14Y           48.5411829700       43.9794968602       -0.1042613489  MEMB      181             0.0000000000
     22590       181  QMPE      C315           48.5068228466       42.0159876148       -0.8117481480  MEMB      181             0.0000000000
     22591       181  QMPE      H15X           49.0376657390       41.0551220904       -0.9828160069  MEMB      181             0.0000000000
     22592       181  QMPE      H15Y           47.6253364023       41.7967276086       -0.1720378187  MEMB      181             0.0000000000
     22593       181  QMPE      H15Z           48.0394244915       42.3005976112       -1.7786284960  MEMB      181             0.0000000000
     22594       182  QMPE      N             -51.0749439095      -36.8901628903       21.8634101744  MEMB      182             0.0000000000
     22595       182  QMPE      HN1           -51.5527459355      -37.3936549260       22.6378783537  MEMB      182             0.0000000000
     22596       182  QMPE      HN2           -50.1653432638      -37.3474341812       21.6509725508  MEMB      182             0.0000000000
     22597       182  QMPE      HN3           -50.9011799643      -35.9235154925       22.2054610501  MEMB      182             0.0000000000
     22598       182  QMPE      C12           -52.0988768246      -36.6918854092       20.7244105495  MEMB      182             0.0000000000
     22599       182  QMPE      H12A          -52.8168639032      -35.9253534740       21.0866871247  MEMB      182             0.0000000000
     22600       182  QMPE      H12B          -52.6377938953      -37.6632358495       20.7052333984  MEMB      182             0.0000000000
     22601       182  QMPE      C11           -51.5695888025      -36.4421703147       19.2963366899  MEMB      182             0.0000000000
     22602       182  QMPE      H11A          -50.9830958782      -35.4986981983       19.3107407866  MEMB      182             0.0000000000
     22603       182  QMPE      H11B          -52.4238043076      -36.3279595146       18.5951999278  MEMB      182             0.0000000000
     22604       182  QMPE      P             -51.1676199508      -38.8041630706       17.9882467840  MEMB      182             0.0000000000
     22605       182  QMPE      O13           -50.8528296940      -39.9467869126       18.8494186190  MEMB      182             0.0000000000
     22606       182  QMPE      O14           -50.6196059644      -38.7606972579       16.5773834006  MEMB      182             0.0000000000
     22607       182  QMPE      O11           -52.7057883353      -38.6350015098       17.9000557569  MEMB      182             0.0000000000
     22608       182  QMPE      O12           -50.7339465201      -37.5064630370       18.8007380250  MEMB      182             0.0000000000
     22609       182  QMPE      C1            -53.5968669981      -39.8077217826       17.9480532428  MEMB      182             0.0000000000
     22610       182  QMPE      HA            -54.4609545464      -39.5149289819       18.5820456420  MEMB      182             0.0000000000
     22611       182  QMPE      HB            -53.1970860978      -40.6657387560       18.5296914239  MEMB      182             0.0000000000
     22612       182  QMPE      C2            -54.1278635262      -40.2051071121       16.5820341293  MEMB      182             0.0000000000
     22613       182  QMPE      HS            -54.6076851038      -41.2023047563       16.6804668520  MEMB      182             0.0000000000
     22614       182  QMPE      O21           -52.9311969538      -40.2944123850       15.7187690143  MEMB      182             0.0000000000
     22615       182  QMPE      C21           -53.1590875205      -40.8762265503       14.5480599663  MEMB      182             0.0000000000
     22616       182  QMPE      O22           -54.1279108417      -41.4731983880       14.1541022559  MEMB      182             0.0000000000
     22617       182  QMPE      C22           -51.8458281970      -40.6141624934       13.8359650520  MEMB      182             0.0000000000
     22618       182  QMPE      H2R           -51.1296501258      -41.4330010242       14.0616048968  MEMB      182             0.0000000000
     22619       182  QMPE      H2S           -51.4428624264      -39.6145107316       14.1054755606  MEMB      182             0.0000000000
     22620       182  QMPE      C3            -55.0945669559      -39.2215419336       15.9324904934  MEMB      182             0.0000000000
     22621       182  QMPE      HX            -55.9180341354      -39.0710411866       16.6629506673  MEMB      182             0.0000000000
     22622       182  QMPE      HY            -55.5091448106      -39.6273668221       14.9849927598  MEMB      182             0.0000000000
     22623       182  QMPE      O31           -54.5099871597      -37.9090315759       15.7451187602  MEMB      182             0.0000000000
     22624       182  QMPE      C31           -54.1389945452      -37.5665936775       14.5177718608  MEMB      182             0.0000000000
     22625       182  QMPE      O32           -54.2928776106      -38.3231158464       13.5592250555  MEMB      182             0.0000000000
     22626       182  QMPE      C32           -53.7370889974      -36.1067060294       14.5151369827  MEMB      182             0.0000000000
     22627       182  QMPE      H2X           -54.6955008496      -35.5836640826       14.7205500695  MEMB      182             0.0000000000
     22628       182  QMPE      H2Y           -52.8904694153      -35.8423430490       15.1842174233  MEMB      182             0.0000000000
     22629       182  QMPE      C23           -51.9951047263      -40.7542509739       12.3059969690  MEMB      182             0.0000000000
     22630       182  QMPE      H3R           -52.5144364533      -39.8881313828       11.8429065457  MEMB      182             0.0000000000
     22631       182  QMPE      H3S           -52.5837488536      -41.6847316167       12.1575900803  MEMB      182             0.0000000000
     22632       182  QMPE      C24           -50.6934688106      -41.0962633131       11.6021744958  MEMB      182             0.0000000000
     22633       182  QMPE      H4R           -50.2567101959      -42.0400199389       11.9931813806  MEMB      182             0.0000000000
     22634       182  QMPE      H4S           -49.9752862694      -40.2729350287       11.8038316490  MEMB      182             0.0000000000
     22635       182  QMPE      C25           -51.0608039764      -41.3866707603       10.2067906192  MEMB      182             0.0000000000
     22636       182  QMPE      H5R           -51.6391221882      -40.5833379885        9.7022852864  MEMB      182             0.0000000000
     22637       182  QMPE      H5S           -51.7704714477      -42.2414484307       10.1998506244  MEMB      182             0.0000000000
     22638       182  QMPE      C26           -49.9029503050      -41.8585158090        9.3012080680  MEMB      182             0.0000000000
     22639       182  QMPE      H6R           -50.3694652583      -42.3109090901        8.4000840256  MEMB      182             0.0000000000
     22640       182  QMPE      H6S           -49.4199074852      -42.6745302539        9.8800962861  MEMB      182             0.0000000000
     22641       182  QMPE      C27           -48.7673228657      -40.8518743755        9.0289495605  MEMB      182             0.0000000000
     22642       182  QMPE      H7R           -47.9811577930      -41.3939373567        8.4611173523  MEMB      182             0.0000000000
     22643       182  QMPE      H7S           -48.3786039395      -40.7318149258       10.0627790514  MEMB      182             0.0000000000
     22644       182  QMPE      C28           -49.2576295050      -39.5602492423        8.2873278499  MEMB      182             0.0000000000
     22645       182  QMPE      H8R           -50.2419282876      -39.2145784186        8.6694121734  MEMB      182             0.0000000000
     22646       182  QMPE      H8S           -49.4099737644      -39.8075758152        7.2149747606  MEMB      182             0.0000000000
     22647       182  QMPE      C29           -48.1388716308      -38.5074635931        8.5262519435  MEMB      182             0.0000000000
     22648       182  QMPE      H9R           -48.1333739060      -37.9692012049        9.4981396626  MEMB      182             0.0000000000
     22649       182  QMPE      C217          -48.0752867498      -37.3426531710        7.4941748078  MEMB      182             0.0000000000
     22650       182  QMPE      H17R          -48.8679431511      -37.5003522336        6.7732619484  MEMB      182             0.0000000000
     22651       182  QMPE      H17S          -47.8617036307      -36.4348386992        8.0447605071  MEMB      182             0.0000000000
     22652       182  QMPE      C210          -46.9895610733      -38.3813940958        7.5027297288  MEMB      182             0.0000000000
     22653       182  QMPE      H10R          -46.0692228735      -37.9784767571        7.9770253341  MEMB      182             0.0000000000
     22654       182  QMPE      C211          -46.7547744445      -39.3630310473        6.3210633578  MEMB      182             0.0000000000
     22655       182  QMPE      H11R          -47.7107319547      -39.8998479965        6.1413589578  MEMB      182             0.0000000000
     22656       182  QMPE      H11S          -46.7008605156      -38.7742123925        5.3804750867  MEMB      182             0.0000000000
     22657       182  QMPE      C212          -45.4929490216      -40.2616734269        6.6129684204  MEMB      182             0.0000000000
     22658       182  QMPE      H12R          -45.4106241523      -40.6236281822        7.6601228980  MEMB      182             0.0000000000
     22659       182  QMPE      H12S          -44.5799562230      -39.6374576534        6.5075194882  MEMB      182             0.0000000000
     22660       182  QMPE      C213          -45.4858702727      -41.5258310457        5.7330000199  MEMB      182             0.0000000000
     22661       182  QMPE      H13R          -46.3769911554      -42.1776852740        5.8567371349  MEMB      182             0.0000000000
     22662       182  QMPE      H13S          -44.7230197660      -42.3184431557        5.8883913023  MEMB      182             0.0000000000
     22663       182  QMPE      C214          -45.4673902219      -41.1997424892        4.2492341123  MEMB      182             0.0000000000
     22664       182  QMPE      H14R          -44.5116905617      -40.7050462006        3.9731288949  MEMB      182             0.0000000000
     22665       182  QMPE      H14S          -46.1268458928      -40.3200102490        4.0895143329  MEMB      182             0.0000000000
     22666       182  QMPE      C215          -45.5135177201      -42.4886318752        3.3509323189  MEMB      182             0.0000000000
     22667       182  QMPE      H15R          -46.4675617775      -43.0324001144        3.5195653113  MEMB      182             0.0000000000
     22668       182  QMPE      H15S          -44.7266439236      -43.1634676575        3.7506165483  MEMB      182             0.0000000000
     22669       182  QMPE      C216          -45.4282236975      -42.3356803255        1.8401316600  MEMB      182             0.0000000000
     22670       182  QMPE      H16R          -46.0419005375      -41.4976317903        1.4459270787  MEMB      182             0.0000000000
     22671       182  QMPE      H16S          -45.7470887716      -43.3049244267        1.4005721404  MEMB      182             0.0000000000
     22672       182  QMPE      H16T          -44.3971490489      -42.0473180551        1.5433936787  MEMB      182             0.0000000000
     22673       182  QMPE      C33           -53.3314690148      -35.6373294324       13.0773208299  MEMB      182             0.0000000000
     22674       182  QMPE      H3X           -53.2902335558      -34.5329846637       13.1915266782  MEMB      182             0.0000000000
     22675       182  QMPE      H3Y           -54.0954578355      -35.8613018557       12.3024151968  MEMB      182             0.0000000000
     22676       182  QMPE      C34           -51.9593737307      -36.1798840745       12.6657113077  MEMB      182             0.0000000000
     22677       182  QMPE      H4X           -51.9812922049      -37.2590973812       12.9286551526  MEMB      182             0.0000000000
     22678       182  QMPE      H4Y           -51.1866642407      -35.7801892981       13.3567142640  MEMB      182             0.0000000000
     22679       182  QMPE      C35           -51.5678674104      -35.7691188118       11.2535523057  MEMB      182             0.0000000000
     22680       182  QMPE      H5X           -50.5185057458      -36.1080247722       11.1182608789  MEMB      182             0.0000000000
     22681       182  QMPE      H5Y           -51.4436170942      -34.6650964626       11.2493722098  MEMB      182             0.0000000000
     22682       182  QMPE      C36           -52.3627768618      -36.3007819471       10.1366213442  MEMB      182             0.0000000000
     22683       182  QMPE      H6X           -51.7603249303      -35.8862483190        9.3002391331  MEMB      182             0.0000000000
     22684       182  QMPE      H6Y           -53.3647573206      -35.8208390902       10.1332967514  MEMB      182             0.0000000000
     22685       182  QMPE      C37           -52.5701354950      -37.7737180263        9.9529433901  MEMB      182             0.0000000000
     22686       182  QMPE      H7X           -51.5562892749      -38.1963466524        9.7861446302  MEMB      182             0.0000000000
     22687       182  QMPE      H7Y           -52.9180461187      -38.0366266602       10.9747840092  MEMB      182             0.0000000000
     22688       182  QMPE      C38           -53.4855447286      -38.1283367323        8.7626467002  MEMB      182             0.0000000000
     22689       182  QMPE      H8X           -53.6317768995      -39.2296546888        8.7686389616  MEMB      182             0.0000000000
     22690       182  QMPE      H8Y           -54.4801305057      -37.6387142462        8.8360583792  MEMB      182             0.0000000000
     22691       182  QMPE      C39           -52.9023180075      -37.6878593562        7.3544406376  MEMB      182             0.0000000000
     22692       182  QMPE      H9X           -51.8587689894      -38.0504659330        7.2367842511  MEMB      182             0.0000000000
     22693       182  QMPE      H9Y           -52.8839130170      -36.5770387041        7.3467043433  MEMB      182             0.0000000000
     22694       182  QMPE      C310          -53.7982166247      -38.1658286278        6.1586499120  MEMB      182             0.0000000000
     22695       182  QMPE      H10X          -54.8244138477      -37.7418324678        6.1969538186  MEMB      182             0.0000000000
     22696       182  QMPE      H10Y          -53.8778701527      -39.2669275793        6.2833794265  MEMB      182             0.0000000000
     22697       182  QMPE      C311          -53.1834795417      -37.8715687788        4.7564687811  MEMB      182             0.0000000000
     22698       182  QMPE      H11X          -53.2885090104      -36.8355141997        4.3693242779  MEMB      182             0.0000000000
     22699       182  QMPE      H11Y          -53.8380387098      -38.4322758865        4.0554113847  MEMB      182             0.0000000000
     22700       182  QMPE      C312          -51.7803332947      -38.2814090653        4.6753143772  MEMB      182             0.0000000000
     22701       182  QMPE      H12X          -51.5892732969      -39.3323408981        4.9808617780  MEMB      182             0.0000000000
     22702       182  QMPE      H12Y          -51.1401102744      -37.6369727774        5.3149525193  MEMB      182             0.0000000000
     22703       182  QMPE      C313          -51.3956576654      -38.1096658630        3.2084980757  MEMB      182             0.0000000000
     22704       182  QMPE      H13X          -51.9556169727      -37.2467396064        2.7888258930  MEMB      182             0.0000000000
     22705       182  QMPE      H13Y          -50.3243085376      -37.8240350956        3.1381623777  MEMB      182             0.0000000000
     22706       182  QMPE      C314          -51.7508712466      -39.3830058880        2.3633195066  MEMB      182             0.0000000000
     22707       182  QMPE      H14X          -51.8514494560      -38.9771131991        1.3340218225  MEMB      182             0.0000000000
     22708       182  QMPE      H14Y          -52.7104050208      -39.8673936582        2.6443608787  MEMB      182             0.0000000000
     22709       182  QMPE      C315          -50.5676931170      -40.2676558121        2.1410034023  MEMB      182             0.0000000000
     22710       182  QMPE      H15X          -50.0783923523      -40.6250540196        3.0722243972  MEMB      182             0.0000000000
     22711       182  QMPE      H15Y          -50.9621207718      -41.1646161890        1.6173523471  MEMB      182             0.0000000000
     22712       182  QMPE      H15Z          -49.8122916978      -39.9001147108        1.4139526803  MEMB      182             0.0000000000
     22713       183  PMPE      N              54.7296486753      -31.2670760389       21.2701372419  MEMB      183             0.0000000000
     22714       183  PMPE      HN1            54.0003182940      -30.9495983906       20.6001482616  MEMB      183             0.0000000000
     22715       183  PMPE      HN2            55.0906654492      -32.1827846786       20.9343627366  MEMB      183             0.0000000000
     22716       183  PMPE      HN3            54.2642739771      -31.2091309329       22.1983982766  MEMB      183             0.0000000000
     22717       183  PMPE      C12            55.9520126368      -30.2970607373       21.4062342921  MEMB      183             0.0000000000
     22718       183  PMPE      H12A           56.7049635816      -30.8724926372       21.9861170256  MEMB      183             0.0000000000
     22719       183  PMPE      H12B           55.5331571226      -29.4072223439       21.9230212440  MEMB      183             0.0000000000
     22720       183  PMPE      C11            56.5557735796      -29.8407992058       20.0406380789  MEMB      183             0.0000000000
     22721       183  PMPE      H11A           57.3848230596      -29.1365525921       20.2665466880  MEMB      183             0.0000000000
     22722       183  PMPE      H11B           55.7457080991      -29.2614621633       19.5482117616  MEMB      183             0.0000000000
     22723       183  PMPE      P              56.7496210711      -31.0936484739       17.8432120859  MEMB      183             0.0000000000
     22724       183  PMPE      O13            55.3808948788      -31.6313629335       17.6935029249  MEMB      183             0.0000000000
     22725       183  PMPE      O14            57.7455268230      -32.0359098300       17.2522094097  MEMB      183             0.0000000000
     22726       183  PMPE      O11            56.8506160453      -29.6781395888       17.1304763473  MEMB      183             0.0000000000
     22727       183  PMPE      O12            57.1148094853      -30.9626799982       19.3635896181  MEMB      183             0.0000000000
     22728       183  PMPE      C1             55.7465499057      -28.8767898638       16.7099640776  MEMB      183             0.0000000000
     22729       183  PMPE      HA             56.2118166421      -27.8788381610       16.5618414627  MEMB      183             0.0000000000
     22730       183  PMPE      HB             54.9300494097      -28.8284488616       17.4618358503  MEMB      183             0.0000000000
     22731       183  PMPE      C2             55.0969864284      -29.4529792779       15.4615005144  MEMB      183             0.0000000000
     22732       183  PMPE      HS             54.3396649505      -30.2093751100       15.7592429728  MEMB      183             0.0000000000
     22733       183  PMPE      O21            56.0738338316      -30.0715069382       14.5794002399  MEMB      183             0.0000000000
     22734       183  PMPE      C21            55.8306799904      -31.2503091471       14.2016559467  MEMB      183             0.0000000000
     22735       183  PMPE      O22            55.0385583064      -32.0892627036       14.5417813216  MEMB      183             0.0000000000
     22736       183  PMPE      C22            56.8823966899      -31.4974510506       13.0441129266  MEMB      183             0.0000000000
     22737       183  PMPE      H2R            57.7772135461      -32.0284246268       13.4335880364  MEMB      183             0.0000000000
     22738       183  PMPE      H2S            57.1073076361      -30.5331852592       12.5402008845  MEMB      183             0.0000000000
     22739       183  PMPE      C3             54.4303358684      -28.3551038679       14.6028327522  MEMB      183             0.0000000000
     22740       183  PMPE      HX             53.8205359615      -27.7763319430       15.3291164412  MEMB      183             0.0000000000
     22741       183  PMPE      HY             53.7286154881      -28.7550570304       13.8399780601  MEMB      183             0.0000000000
     22742       183  PMPE      O31            55.2958277972      -27.4146107585       14.0052425167  MEMB      183             0.0000000000
     22743       183  PMPE      C31            55.6968671293      -27.5835334060       12.7633407277  MEMB      183             0.0000000000
     22744       183  PMPE      O32            55.2413454610      -28.4153048031       11.9677577428  MEMB      183             0.0000000000
     22745       183  PMPE      C32            56.9359850897      -26.6575742576       12.5670807573  MEMB      183             0.0000000000
     22746       183  PMPE      H2X            57.8038387405      -26.9919578364       13.1748133557  MEMB      183             0.0000000000
     22747       183  PMPE      H2Y            56.5718760833      -25.6562781598       12.8819652640  MEMB      183             0.0000000000
     22748       183  PMPE      C23            56.1738921726      -32.2524092004       11.9138056028  MEMB      183             0.0000000000
     22749       183  PMPE      H3R            55.3767404897      -31.6156972802       11.4739551141  MEMB      183             0.0000000000
     22750       183  PMPE      H3S            55.6256589768      -33.1306780521       12.3168004424  MEMB      183             0.0000000000
     22751       183  PMPE      C24            57.1968463637      -32.7441742677       10.8214214280  MEMB      183             0.0000000000
     22752       183  PMPE      H4R            56.6075761583      -33.0081320742        9.9173157062  MEMB      183             0.0000000000
     22753       183  PMPE      H4S            57.6176135494      -33.6915293776       11.2211639619  MEMB      183             0.0000000000
     22754       183  PMPE      C25            58.3585296654      -31.8252004875       10.4073572334  MEMB      183             0.0000000000
     22755       183  PMPE      H5R            59.1569570821      -32.5069449370       10.0439580833  MEMB      183             0.0000000000
     22756       183  PMPE      H5S            58.8492035091      -31.3210766723       11.2672520842  MEMB      183             0.0000000000
     22757       183  PMPE      C26            58.0681261556      -30.7716389773        9.3014221836  MEMB      183             0.0000000000
     22758       183  PMPE      H6R            57.2389573499      -30.1761350590        9.7397998908  MEMB      183             0.0000000000
     22759       183  PMPE      H6S            57.6195621880      -31.2443111028        8.4015922189  MEMB      183             0.0000000000
     22760       183  PMPE      C27            59.3103270969      -29.9685987098        8.8489291119  MEMB      183             0.0000000000
     22761       183  PMPE      H7R            60.0602766757      -30.6994247150        8.4777289167  MEMB      183             0.0000000000
     22762       183  PMPE      H7S            59.6887051700      -29.4485949275        9.7548794678  MEMB      183             0.0000000000
     22763       183  PMPE      C28            58.9865509313      -28.9658180028        7.6835606451  MEMB      183             0.0000000000
     22764       183  PMPE      H8R            58.2532459430      -28.2684655265        8.1421281139  MEMB      183             0.0000000000
     22765       183  PMPE      H8S            58.4234849649      -29.4919205702        6.8832515286  MEMB      183             0.0000000000
     22766       183  PMPE      C29            60.1405503639      -28.2466761850        7.0336311555  MEMB      183             0.0000000000
     22767       183  PMPE      H9R            61.1664182812      -28.3484008825        7.4478392416  MEMB      183             0.0000000000
     22768       183  PMPE      C217           59.7774695858      -26.7488816009        6.9597544357  MEMB      183             0.0000000000
     22769       183  PMPE      H17R           60.6127716759      -26.0684146136        7.0698651582  MEMB      183             0.0000000000
     22770       183  PMPE      H17S           58.7398493682      -26.5448212837        7.1934050663  MEMB      183             0.0000000000
     22771       183  PMPE      C210           59.9980921414      -27.6044149723        5.6699370787  MEMB      183             0.0000000000
     22772       183  PMPE      H10R           61.0017366842      -27.3678939130        5.2563229741  MEMB      183             0.0000000000
     22773       183  PMPE      C211           58.9249352834      -28.0346419387        4.7713971620  MEMB      183             0.0000000000
     22774       183  PMPE      H11R           58.9239645249      -27.2975039788        3.9401645040  MEMB      183             0.0000000000
     22775       183  PMPE      H11S           57.9889885017      -27.9779026865        5.3673038912  MEMB      183             0.0000000000
     22776       183  PMPE      C212           59.0374687106      -29.4157733808        4.1677750212  MEMB      183             0.0000000000
     22777       183  PMPE      H12R           58.4018785710      -29.4469175986        3.2570739461  MEMB      183             0.0000000000
     22778       183  PMPE      H12S           58.7490069307      -30.1911534638        4.9093245726  MEMB      183             0.0000000000
     22779       183  PMPE      C213           60.5051459532      -29.8090545990        3.5718647485  MEMB      183             0.0000000000
     22780       183  PMPE      H13R           61.0112860273      -30.0780820180        4.5235825007  MEMB      183             0.0000000000
     22781       183  PMPE      H13S           60.9543235137      -28.9942247714        2.9647296155  MEMB      183             0.0000000000
     22782       183  PMPE      C214           60.4225491072      -31.1001231829        2.7080574647  MEMB      183             0.0000000000
     22783       183  PMPE      H14R           59.3940242395      -31.4680379953        2.9107803603  MEMB      183             0.0000000000
     22784       183  PMPE      H14S           61.1481554853      -31.7609522376        3.2287505496  MEMB      183             0.0000000000
     22785       183  PMPE      C215           60.7848603835      -30.8159303747        1.2670564226  MEMB      183             0.0000000000
     22786       183  PMPE      H15R           61.6017467278      -30.0637241570        1.2323639516  MEMB      183             0.0000000000
     22787       183  PMPE      H15S           59.9381307327      -30.3110338435        0.7547596221  MEMB      183             0.0000000000
     22788       183  PMPE      C216           61.1602451958      -32.1780221843        0.6176717414  MEMB      183             0.0000000000
     22789       183  PMPE      H16R           61.9853230796      -32.7026956471        1.1451979693  MEMB      183             0.0000000000
     22790       183  PMPE      H16S           60.2825659316      -32.8173198176        0.8528285507  MEMB      183             0.0000000000
     22791       183  PMPE      H16T           61.2670804912      -32.1619162023       -0.4880633179  MEMB      183             0.0000000000
     22792       183  PMPE      C33            57.3631786328      -26.6333735668       11.0813231696  MEMB      183             0.0000000000
     22793       183  PMPE      H3X            57.4063897963      -27.7047222698       10.7903492093  MEMB      183             0.0000000000
     22794       183  PMPE      H3Y            58.4031764957      -26.3124699164       10.8582841305  MEMB      183             0.0000000000
     22795       183  PMPE      C34            56.4589448691      -25.7616274635       10.1805722189  MEMB      183             0.0000000000
     22796       183  PMPE      H4X            56.9156985699      -25.5663057074        9.1868176870  MEMB      183             0.0000000000
     22797       183  PMPE      H4Y            56.4220637547      -24.7671442751       10.6744981137  MEMB      183             0.0000000000
     22798       183  PMPE      C35            55.1089376086      -26.2713612743        9.7406814657  MEMB      183             0.0000000000
     22799       183  PMPE      H5X            54.6984484196      -25.4056642323        9.1781972740  MEMB      183             0.0000000000
     22800       183  PMPE      H5Y            54.3463070336      -26.4150004059       10.5357174604  MEMB      183             0.0000000000
     22801       183  PMPE      C36            55.1199730951      -27.4455949978        8.7857682673  MEMB      183             0.0000000000
     22802       183  PMPE      H6X            54.1915158465      -28.0328951184        8.9511969322  MEMB      183             0.0000000000
     22803       183  PMPE      H6Y            55.9508841238      -28.1066874790        9.1126696776  MEMB      183             0.0000000000
     22804       183  PMPE      C37            55.1224262033      -26.9460699408        7.4146735317  MEMB      183             0.0000000000
     22805       183  PMPE      H7X            56.0479864125      -26.3684685095        7.2048269363  MEMB      183             0.0000000000
     22806       183  PMPE      H7Y            54.1987907245      -26.3463378830        7.2679088338  MEMB      183             0.0000000000
     22807       183  PMPE      C38            55.1771303856      -28.0299416556        6.4153837505  MEMB      183             0.0000000000
     22808       183  PMPE      H8X            56.0673879159      -28.6246237948        6.7122263566  MEMB      183             0.0000000000
     22809       183  PMPE      H8Y            55.4183268053      -27.6098995295        5.4155285906  MEMB      183             0.0000000000
     22810       183  PMPE      C39            53.8444357543      -28.8701215846        6.2807530259  MEMB      183             0.0000000000
     22811       183  PMPE      H9X            53.1105112617      -28.0366121266        6.2501308838  MEMB      183             0.0000000000
     22812       183  PMPE      H9Y            53.7096802438      -29.4735056794        7.2038395059  MEMB      183             0.0000000000
     22813       183  PMPE      C310           53.8083021860      -29.7242427151        5.0590933206  MEMB      183             0.0000000000
     22814       183  PMPE      H10X           54.0734162507      -29.0724937438        4.1992916602  MEMB      183             0.0000000000
     22815       183  PMPE      H10Y           52.7854997295      -30.1325733177        4.9125934515  MEMB      183             0.0000000000
     22816       183  PMPE      C311           54.7411019438      -30.9465502741        4.9906667583  MEMB      183             0.0000000000
     22817       183  PMPE      H11X           54.3216374520      -31.6658630210        5.7261667670  MEMB      183             0.0000000000
     22818       183  PMPE      H11Y           55.7659684828      -30.6118771727        5.2589271987  MEMB      183             0.0000000000
     22819       183  PMPE      C312           54.7350066759      -31.6404079016        3.6670235602  MEMB      183             0.0000000000
     22820       183  PMPE      H12X           53.7456821859      -32.1039926596        3.4654129022  MEMB      183             0.0000000000
     22821       183  PMPE      H12Y           55.3742088333      -32.5491112287        3.6669244587  MEMB      183             0.0000000000
     22822       183  PMPE      C313           55.1550555898      -30.7996857354        2.4779627565  MEMB      183             0.0000000000
     22823       183  PMPE      H13X           56.1004605354      -30.2451157180        2.6595731298  MEMB      183             0.0000000000
     22824       183  PMPE      H13Y           54.5215176603      -29.9185012543        2.2403387873  MEMB      183             0.0000000000
     22825       183  PMPE      C314           55.4302594144      -31.6068190566        1.2494954145  MEMB      183             0.0000000000
     22826       183  PMPE      H14X           54.4676327043      -32.1374517123        1.0879411717  MEMB      183             0.0000000000
     22827       183  PMPE      H14Y           56.1160051031      -32.4117582203        1.5902980920  MEMB      183             0.0000000000
     22828       183  PMPE      C315           55.7052344521      -30.8918186513       -0.0758967930  MEMB      183             0.0000000000
     22829       183  PMPE      H15X           54.8295965486      -30.2241736781       -0.2236463194  MEMB      183             0.0000000000
     22830       183  PMPE      H15Y           55.7924522374      -31.5905988443       -0.9352107082  MEMB      183             0.0000000000
     22831       183  PMPE      C316           56.9821093837      -30.0640702780        0.0056644491  MEMB      183             0.0000000000
     22832       183  PMPE      H16X           57.2923751283      -29.6185173320       -0.9636341834  MEMB      183             0.0000000000
     22833       183  PMPE      H16Y           57.8614238213      -30.6588124381        0.3333973271  MEMB      183             0.0000000000
     22834       183  PMPE      H16Z           56.9307830071      -29.2030534976        0.7059039128  MEMB      183             0.0000000000
     22835       184  OYPE      N              35.6960967186      -51.8361541059       17.4745023868  MEMB      184             0.0000000000
     22836       184  OYPE      HN1            36.4494699270      -52.4173960030       17.0547564317  MEMB      184             0.0000000000
     22837       184  OYPE      HN2            35.0102123684      -51.8725761941       16.6935823203  MEMB      184             0.0000000000
     22838       184  OYPE      HN3            36.1345292975      -50.9148905438       17.6761210680  MEMB      184             0.0000000000
     22839       184  OYPE      C12            35.0130336794      -52.3218938382       18.6855371040  MEMB      184             0.0000000000
     22840       184  OYPE      H12A           34.5603805879      -53.2701130268       18.3245570255  MEMB      184             0.0000000000
     22841       184  OYPE      H12B           34.1482348857      -51.6728850820       18.9409411248  MEMB      184             0.0000000000
     22842       184  OYPE      C11            35.9901051185      -52.6092802054       19.8711825381  MEMB      184             0.0000000000
     22843       184  OYPE      H11A           35.3887095955      -53.1407041071       20.6394489490  MEMB      184             0.0000000000
     22844       184  OYPE      H11B           36.3650122414      -51.6197226998       20.2096226952  MEMB      184             0.0000000000
     22845       184  OYPE      P              36.8570882873      -54.9963539740       19.2529225447  MEMB      184             0.0000000000
     22846       184  OYPE      O13            35.7448078750      -55.4054096195       20.1388707236  MEMB      184             0.0000000000
     22847       184  OYPE      O14            38.1097691253      -55.8580407469       19.3908136668  MEMB      184             0.0000000000
     22848       184  OYPE      O11            36.4066067883      -54.8844578246       17.6988143701  MEMB      184             0.0000000000
     22849       184  OYPE      O12            37.0763036179      -53.4917240849       19.4873566638  MEMB      184             0.0000000000
     22850       184  OYPE      C1             36.5469630342      -56.0573556195       16.9451247122  MEMB      184             0.0000000000
     22851       184  OYPE      HA             35.5995538328      -56.1685468392       16.3755871008  MEMB      184             0.0000000000
     22852       184  OYPE      HB             36.7479032382      -56.9654279657       17.5528652086  MEMB      184             0.0000000000
     22853       184  OYPE      C2             37.8308264364      -56.0333273574       16.0692280797  MEMB      184             0.0000000000
     22854       184  OYPE      HS             38.7475861859      -55.9165965986       16.6858695654  MEMB      184             0.0000000000
     22855       184  OYPE      O21            37.8134937802      -54.9201313879       15.1499272346  MEMB      184             0.0000000000
     22856       184  OYPE      C21            39.0041536304      -54.5966926714       14.5954225474  MEMB      184             0.0000000000
     22857       184  OYPE      O22            40.1033359089      -54.9245360380       14.9736586394  MEMB      184             0.0000000000
     22858       184  OYPE      C22            38.6141431965      -53.6768766789       13.4337486340  MEMB      184             0.0000000000
     22859       184  OYPE      H2R            38.3797369270      -52.6470076010       13.7783421934  MEMB      184             0.0000000000
     22860       184  OYPE      H2S            37.6633959489      -54.0819251764       13.0259051372  MEMB      184             0.0000000000
     22861       184  OYPE      C3             38.0087716207      -57.3920561991       15.3389459404  MEMB      184             0.0000000000
     22862       184  OYPE      HX             38.0379220557      -58.2459323479       16.0491336840  MEMB      184             0.0000000000
     22863       184  OYPE      HY             38.9973226277      -57.4596909498       14.8364389589  MEMB      184             0.0000000000
     22864       184  OYPE      O31            37.0015834815      -57.5576484748       14.3277085121  MEMB      184             0.0000000000
     22865       184  OYPE      C31            37.2119112348      -58.5090967040       13.5141081836  MEMB      184             0.0000000000
     22866       184  OYPE      O32            37.9455271001      -59.4578747622       13.7434513126  MEMB      184             0.0000000000
     22867       184  OYPE      C32            36.4672646610      -58.3281821863       12.2407060824  MEMB      184             0.0000000000
     22868       184  OYPE      H2X            36.8472713458      -58.8065357021       11.3127546112  MEMB      184             0.0000000000
     22869       184  OYPE      H2Y            35.4054609719      -58.6088432530       12.4084064286  MEMB      184             0.0000000000
     22870       184  OYPE      C23            39.6405608370      -53.6361295420       12.2774541189  MEMB      184             0.0000000000
     22871       184  OYPE      H3R            40.1378679138      -54.6185464000       12.1295909597  MEMB      184             0.0000000000
     22872       184  OYPE      H3S            40.4597835250      -52.9105381445       12.4690590755  MEMB      184             0.0000000000
     22873       184  OYPE      C24            39.1485401023      -53.2432370629       10.8775933552  MEMB      184             0.0000000000
     22874       184  OYPE      H4R            38.3121520589      -53.9152266167       10.5891382332  MEMB      184             0.0000000000
     22875       184  OYPE      H4S            39.9113506971      -53.3627281567       10.0787422426  MEMB      184             0.0000000000
     22876       184  OYPE      C25            38.6130009448      -51.8444186240       10.8118152747  MEMB      184             0.0000000000
     22877       184  OYPE      H5R            39.2376758505      -51.2021214691       11.4687449115  MEMB      184             0.0000000000
     22878       184  OYPE      H5S            37.5173101632      -51.8380695052       10.9955069459  MEMB      184             0.0000000000
     22879       184  OYPE      C26            38.6963015967      -51.0834102750        9.4077644650  MEMB      184             0.0000000000
     22880       184  OYPE      H6R            39.7535313643      -51.0229496817        9.0717129251  MEMB      184             0.0000000000
     22881       184  OYPE      H6S            38.3858968515      -50.0173100086        9.4451783579  MEMB      184             0.0000000000
     22882       184  OYPE      C27            37.7874634876      -51.9001068775        8.4116581211  MEMB      184             0.0000000000
     22883       184  OYPE      H7R            36.8541336542      -52.2525041220        8.9005686319  MEMB      184             0.0000000000
     22884       184  OYPE      H7S            38.4087407186      -52.7794052138        8.1374869329  MEMB      184             0.0000000000
     22885       184  OYPE      C28            37.5070697980      -51.0875836331        7.1963059522  MEMB      184             0.0000000000
     22886       184  OYPE      H8R            37.1814252328      -50.0594356731        7.4631180638  MEMB      184             0.0000000000
     22887       184  OYPE      H8S            36.7031889138      -51.5528689414        6.5867109123  MEMB      184             0.0000000000
     22888       184  OYPE      C29            38.6994761547      -51.0969336494        6.2450092022  MEMB      184             0.0000000000
     22889       184  OYPE      H9R            39.3879462375      -50.2435794928        6.3333040171  MEMB      184             0.0000000000
     22890       184  OYPE      C210           39.1016407433      -52.0710618067        5.4377281330  MEMB      184             0.0000000000
     22891       184  OYPE      H10R           40.0795286136      -51.8527510355        4.9837729662  MEMB      184             0.0000000000
     22892       184  OYPE      C211           38.4739575403      -53.3779600624        5.1802493066  MEMB      184             0.0000000000
     22893       184  OYPE      H11R           38.0517358501      -53.5896038730        4.1746361913  MEMB      184             0.0000000000
     22894       184  OYPE      H11S           37.7307881230      -53.5818559585        5.9805280026  MEMB      184             0.0000000000
     22895       184  OYPE      C212           39.5083504971      -54.4970348055        5.3930691204  MEMB      184             0.0000000000
     22896       184  OYPE      H12R           38.8493462839      -55.3902934779        5.3469887912  MEMB      184             0.0000000000
     22897       184  OYPE      H12S           40.0461074355      -54.4676555808        6.3648071220  MEMB      184             0.0000000000
     22898       184  OYPE      C213           40.5696384184      -54.6722698771        4.2902980370  MEMB      184             0.0000000000
     22899       184  OYPE      H13R           41.1089185564      -55.6155622442        4.5220255247  MEMB      184             0.0000000000
     22900       184  OYPE      H13S           41.3915849782      -53.9263545732        4.3386197514  MEMB      184             0.0000000000
     22901       184  OYPE      C214           40.0479628211      -54.7788495699        2.8337211591  MEMB      184             0.0000000000
     22902       184  OYPE      H14R           39.2819201037      -53.9939006458        2.6566485057  MEMB      184             0.0000000000
     22903       184  OYPE      H14S           39.5379007002      -55.7618531753        2.7450556243  MEMB      184             0.0000000000
     22904       184  OYPE      C215           41.1703454709      -54.7430442516        1.7564140104  MEMB      184             0.0000000000
     22905       184  OYPE      H15R           41.6686761043      -53.7895002218        2.0334371884  MEMB      184             0.0000000000
     22906       184  OYPE      H15S           40.8696265851      -54.8016696807        0.6884954661  MEMB      184             0.0000000000
     22907       184  OYPE      C216           42.2145746061      -55.8053488393        2.1012362504  MEMB      184             0.0000000000
     22908       184  OYPE      H16R           42.9767321748      -55.9082589665        1.2994591275  MEMB      184             0.0000000000
     22909       184  OYPE      H16S           41.7470751093      -56.8101757827        2.1792608293  MEMB      184             0.0000000000
     22910       184  OYPE      H16T           42.8722432407      -55.5566200292        2.9614262928  MEMB      184             0.0000000000
     22911       184  OYPE      C33            36.5980169592      -56.8453137036       11.7580884169  MEMB      184             0.0000000000
     22912       184  OYPE      H3X            37.6040289002      -56.3772824075       11.8147265837  MEMB      184             0.0000000000
     22913       184  OYPE      H3Y            35.9231272692      -56.3177140980       12.4655366837  MEMB      184             0.0000000000
     22914       184  OYPE      C34            35.7774053870      -56.5640157496       10.4668973445  MEMB      184             0.0000000000
     22915       184  OYPE      H4X            36.3580302160      -56.8655389916        9.5689671279  MEMB      184             0.0000000000
     22916       184  OYPE      H4Y            35.1027055748      -57.4460337056       10.5007398849  MEMB      184             0.0000000000
     22917       184  OYPE      C35            35.2720560806      -55.1672222688       10.5073807155  MEMB      184             0.0000000000
     22918       184  OYPE      H5X            36.1519066368      -54.5292872359       10.7380816841  MEMB      184             0.0000000000
     22919       184  OYPE      H5Y            34.5535319258      -55.0429332237       11.3455908025  MEMB      184             0.0000000000
     22920       184  OYPE      C36            34.4996317364      -54.6546254164        9.2368836393  MEMB      184             0.0000000000
     22921       184  OYPE      H6X            33.4496091808      -54.9849545611        9.3874038823  MEMB      184             0.0000000000
     22922       184  OYPE      H6Y            34.5364796791      -53.5442465801        9.2321858819  MEMB      184             0.0000000000
     22923       184  OYPE      C37            35.0744364893      -55.2114465919        7.9455027455  MEMB      184             0.0000000000
     22924       184  OYPE      H7X            36.1219274265      -54.8471166192        7.8795711404  MEMB      184             0.0000000000
     22925       184  OYPE      H7Y            35.0266429455      -56.3199880683        7.8891764144  MEMB      184             0.0000000000
     22926       184  OYPE      C38            34.3925884731      -54.5755427164        6.7531922835  MEMB      184             0.0000000000
     22927       184  OYPE      H8X            33.3178307831      -54.8566382377        6.7389748719  MEMB      184             0.0000000000
     22928       184  OYPE      H8Y            34.3744563993      -53.4833047446        6.9556978820  MEMB      184             0.0000000000
     22929       184  OYPE      C39            35.1562105630      -54.9576702704        5.5215228577  MEMB      184             0.0000000000
     22930       184  OYPE      H9X            35.8514546879      -55.8063230384        5.6016732877  MEMB      184             0.0000000000
     22931       184  OYPE      C310           35.0544009811      -54.3937494162        4.2813804144  MEMB      184             0.0000000000
     22932       184  OYPE      H10X           35.6476170120      -54.8866038372        3.4970406853  MEMB      184             0.0000000000
     22933       184  OYPE      C311           34.1817379102      -53.2886455281        3.8318292334  MEMB      184             0.0000000000
     22934       184  OYPE      H11X           33.9010577203      -53.6203425693        2.8093245927  MEMB      184             0.0000000000
     22935       184  OYPE      H11Y           33.4012528853      -53.2986837191        4.6224388569  MEMB      184             0.0000000000
     22936       184  OYPE      C312           34.9362914851      -51.9338153744        3.7663143063  MEMB      184             0.0000000000
     22937       184  OYPE      H12X           35.5539226160      -51.6509508911        4.6454273882  MEMB      184             0.0000000000
     22938       184  OYPE      H12Y           34.1854900458      -51.1767230784        3.4541766942  MEMB      184             0.0000000000
     22939       184  OYPE      C313           35.9555187515      -51.9567635750        2.5756863626  MEMB      184             0.0000000000
     22940       184  OYPE      H13X           36.7832665065      -51.2546917737        2.8128564425  MEMB      184             0.0000000000
     22941       184  OYPE      H13Y           36.4616686265      -52.9417393424        2.4864910932  MEMB      184             0.0000000000
     22942       184  OYPE      C314           35.3791996819      -51.6866557844        1.1819655782  MEMB      184             0.0000000000
     22943       184  OYPE      H14X           35.1003140913      -50.6124527241        1.1306630662  MEMB      184             0.0000000000
     22944       184  OYPE      H14Y           34.3906084084      -52.1687187283        1.0250466071  MEMB      184             0.0000000000
     22945       184  OYPE      C315           36.2243324333      -52.0890582081        0.0232872636  MEMB      184             0.0000000000
     22946       184  OYPE      H15X           36.4923309832      -53.1534924401        0.1949779161  MEMB      184             0.0000000000
     22947       184  OYPE      H15Y           37.1546351049      -51.4820932819        0.0445368890  MEMB      184             0.0000000000
     22948       184  OYPE      C316           35.6326457312      -51.8745337317       -1.3114686684  MEMB      184             0.0000000000
     22949       184  OYPE      H16X           35.2850849576      -50.8623685585       -1.6098713076  MEMB      184             0.0000000000
     22950       184  OYPE      H16Y           34.6801495370      -52.4370756166       -1.2084220334  MEMB      184             0.0000000000
     22951       184  OYPE      C317           36.3893191737      -52.5938239376       -2.4207515801  MEMB      184             0.0000000000
     22952       184  OYPE      H17X           37.4805756480      -52.4036400342       -2.3352511981  MEMB      184             0.0000000000
     22953       184  OYPE      H17Y           35.8918315566      -52.2670097219       -3.3588458220  MEMB      184             0.0000000000
     22954       184  OYPE      C318           36.2158363960      -54.1169905419       -2.3841260752  MEMB      184             0.0000000000
     22955       184  OYPE      H18X           36.5917390564      -54.6543432052       -1.4873149093  MEMB      184             0.0000000000
     22956       184  OYPE      H18Y           35.1400367830      -54.3920838044       -2.4201811946  MEMB      184             0.0000000000
     22957       184  OYPE      H18Z           36.7332911398      -54.5593263672       -3.2621347714  MEMB      184             0.0000000000
     22958       185  PMPE      N             -40.3248322038       53.8059560358       20.7475417833  MEMB      185             0.0000000000
     22959       185  PMPE      HN1           -41.2950625093       54.1587884435       20.8730903176  MEMB      185             0.0000000000
     22960       185  PMPE      HN2           -40.3561906253       52.8349549493       20.3763631379  MEMB      185             0.0000000000
     22961       185  PMPE      HN3           -39.8211486181       53.6690569271       21.6470760699  MEMB      185             0.0000000000
     22962       185  PMPE      C12           -39.6492112393       54.6497125063       19.7589691364  MEMB      185             0.0000000000
     22963       185  PMPE      H12A          -39.6764736804       55.7031404074       20.1109175622  MEMB      185             0.0000000000
     22964       185  PMPE      H12B          -40.2322083815       54.7460871136       18.8181464379  MEMB      185             0.0000000000
     22965       185  PMPE      C11           -38.2410182977       54.0879457663       19.5257133822  MEMB      185             0.0000000000
     22966       185  PMPE      H11A          -37.6539169858       54.0228061693       20.4666650166  MEMB      185             0.0000000000
     22967       185  PMPE      H11B          -37.7199483773       54.8024088179       18.8531438908  MEMB      185             0.0000000000
     22968       185  PMPE      P             -37.0677932614       51.9621619914       18.4372711263  MEMB      185             0.0000000000
     22969       185  PMPE      O13           -37.4641949015       50.4874542233       18.4343479011  MEMB      185             0.0000000000
     22970       185  PMPE      O14           -35.8433129646       52.4201646345       19.2005501189  MEMB      185             0.0000000000
     22971       185  PMPE      O11           -36.9064243396       52.3545181209       16.9353852078  MEMB      185             0.0000000000
     22972       185  PMPE      O12           -38.3504743925       52.7746219234       18.9602213415  MEMB      185             0.0000000000
     22973       185  PMPE      C1            -37.9777860745       52.0707311474       16.0175110367  MEMB      185             0.0000000000
     22974       185  PMPE      HA            -38.8993544263       52.6238082297       16.2988267788  MEMB      185             0.0000000000
     22975       185  PMPE      HB            -38.2885673348       51.0059966182       15.9536655688  MEMB      185             0.0000000000
     22976       185  PMPE      C2            -37.5786678543       52.4842115819       14.5759722914  MEMB      185             0.0000000000
     22977       185  PMPE      HS            -38.3559654042       52.1512710243       13.8553613547  MEMB      185             0.0000000000
     22978       185  PMPE      O21           -36.2263657447       51.9538210039       14.2097256762  MEMB      185             0.0000000000
     22979       185  PMPE      C21           -36.2651695007       50.8095658563       13.5296651988  MEMB      185             0.0000000000
     22980       185  PMPE      O22           -37.2015027427       50.0904104701       13.4255854781  MEMB      185             0.0000000000
     22981       185  PMPE      C22           -34.9857590687       50.6503074890       12.8155720858  MEMB      185             0.0000000000
     22982       185  PMPE      H2R           -34.9405219008       49.5402345264       12.8119884430  MEMB      185             0.0000000000
     22983       185  PMPE      H2S           -34.0811593988       51.1711410048       13.1960360289  MEMB      185             0.0000000000
     22984       185  PMPE      C3            -37.4731206721       54.0259286965       14.4867081599  MEMB      185             0.0000000000
     22985       185  PMPE      HX            -36.7296441171       54.4335275266       15.2046403843  MEMB      185             0.0000000000
     22986       185  PMPE      HY            -38.4252351161       54.4086583519       14.9125212698  MEMB      185             0.0000000000
     22987       185  PMPE      O31           -37.3484923502       54.4025934327       13.0682566313  MEMB      185             0.0000000000
     22988       185  PMPE      C31           -38.4633139315       54.7732223735       12.4559527245  MEMB      185             0.0000000000
     22989       185  PMPE      O32           -39.5871867020       54.8447618724       12.9433867981  MEMB      185             0.0000000000
     22990       185  PMPE      C32           -38.0168875975       55.1694820963       11.0287354256  MEMB      185             0.0000000000
     22991       185  PMPE      H2X           -37.1800319277       54.5392019723       10.6589508255  MEMB      185             0.0000000000
     22992       185  PMPE      H2Y           -37.8065768814       56.2602878088       11.0134646743  MEMB      185             0.0000000000
     22993       185  PMPE      C23           -35.1046503337       51.0627993760       11.2954712317  MEMB      185             0.0000000000
     22994       185  PMPE      H3R           -35.4891495520       52.1037912352       11.2423904834  MEMB      185             0.0000000000
     22995       185  PMPE      H3S           -35.8899410580       50.4754721474       10.7732770499  MEMB      185             0.0000000000
     22996       185  PMPE      C24           -33.8376972497       51.1351038001       10.5373985059  MEMB      185             0.0000000000
     22997       185  PMPE      H4R           -33.3843376004       50.1381427548       10.3507038714  MEMB      185             0.0000000000
     22998       185  PMPE      H4S           -32.9679371260       51.6333951397       11.0165057366  MEMB      185             0.0000000000
     22999       185  PMPE      C25           -33.8639147647       51.7254314072        9.1655033551  MEMB      185             0.0000000000
     23000       185  PMPE      H5R           -34.6643005420       51.2025346052        8.5995684442  MEMB      185             0.0000000000
     23001       185  PMPE      H5S           -32.8185473111       51.5833075520        8.8171812380  MEMB      185             0.0000000000
     23002       185  PMPE      C26           -34.1046732507       53.2992774173        9.1464671601  MEMB      185             0.0000000000
     23003       185  PMPE      H6R           -33.3727904647       53.8069396627        9.8105056844  MEMB      185             0.0000000000
     23004       185  PMPE      H6S           -35.1545663840       53.3446501573        9.5070031718  MEMB      185             0.0000000000
     23005       185  PMPE      C27           -33.8892315784       53.9918120922        7.7845569569  MEMB      185             0.0000000000
     23006       185  PMPE      H7R           -32.9076027787       53.6775323016        7.3698833401  MEMB      185             0.0000000000
     23007       185  PMPE      H7S           -33.9733990482       55.0943563782        7.8924130825  MEMB      185             0.0000000000
     23008       185  PMPE      C28           -34.9372995375       53.5462967248        6.6888063508  MEMB      185             0.0000000000
     23009       185  PMPE      H8R           -35.8850940353       53.2437716490        7.1832612750  MEMB      185             0.0000000000
     23010       185  PMPE      H8S           -34.5374142266       52.6818217344        6.1168835425  MEMB      185             0.0000000000
     23011       185  PMPE      C29           -35.1179770940       54.7639233491        5.7882472956  MEMB      185             0.0000000000
     23012       185  PMPE      H9R           -34.2256678797       55.1492321737        5.2500632828  MEMB      185             0.0000000000
     23013       185  PMPE      C217          -36.1637237389       55.8202587064        6.3637335915  MEMB      185             0.0000000000
     23014       185  PMPE      H17R          -35.8768656947       56.8419012546        6.1472904514  MEMB      185             0.0000000000
     23015       185  PMPE      H17S          -36.4689157171       55.4260397353        7.3251592214  MEMB      185             0.0000000000
     23016       185  PMPE      C210          -36.4863562102       54.9545424449        5.0862684915  MEMB      185             0.0000000000
     23017       185  PMPE      H10R          -36.4536590364       55.4018858998        4.0698355883  MEMB      185             0.0000000000
     23018       185  PMPE      C211          -37.6098522178       53.9844448784        5.2787708946  MEMB      185             0.0000000000
     23019       185  PMPE      H11R          -38.5572604172       54.5137018843        5.0408093295  MEMB      185             0.0000000000
     23020       185  PMPE      H11S          -37.7424378901       53.6694193016        6.3358904505  MEMB      185             0.0000000000
     23021       185  PMPE      C212          -37.3929290283       52.7801090887        4.4196692239  MEMB      185             0.0000000000
     23022       185  PMPE      H12R          -37.5644087959       51.8767041696        5.0431874044  MEMB      185             0.0000000000
     23023       185  PMPE      H12S          -36.3673661073       52.7073204276        3.9986663736  MEMB      185             0.0000000000
     23024       185  PMPE      C213          -38.3851210792       52.8648657147        3.3060446327  MEMB      185             0.0000000000
     23025       185  PMPE      H13R          -38.3730579097       53.8947397441        2.8894691205  MEMB      185             0.0000000000
     23026       185  PMPE      H13S          -39.3672830942       52.8722672305        3.8252971190  MEMB      185             0.0000000000
     23027       185  PMPE      C214          -38.3297996790       51.7158671377        2.3604700638  MEMB      185             0.0000000000
     23028       185  PMPE      H14R          -37.8858242956       50.8491544211        2.8952750597  MEMB      185             0.0000000000
     23029       185  PMPE      H14S          -37.7204490847       51.8965656097        1.4492294842  MEMB      185             0.0000000000
     23030       185  PMPE      C215          -39.7316498675       51.3725046864        1.7411405099  MEMB      185             0.0000000000
     23031       185  PMPE      H15R          -40.3022107163       50.7481067239        2.4614925335  MEMB      185             0.0000000000
     23032       185  PMPE      H15S          -39.4976871539       50.7474480741        0.8529471952  MEMB      185             0.0000000000
     23033       185  PMPE      C216          -40.6185769658       52.5270420991        1.2398544681  MEMB      185             0.0000000000
     23034       185  PMPE      H16R          -41.5213952961       52.2973392681        0.6344816318  MEMB      185             0.0000000000
     23035       185  PMPE      H16S          -40.9005782358       53.1821706498        2.0916785538  MEMB      185             0.0000000000
     23036       185  PMPE      H16T          -40.0357009616       53.2036536329        0.5789662333  MEMB      185             0.0000000000
     23037       185  PMPE      C33           -39.2374883668       55.0037317785       10.0379572134  MEMB      185             0.0000000000
     23038       185  PMPE      H3X           -38.9512624059       55.3736374477        9.0302044901  MEMB      185             0.0000000000
     23039       185  PMPE      H3Y           -40.0986160954       55.5670622481       10.4568120908  MEMB      185             0.0000000000
     23040       185  PMPE      C34           -39.6494400501       53.5082476310        9.8623702636  MEMB      185             0.0000000000
     23041       185  PMPE      H4X           -40.5290329272       53.5869974979        9.1882518805  MEMB      185             0.0000000000
     23042       185  PMPE      H4Y           -39.9557899168       53.0477949637       10.8259335227  MEMB      185             0.0000000000
     23043       185  PMPE      C35           -38.4948972633       52.7308336930        9.2062017993  MEMB      185             0.0000000000
     23044       185  PMPE      H5X           -37.6564838244       52.7794420313        9.9335403789  MEMB      185             0.0000000000
     23045       185  PMPE      H5Y           -38.1250157401       53.1888988582        8.2640316897  MEMB      185             0.0000000000
     23046       185  PMPE      C36           -38.8590632758       51.3381705772        8.6179260094  MEMB      185             0.0000000000
     23047       185  PMPE      H6X           -39.7161243245       51.3689110246        7.9116523541  MEMB      185             0.0000000000
     23048       185  PMPE      H6Y           -39.1345127668       50.6068009359        9.4075764095  MEMB      185             0.0000000000
     23049       185  PMPE      C37           -37.6783991553       50.5678015973        7.9192121791  MEMB      185             0.0000000000
     23050       185  PMPE      H7X           -37.0007204385       50.3218741003        8.7645473128  MEMB      185             0.0000000000
     23051       185  PMPE      H7Y           -37.1639241505       51.2506061717        7.2096950040  MEMB      185             0.0000000000
     23052       185  PMPE      C38           -38.1463755377       49.4168478754        7.0703468904  MEMB      185             0.0000000000
     23053       185  PMPE      H8X           -38.7560685656       49.8934125232        6.2731758818  MEMB      185             0.0000000000
     23054       185  PMPE      H8Y           -38.8498456404       48.7538625938        7.6179794157  MEMB      185             0.0000000000
     23055       185  PMPE      C39           -36.9842765413       48.6295538474        6.4210173585  MEMB      185             0.0000000000
     23056       185  PMPE      H9X           -37.3279940811       47.7895875574        5.7802095151  MEMB      185             0.0000000000
     23057       185  PMPE      H9Y           -36.3552825350       48.2138404504        7.2370265837  MEMB      185             0.0000000000
     23058       185  PMPE      C310          -36.0155246848       49.4735114927        5.6104348819  MEMB      185             0.0000000000
     23059       185  PMPE      H10X          -35.5985422629       50.3253410386        6.1890827767  MEMB      185             0.0000000000
     23060       185  PMPE      H10Y          -36.5934935073       49.8476362463        4.7384811922  MEMB      185             0.0000000000
     23061       185  PMPE      C311          -34.8554272208       48.7000099561        5.0646989380  MEMB      185             0.0000000000
     23062       185  PMPE      H11X          -35.3019582454       48.1291307402        4.2226607186  MEMB      185             0.0000000000
     23063       185  PMPE      H11Y          -34.4878340778       47.9114528450        5.7556217752  MEMB      185             0.0000000000
     23064       185  PMPE      C312          -33.7048065928       49.5982312516        4.4873405134  MEMB      185             0.0000000000
     23065       185  PMPE      H12X          -32.8660884020       48.9667919254        4.1238056893  MEMB      185             0.0000000000
     23066       185  PMPE      H12Y          -33.3251256894       50.2328770792        5.3164294492  MEMB      185             0.0000000000
     23067       185  PMPE      C313          -34.0679800332       50.4993501364        3.2901037010  MEMB      185             0.0000000000
     23068       185  PMPE      H13X          -33.2034698085       51.1773632676        3.1250543119  MEMB      185             0.0000000000
     23069       185  PMPE      H13Y          -34.9331380965       51.1517116051        3.5355553593  MEMB      185             0.0000000000
     23070       185  PMPE      C314          -34.3978327889       49.6353482876        2.0280423252  MEMB      185             0.0000000000
     23071       185  PMPE      H14X          -35.2015858957       48.9350709716        2.3409546954  MEMB      185             0.0000000000
     23072       185  PMPE      H14Y          -33.5845166361       48.9909201536        1.6311168177  MEMB      185             0.0000000000
     23073       185  PMPE      C315          -34.8198145410       50.5845239645        0.8526712402  MEMB      185             0.0000000000
     23074       185  PMPE      H15X          -33.9396395714       50.9435940443        0.2776215839  MEMB      185             0.0000000000
     23075       185  PMPE      H15Y          -35.1857128346       51.5426537603        1.2797851357  MEMB      185             0.0000000000
     23076       185  PMPE      C316          -35.8820898197       50.0447564410       -0.0887507205  MEMB      185             0.0000000000
     23077       185  PMPE      H16X          -36.8385864160       49.7761454798        0.4085249331  MEMB      185             0.0000000000
     23078       185  PMPE      H16Y          -35.5026652052       49.1053441479       -0.5446687643  MEMB      185             0.0000000000
     23079       185  PMPE      H16Z          -35.9905584149       50.8202679992       -0.8768730294  MEMB      185             0.0000000000
     23080       186  PMPE      N             -45.1138341751      -47.6398481189       17.9463228362  MEMB      186             0.0000000000
     23081       186  PMPE      HN1           -44.3991827618      -46.9309733722       18.2077997260  MEMB      186             0.0000000000
     23082       186  PMPE      HN2           -45.5772301238      -48.0100549548       18.8006126069  MEMB      186             0.0000000000
     23083       186  PMPE      HN3           -44.6520772290      -48.3605473780       17.3555836221  MEMB      186             0.0000000000
     23084       186  PMPE      C12           -46.1269317573      -46.9365723424       17.0935393729  MEMB      186             0.0000000000
     23085       186  PMPE      H12A          -46.6695729399      -47.6852158931       16.4775893988  MEMB      186             0.0000000000
     23086       186  PMPE      H12B          -45.6163498219      -46.2415591665       16.3931227332  MEMB      186             0.0000000000
     23087       186  PMPE      C11           -47.0938259755      -46.1127812663       18.0220040708  MEMB      186             0.0000000000
     23088       186  PMPE      H11A          -47.5968362351      -46.7890425412       18.7458634856  MEMB      186             0.0000000000
     23089       186  PMPE      H11B          -47.8921903386      -45.6459685995       17.4063571208  MEMB      186             0.0000000000
     23090       186  PMPE      P             -47.2205212376      -44.3034097474       19.9182643837  MEMB      186             0.0000000000
     23091       186  PMPE      O13           -46.3016816256      -43.2480232048       20.3506205553  MEMB      186             0.0000000000
     23092       186  PMPE      O14           -47.7360131082      -45.3508103499       20.8491738993  MEMB      186             0.0000000000
     23093       186  PMPE      O11           -48.4551392725      -43.7106956961       19.1118638050  MEMB      186             0.0000000000
     23094       186  PMPE      O12           -46.4135656510      -45.0356664734       18.7082110745  MEMB      186             0.0000000000
     23095       186  PMPE      C1            -48.1976542948      -42.5236905235       18.3005780869  MEMB      186             0.0000000000
     23096       186  PMPE      HA            -47.1461859879      -42.5211322181       17.9417899050  MEMB      186             0.0000000000
     23097       186  PMPE      HB            -48.2230493810      -41.5797441532       18.8859340618  MEMB      186             0.0000000000
     23098       186  PMPE      C2            -49.1574627133      -42.4968925695       17.0758589146  MEMB      186             0.0000000000
     23099       186  PMPE      HS            -50.2316606981      -42.3179584722       17.2958642738  MEMB      186             0.0000000000
     23100       186  PMPE      O21           -48.9150836170      -43.6979835582       16.3194163426  MEMB      186             0.0000000000
     23101       186  PMPE      C21           -49.8289866108      -43.9930843482       15.3652309694  MEMB      186             0.0000000000
     23102       186  PMPE      O22           -50.8620167432      -43.3437304934       15.2050318665  MEMB      186             0.0000000000
     23103       186  PMPE      C22           -49.2468625299      -45.0863591359       14.4346207457  MEMB      186             0.0000000000
     23104       186  PMPE      H2R           -49.4699914465      -46.1267387491       14.7542221219  MEMB      186             0.0000000000
     23105       186  PMPE      H2S           -48.1459990639      -44.9455298613       14.3837500034  MEMB      186             0.0000000000
     23106       186  PMPE      C3            -48.7852498708      -41.2845146597       16.1803950275  MEMB      186             0.0000000000
     23107       186  PMPE      HX            -49.0647534376      -40.3355794446       16.6860836837  MEMB      186             0.0000000000
     23108       186  PMPE      HY            -49.3806884523      -41.3393230983       15.2440349955  MEMB      186             0.0000000000
     23109       186  PMPE      O31           -47.3374100887      -41.2270372540       15.8819763699  MEMB      186             0.0000000000
     23110       186  PMPE      C31           -46.9754569745      -41.3070458693       14.5838392676  MEMB      186             0.0000000000
     23111       186  PMPE      O32           -47.7509043581      -41.4310944685       13.6809090257  MEMB      186             0.0000000000
     23112       186  PMPE      C32           -45.4408233862      -41.2281716759       14.5254512455  MEMB      186             0.0000000000
     23113       186  PMPE      H2X           -45.1625683102      -40.6405919159       15.4263650231  MEMB      186             0.0000000000
     23114       186  PMPE      H2Y           -45.2484034256      -40.5839120153       13.6410166733  MEMB      186             0.0000000000
     23115       186  PMPE      C23           -49.8257920546      -44.9134112711       12.9844124248  MEMB      186             0.0000000000
     23116       186  PMPE      H3R           -49.4457410211      -44.0420831660       12.4093736392  MEMB      186             0.0000000000
     23117       186  PMPE      H3S           -50.9330743955      -45.0042045069       12.9825371432  MEMB      186             0.0000000000
     23118       186  PMPE      C24           -49.5024686403      -46.0956947489       11.9688158881  MEMB      186             0.0000000000
     23119       186  PMPE      H4R           -50.0478284581      -47.0272121146       12.2318349388  MEMB      186             0.0000000000
     23120       186  PMPE      H4S           -48.4155295446      -46.3240968710       11.9955914076  MEMB      186             0.0000000000
     23121       186  PMPE      C25           -49.9056666090      -45.7688161303       10.5330066222  MEMB      186             0.0000000000
     23122       186  PMPE      H5R           -49.2068780987      -44.9834932098       10.1734463871  MEMB      186             0.0000000000
     23123       186  PMPE      H5S           -50.9802245839      -45.5255266669       10.3899805283  MEMB      186             0.0000000000
     23124       186  PMPE      C26           -49.7042495455      -46.8731356790        9.4797368032  MEMB      186             0.0000000000
     23125       186  PMPE      H6R           -49.8690004097      -46.3594006467        8.5085234390  MEMB      186             0.0000000000
     23126       186  PMPE      H6S           -50.4350793165      -47.6952032499        9.6359841817  MEMB      186             0.0000000000
     23127       186  PMPE      C27           -48.3597346688      -47.6438952566        9.5373272866  MEMB      186             0.0000000000
     23128       186  PMPE      H7R           -48.3433956193      -48.5117659413       10.2307642927  MEMB      186             0.0000000000
     23129       186  PMPE      H7S           -47.6159998710      -46.9507835385        9.9854081947  MEMB      186             0.0000000000
     23130       186  PMPE      C28           -47.8040055684      -47.9634393811        8.1362338529  MEMB      186             0.0000000000
     23131       186  PMPE      H8R           -47.7540709249      -47.0024506194        7.5809605997  MEMB      186             0.0000000000
     23132       186  PMPE      H8S           -48.5604138225      -48.5568713065        7.5794526391  MEMB      186             0.0000000000
     23133       186  PMPE      C29           -46.4485092410      -48.7780310692        8.1623110351  MEMB      186             0.0000000000
     23134       186  PMPE      H9R           -46.3423938162      -49.6321887001        8.8647890498  MEMB      186             0.0000000000
     23135       186  PMPE      C217          -45.2745795233      -47.8425619086        8.3082248328  MEMB      186             0.0000000000
     23136       186  PMPE      H17R          -44.6550427571      -48.0138709564        9.1798424634  MEMB      186             0.0000000000
     23137       186  PMPE      H17S          -45.4547494146      -46.8601477101        7.8895487141  MEMB      186             0.0000000000
     23138       186  PMPE      C210          -45.3748080282      -48.7824592787        7.1454775434  MEMB      186             0.0000000000
     23139       186  PMPE      H10R          -44.6403415137      -49.6148788571        7.1897231688  MEMB      186             0.0000000000
     23140       186  PMPE      C211          -45.7554347721      -48.2874053465        5.7336857741  MEMB      186             0.0000000000
     23141       186  PMPE      H11R          -44.8730205602      -48.4571213529        5.0803394466  MEMB      186             0.0000000000
     23142       186  PMPE      H11S          -46.0078797572      -47.2094311506        5.8262292650  MEMB      186             0.0000000000
     23143       186  PMPE      C212          -46.8727761020      -49.3062019337        5.2534619430  MEMB      186             0.0000000000
     23144       186  PMPE      H12R          -47.5705178157      -49.6045204790        6.0649311769  MEMB      186             0.0000000000
     23145       186  PMPE      H12S          -46.3622656071      -50.2621080269        5.0086276474  MEMB      186             0.0000000000
     23146       186  PMPE      C213          -47.6371413291      -48.6345627000        4.0728341287  MEMB      186             0.0000000000
     23147       186  PMPE      H13R          -46.9593596126      -48.4049101160        3.2230157105  MEMB      186             0.0000000000
     23148       186  PMPE      H13S          -48.0605533421      -47.7173751817        4.5352313667  MEMB      186             0.0000000000
     23149       186  PMPE      C214          -48.8256547247      -49.5217951079        3.5685674912  MEMB      186             0.0000000000
     23150       186  PMPE      H14R          -49.4434641136      -49.8853233334        4.4173781354  MEMB      186             0.0000000000
     23151       186  PMPE      H14S          -48.3540398706      -50.3772907844        3.0393912223  MEMB      186             0.0000000000
     23152       186  PMPE      C215          -49.7621749177      -48.7927782922        2.5489766831  MEMB      186             0.0000000000
     23153       186  PMPE      H15R          -50.4588538206      -49.4967400805        2.0455913109  MEMB      186             0.0000000000
     23154       186  PMPE      H15S          -49.0497094808      -48.3419794508        1.8254471707  MEMB      186             0.0000000000
     23155       186  PMPE      C216          -50.6680232065      -47.6419462335        3.0743747461  MEMB      186             0.0000000000
     23156       186  PMPE      H16R          -51.6404148284      -47.9842925314        3.4885906880  MEMB      186             0.0000000000
     23157       186  PMPE      H16S          -50.1496535357      -46.9065000777        3.7260900489  MEMB      186             0.0000000000
     23158       186  PMPE      H16T          -50.9436293495      -46.9536714379        2.2469456587  MEMB      186             0.0000000000
     23159       186  PMPE      C33           -44.6714264649      -42.5540400130       14.4279128635  MEMB      186             0.0000000000
     23160       186  PMPE      H3X           -44.9869115449      -43.2097560881       15.2674525272  MEMB      186             0.0000000000
     23161       186  PMPE      H3Y           -43.5705747406      -42.4299192559       14.5118165170  MEMB      186             0.0000000000
     23162       186  PMPE      C34           -44.9973360219      -43.3480576221       13.1700051386  MEMB      186             0.0000000000
     23163       186  PMPE      H4X           -45.9654319585      -43.8904500673       13.1159521142  MEMB      186             0.0000000000
     23164       186  PMPE      H4Y           -44.2548614738      -44.1745027423       13.1764089292  MEMB      186             0.0000000000
     23165       186  PMPE      C35           -44.9027560086      -42.6680105517       11.8600488682  MEMB      186             0.0000000000
     23166       186  PMPE      H5X           -44.0322911124      -41.9808867303       11.7931712916  MEMB      186             0.0000000000
     23167       186  PMPE      H5Y           -45.7515500506      -42.0257898439       11.5415806284  MEMB      186             0.0000000000
     23168       186  PMPE      C36           -44.7443210426      -43.6813994067       10.6804118129  MEMB      186             0.0000000000
     23169       186  PMPE      H6X           -45.6230920286      -44.2933803716       10.3845035966  MEMB      186             0.0000000000
     23170       186  PMPE      H6Y           -43.9899310215      -44.3802807591       11.1008663691  MEMB      186             0.0000000000
     23171       186  PMPE      C37           -44.1414831601      -43.1638423958        9.3468884096  MEMB      186             0.0000000000
     23172       186  PMPE      H7X           -43.9742088474      -44.0577938938        8.7087733204  MEMB      186             0.0000000000
     23173       186  PMPE      H7Y           -43.1629825159      -42.6770723374        9.5466687337  MEMB      186             0.0000000000
     23174       186  PMPE      C38           -45.0664938495      -42.1222053546        8.7938033183  MEMB      186             0.0000000000
     23175       186  PMPE      H8X           -44.5610901969      -41.1391303454        8.9053912279  MEMB      186             0.0000000000
     23176       186  PMPE      H8Y           -46.0433296309      -42.0335985796        9.3155898039  MEMB      186             0.0000000000
     23177       186  PMPE      C39           -45.3400813094      -42.2538519022        7.2506601198  MEMB      186             0.0000000000
     23178       186  PMPE      H9X           -44.3546711568      -42.1515463124        6.7478469102  MEMB      186             0.0000000000
     23179       186  PMPE      H9Y           -45.9826470651      -41.4449399401        6.8418916963  MEMB      186             0.0000000000
     23180       186  PMPE      C310          -46.1721483447      -43.5239320362        6.8845161067  MEMB      186             0.0000000000
     23181       186  PMPE      H10X          -46.9758276170      -43.6473496755        7.6416084650  MEMB      186             0.0000000000
     23182       186  PMPE      H10Y          -45.5530985058      -44.4464135597        6.8957433375  MEMB      186             0.0000000000
     23183       186  PMPE      C311          -46.9752594260      -43.4722361485        5.5430195331  MEMB      186             0.0000000000
     23184       186  PMPE      H11X          -47.7526237399      -42.7513401840        5.8751863539  MEMB      186             0.0000000000
     23185       186  PMPE      H11Y          -47.4103845613      -44.4727134854        5.3331805517  MEMB      186             0.0000000000
     23186       186  PMPE      C312          -46.0688531218      -43.0688664135        4.3443100609  MEMB      186             0.0000000000
     23187       186  PMPE      H12X          -45.1304436692      -43.6624791908        4.3078090189  MEMB      186             0.0000000000
     23188       186  PMPE      H12Y          -45.8197433581      -41.9878395778        4.4046946005  MEMB      186             0.0000000000
     23189       186  PMPE      C313          -46.8688398298      -43.2315180494        2.9758940486  MEMB      186             0.0000000000
     23190       186  PMPE      H13X          -46.3202519249      -42.6216487887        2.2266066976  MEMB      186             0.0000000000
     23191       186  PMPE      H13Y          -47.8887164917      -42.7958627329        3.0420547874  MEMB      186             0.0000000000
     23192       186  PMPE      C314          -46.7778125684      -44.7052125816        2.4524266374  MEMB      186             0.0000000000
     23193       186  PMPE      H14X          -47.0130286580      -44.6487486581        1.3680800315  MEMB      186             0.0000000000
     23194       186  PMPE      H14Y          -47.6469515979      -45.2423261248        2.8888066047  MEMB      186             0.0000000000
     23195       186  PMPE      C315          -45.4689205911      -45.5446216843        2.5343973850  MEMB      186             0.0000000000
     23196       186  PMPE      H15X          -45.7339211095      -46.5616780001        2.1742697033  MEMB      186             0.0000000000
     23197       186  PMPE      H15Y          -45.2168693407      -45.6896806578        3.6066611416  MEMB      186             0.0000000000
     23198       186  PMPE      C316          -44.2263814094      -44.8884445353        1.8016131957  MEMB      186             0.0000000000
     23199       186  PMPE      H16X          -43.3429222911      -45.5616763697        1.7775251247  MEMB      186             0.0000000000
     23200       186  PMPE      H16Y          -44.0844174843      -43.9081829611        2.3048573255  MEMB      186             0.0000000000
     23201       186  PMPE      H16Z          -44.4395849496      -44.6898581346        0.7294994408  MEMB      186             0.0000000000
     23202       187  OYPE      N              51.9255539584      -35.4995899837       18.7661212570  MEMB      187             0.0000000000
     23203       187  OYPE      HN1            51.4347881936      -35.4921391590       17.8492278892  MEMB      187             0.0000000000
     23204       187  OYPE      HN2            51.8923103311      -34.6086710286       19.3016193953  MEMB      187             0.0000000000
     23205       187  OYPE      HN3            52.9023216883      -35.7785434439       18.5431643880  MEMB      187             0.0000000000
     23206       187  OYPE      C12            51.2581919515      -36.5149252178       19.6739223333  MEMB      187             0.0000000000
     23207       187  OYPE      H12A           50.1823676269      -36.2649684429       19.5537357236  MEMB      187             0.0000000000
     23208       187  OYPE      H12B           51.5689888694      -36.1595982601       20.6796405288  MEMB      187             0.0000000000
     23209       187  OYPE      C11            51.5905002469      -37.9721744437       19.1607198082  MEMB      187             0.0000000000
     23210       187  OYPE      H11A           51.3078892374      -38.0644476352       18.0902350028  MEMB      187             0.0000000000
     23211       187  OYPE      H11B           51.0585445550      -38.7620095453       19.7329999553  MEMB      187             0.0000000000
     23212       187  OYPE      P              53.6386415599      -39.4655262974       18.9147189283  MEMB      187             0.0000000000
     23213       187  OYPE      O13            52.8498712307      -40.5894896650       19.4592219254  MEMB      187             0.0000000000
     23214       187  OYPE      O14            55.1105188539      -39.4175490908       19.3616098072  MEMB      187             0.0000000000
     23215       187  OYPE      O11            53.5673102656      -39.4673505090       17.3439981047  MEMB      187             0.0000000000
     23216       187  OYPE      O12            53.0012471306      -38.1415067901       19.3196878700  MEMB      187             0.0000000000
     23217       187  OYPE      C1             54.2160297139      -38.4061005595       16.7189837705  MEMB      187             0.0000000000
     23218       187  OYPE      HA             55.2570381089      -38.3366119400       17.1008135399  MEMB      187             0.0000000000
     23219       187  OYPE      HB             53.6819746746      -37.4588737016       16.9467281178  MEMB      187             0.0000000000
     23220       187  OYPE      C2             54.3979324383      -38.5552028975       15.1733059965  MEMB      187             0.0000000000
     23221       187  OYPE      HS             54.7978735945      -37.5572683170       14.8931370213  MEMB      187             0.0000000000
     23222       187  OYPE      O21            53.1800232291      -38.8757631823       14.4541569242  MEMB      187             0.0000000000
     23223       187  OYPE      C21            52.3086489385      -37.9173349909       14.4422645942  MEMB      187             0.0000000000
     23224       187  OYPE      O22            52.5095075250      -36.7634071713       14.8691257363  MEMB      187             0.0000000000
     23225       187  OYPE      C22            51.0438208055      -38.5295789971       13.9898021210  MEMB      187             0.0000000000
     23226       187  OYPE      H2R            50.1941432366      -38.1579735448       14.6015852460  MEMB      187             0.0000000000
     23227       187  OYPE      H2S            51.0206869150      -39.6384709508       14.0541796052  MEMB      187             0.0000000000
     23228       187  OYPE      C3             55.5344435372      -39.5740911954       14.8674685853  MEMB      187             0.0000000000
     23229       187  OYPE      HX             55.0418380834      -40.5470174990       15.0797777538  MEMB      187             0.0000000000
     23230       187  OYPE      HY             56.4896316154      -39.3327396454       15.3809726609  MEMB      187             0.0000000000
     23231       187  OYPE      O31            55.7882849627      -39.5051861056       13.4079510300  MEMB      187             0.0000000000
     23232       187  OYPE      C31            56.8344361696      -38.8003195776       12.9961241969  MEMB      187             0.0000000000
     23233       187  OYPE      O32            57.4015704167      -37.8894033880       13.6715346420  MEMB      187             0.0000000000
     23234       187  OYPE      C32            57.2315587408      -39.1403147135       11.5739893324  MEMB      187             0.0000000000
     23235       187  OYPE      H2X            56.8333994279      -38.3401566082       10.9140367864  MEMB      187             0.0000000000
     23236       187  OYPE      H2Y            58.3388400891      -39.0754277319       11.6375406760  MEMB      187             0.0000000000
     23237       187  OYPE      C23            50.6352287842      -37.9994357580       12.6410190593  MEMB      187             0.0000000000
     23238       187  OYPE      H3R            50.4227446019      -36.9098406325       12.6852205296  MEMB      187             0.0000000000
     23239       187  OYPE      H3S            49.6526231617      -38.4850881390       12.4594998881  MEMB      187             0.0000000000
     23240       187  OYPE      C24            51.5269223107      -38.5192196696       11.4266647596  MEMB      187             0.0000000000
     23241       187  OYPE      H4R            50.8221423251      -38.5666753644       10.5691363342  MEMB      187             0.0000000000
     23242       187  OYPE      H4S            51.7785769945      -39.5887887185       11.5910208511  MEMB      187             0.0000000000
     23243       187  OYPE      C25            52.6735292315      -37.6096291893       11.1245544921  MEMB      187             0.0000000000
     23244       187  OYPE      H5R            53.2473625999      -37.8730795906       10.2104266306  MEMB      187             0.0000000000
     23245       187  OYPE      H5S            53.4285006267      -37.7595749690       11.9257134919  MEMB      187             0.0000000000
     23246       187  OYPE      C26            52.2870651590      -36.1028242736       10.9990884613  MEMB      187             0.0000000000
     23247       187  OYPE      H6R            52.6133261950      -35.6571646708       11.9630707004  MEMB      187             0.0000000000
     23248       187  OYPE      H6S            51.1784422554      -36.0702483129       10.9341636741  MEMB      187             0.0000000000
     23249       187  OYPE      C27            52.9943480956      -35.4531351667        9.7611219239  MEMB      187             0.0000000000
     23250       187  OYPE      H7R            52.5627820668      -34.4326800924        9.6790027516  MEMB      187             0.0000000000
     23251       187  OYPE      H7S            52.8578121711      -36.0834508300        8.8564781237  MEMB      187             0.0000000000
     23252       187  OYPE      C28            54.5156102543      -35.4577805696       10.0714245109  MEMB      187             0.0000000000
     23253       187  OYPE      H8R            54.8058604003      -36.5119332155        9.8743506848  MEMB      187             0.0000000000
     23254       187  OYPE      H8S            54.7160677692      -35.3474460376       11.1586059923  MEMB      187             0.0000000000
     23255       187  OYPE      C29            55.3050384488      -34.4413459740        9.2685248020  MEMB      187             0.0000000000
     23256       187  OYPE      H9R            55.8821183594      -33.7805290660        9.9320765685  MEMB      187             0.0000000000
     23257       187  OYPE      C210           55.5007882656      -34.5228120624        7.9267742173  MEMB      187             0.0000000000
     23258       187  OYPE      H10R           55.9041339485      -33.6189817639        7.4467700721  MEMB      187             0.0000000000
     23259       187  OYPE      C211           55.0018896068      -35.5667977077        6.9340602949  MEMB      187             0.0000000000
     23260       187  OYPE      H11R           54.3161357025      -36.2948754897        7.4177598921  MEMB      187             0.0000000000
     23261       187  OYPE      H11S           55.9114836480      -35.9800530958        6.4480765284  MEMB      187             0.0000000000
     23262       187  OYPE      C212           54.1074000689      -35.0420889546        5.8075325179  MEMB      187             0.0000000000
     23263       187  OYPE      H12R           54.0283093837      -35.8600234533        5.0598362682  MEMB      187             0.0000000000
     23264       187  OYPE      H12S           54.6211969799      -34.1767980555        5.3367825016  MEMB      187             0.0000000000
     23265       187  OYPE      C213           52.6912074453      -34.7033814873        6.2168144323  MEMB      187             0.0000000000
     23266       187  OYPE      H13R           52.7199184498      -33.8664088003        6.9468646881  MEMB      187             0.0000000000
     23267       187  OYPE      H13S           52.2103401277      -35.5114920984        6.8084613227  MEMB      187             0.0000000000
     23268       187  OYPE      C214           51.8124554024      -34.2544290618        5.0222011163  MEMB      187             0.0000000000
     23269       187  OYPE      H14R           52.3688919870      -33.5212274284        4.4000158702  MEMB      187             0.0000000000
     23270       187  OYPE      H14S           50.8776314386      -33.7619220750        5.3655117765  MEMB      187             0.0000000000
     23271       187  OYPE      C215           51.3612280415      -35.4360770947        4.1644569014  MEMB      187             0.0000000000
     23272       187  OYPE      H15R           50.6349223665      -36.0280939087        4.7613798107  MEMB      187             0.0000000000
     23273       187  OYPE      H15S           52.0901331810      -36.2405011108        3.9279812837  MEMB      187             0.0000000000
     23274       187  OYPE      C216           50.5159102912      -35.0468741179        2.9216274548  MEMB      187             0.0000000000
     23275       187  OYPE      H16R           49.8844728177      -35.8760518045        2.5368262247  MEMB      187             0.0000000000
     23276       187  OYPE      H16S           51.1798429113      -34.7592993980        2.0785283406  MEMB      187             0.0000000000
     23277       187  OYPE      H16T           49.8670582914      -34.2028322074        3.2392837539  MEMB      187             0.0000000000
     23278       187  OYPE      C33            56.8978685876      -40.5280404995       10.9506036671  MEMB      187             0.0000000000
     23279       187  OYPE      H3X            57.1421470155      -41.3396230271       11.6689230813  MEMB      187             0.0000000000
     23280       187  OYPE      H3Y            57.5369079797      -40.5592928651       10.0423228901  MEMB      187             0.0000000000
     23281       187  OYPE      C34            55.4116789706      -40.7500434459       10.6154104645  MEMB      187             0.0000000000
     23282       187  OYPE      H4X            54.8805437223      -40.7823000872       11.5906931453  MEMB      187             0.0000000000
     23283       187  OYPE      H4Y            55.0543009124      -39.8642241240       10.0480252495  MEMB      187             0.0000000000
     23284       187  OYPE      C35            55.1460169684      -42.1108202699        9.8526159745  MEMB      187             0.0000000000
     23285       187  OYPE      H5X            55.5834825821      -42.8582318021       10.5485472937  MEMB      187             0.0000000000
     23286       187  OYPE      H5Y            55.5551685033      -42.1664903664        8.8212002935  MEMB      187             0.0000000000
     23287       187  OYPE      C36            53.6420288440      -42.5484470388        9.7326556554  MEMB      187             0.0000000000
     23288       187  OYPE      H6X            53.7306206830      -43.4341347517        9.0678021507  MEMB      187             0.0000000000
     23289       187  OYPE      H6Y            53.1973253973      -42.7908778269       10.7214869455  MEMB      187             0.0000000000
     23290       187  OYPE      C37            52.8245019530      -41.4216828233        9.0299407878  MEMB      187             0.0000000000
     23291       187  OYPE      H7X            51.8169251879      -41.8866251409        8.9757314647  MEMB      187             0.0000000000
     23292       187  OYPE      H7Y            52.8179150102      -40.5357370261        9.7002972344  MEMB      187             0.0000000000
     23293       187  OYPE      C38            53.2172958698      -40.9026901066        7.6217162683  MEMB      187             0.0000000000
     23294       187  OYPE      H8X            54.1625905847      -40.3190149306        7.6138287363  MEMB      187             0.0000000000
     23295       187  OYPE      H8Y            53.3317023390      -41.7334120347        6.8929268416  MEMB      187             0.0000000000
     23296       187  OYPE      C39            52.2049118552      -39.8936511193        7.1299210341  MEMB      187             0.0000000000
     23297       187  OYPE      H9X            52.4335610318      -38.8910058909        7.5203335754  MEMB      187             0.0000000000
     23298       187  OYPE      C310           51.1481853958      -40.0506111102        6.2969416434  MEMB      187             0.0000000000
     23299       187  OYPE      H10X           50.3393693062      -39.3323727881        6.0970656371  MEMB      187             0.0000000000
     23300       187  OYPE      C311           50.7090730650      -41.3623930854        5.6338923356  MEMB      187             0.0000000000
     23301       187  OYPE      H11X           51.5329592793      -41.8541368695        5.0737844523  MEMB      187             0.0000000000
     23302       187  OYPE      H11Y           50.5161176424      -42.1346573738        6.4089387663  MEMB      187             0.0000000000
     23303       187  OYPE      C312           49.6100322762      -41.2468787644        4.6051940420  MEMB      187             0.0000000000
     23304       187  OYPE      H12X           48.6518030455      -40.8214666720        4.9728116174  MEMB      187             0.0000000000
     23305       187  OYPE      H12Y           49.3460824138      -42.3005349016        4.3718274872  MEMB      187             0.0000000000
     23306       187  OYPE      C313           50.0378470664      -40.4750684046        3.3893798539  MEMB      187             0.0000000000
     23307       187  OYPE      H13X           49.1998401196      -40.5397359104        2.6628246143  MEMB      187             0.0000000000
     23308       187  OYPE      H13Y           50.1307615440      -39.3997495671        3.6527761864  MEMB      187             0.0000000000
     23309       187  OYPE      C314           51.4030257962      -40.9042235996        2.6784739939  MEMB      187             0.0000000000
     23310       187  OYPE      H14X           51.3171492687      -41.9710554239        2.3804551058  MEMB      187             0.0000000000
     23311       187  OYPE      H14Y           52.2367691071      -40.7862422140        3.4032321109  MEMB      187             0.0000000000
     23312       187  OYPE      C315           51.7626191004      -40.2883487352        1.3195532829  MEMB      187             0.0000000000
     23313       187  OYPE      H15X           50.9885738947      -40.6307328793        0.5998669999  MEMB      187             0.0000000000
     23314       187  OYPE      H15Y           52.7484189789      -40.7122659417        1.0317787908  MEMB      187             0.0000000000
     23315       187  OYPE      C316           51.9673524965      -38.7515923254        1.2475169912  MEMB      187             0.0000000000
     23316       187  OYPE      H16X           51.0329364215      -38.2632882238        1.5978697987  MEMB      187             0.0000000000
     23317       187  OYPE      H16Y           52.2976315131      -38.2298169485        0.3239433145  MEMB      187             0.0000000000
     23318       187  OYPE      C317           53.0772498419      -38.3093741544        2.2605598627  MEMB      187             0.0000000000
     23319       187  OYPE      H17X           52.7608336906      -38.5952276244        3.2864687339  MEMB      187             0.0000000000
     23320       187  OYPE      H17Y           53.1055837962      -37.1988626757        2.2773702924  MEMB      187             0.0000000000
     23321       187  OYPE      C318           54.4231299312      -38.9507106977        1.9890341122  MEMB      187             0.0000000000
     23322       187  OYPE      H18X           54.7277229111      -38.7798777051        0.9343504408  MEMB      187             0.0000000000
     23323       187  OYPE      H18Y           55.0900759938      -38.4158612943        2.6985704343  MEMB      187             0.0000000000
     23324       187  OYPE      H18Z           54.4991839613      -40.0314017861        2.2352940166  MEMB      187             0.0000000000
     23325       188  PMPE      N             -55.3863197763       38.2739575497       21.1742884735  MEMB      188             0.0000000000
     23326       188  PMPE      HN1           -54.7146820085       39.0381212476       20.9585185158  MEMB      188             0.0000000000
     23327       188  PMPE      HN2           -56.3631508351       38.4388934407       20.8577491109  MEMB      188             0.0000000000
     23328       188  PMPE      HN3           -55.3812312705       38.0594793645       22.1919196442  MEMB      188             0.0000000000
     23329       188  PMPE      C12           -54.8496007215       37.0801477933       20.4776604756  MEMB      188             0.0000000000
     23330       188  PMPE      H12A          -55.4850324732       36.1985759523       20.7086990282  MEMB      188             0.0000000000
     23331       188  PMPE      H12B          -53.8487421406       36.9428069320       20.9399814082  MEMB      188             0.0000000000
     23332       188  PMPE      C11           -54.5255886335       37.4310249522       18.9732089638  MEMB      188             0.0000000000
     23333       188  PMPE      H11A          -55.4923382119       37.6769591639       18.4840949338  MEMB      188             0.0000000000
     23334       188  PMPE      H11B          -54.2660383978       36.4631190686       18.4935081701  MEMB      188             0.0000000000
     23335       188  PMPE      P             -52.1435638536       38.1287928615       18.2675021309  MEMB      188             0.0000000000
     23336       188  PMPE      O13           -52.3882225471       37.3615323776       17.0541439547  MEMB      188             0.0000000000
     23337       188  PMPE      O14           -51.2287342959       37.5437711078       19.2941725129  MEMB      188             0.0000000000
     23338       188  PMPE      O11           -51.6083338652       39.5984053415       17.8671091633  MEMB      188             0.0000000000
     23339       188  PMPE      O12           -53.5502016878       38.4610036287       18.8919143274  MEMB      188             0.0000000000
     23340       188  PMPE      C1            -52.4911367325       40.5612612722       17.3766878779  MEMB      188             0.0000000000
     23341       188  PMPE      HA            -51.9948966048       41.5506881372       17.4720868752  MEMB      188             0.0000000000
     23342       188  PMPE      HB            -53.3263477880       40.5140934763       18.1077955789  MEMB      188             0.0000000000
     23343       188  PMPE      C2            -52.7636003185       40.3958489472       15.8507769611  MEMB      188             0.0000000000
     23344       188  PMPE      HS            -52.8860859593       39.3378716763       15.5345453877  MEMB      188             0.0000000000
     23345       188  PMPE      O21           -51.6123201745       40.9329319351       15.1222538453  MEMB      188             0.0000000000
     23346       188  PMPE      C21           -50.8049436333       40.1436652344       14.4249295795  MEMB      188             0.0000000000
     23347       188  PMPE      O22           -50.6541890054       38.9779749837       14.6194641583  MEMB      188             0.0000000000
     23348       188  PMPE      C22           -50.0952624167       40.9395066916       13.2789187472  MEMB      188             0.0000000000
     23349       188  PMPE      H2R           -49.0591521432       40.5712320896       13.1202671004  MEMB      188             0.0000000000
     23350       188  PMPE      H2S           -50.1368044827       42.0097534258       13.5741601260  MEMB      188             0.0000000000
     23351       188  PMPE      C3            -54.0722413547       41.1070888639       15.4728542631  MEMB      188             0.0000000000
     23352       188  PMPE      HX            -53.8726129787       42.1627701862       15.7557083681  MEMB      188             0.0000000000
     23353       188  PMPE      HY            -54.9682470515       40.7526962389       16.0259371220  MEMB      188             0.0000000000
     23354       188  PMPE      O31           -54.2113659047       41.1724011549       14.0176929894  MEMB      188             0.0000000000
     23355       188  PMPE      C31           -54.8748700478       40.2436104493       13.4115051472  MEMB      188             0.0000000000
     23356       188  PMPE      O32           -55.4807515850       39.3149770841       13.9064908018  MEMB      188             0.0000000000
     23357       188  PMPE      C32           -54.8020300345       40.5283018317       11.9584991306  MEMB      188             0.0000000000
     23358       188  PMPE      H2X           -53.9010269947       40.1878221335       11.4047952751  MEMB      188             0.0000000000
     23359       188  PMPE      H2Y           -55.0365852353       41.6016687506       11.7936095538  MEMB      188             0.0000000000
     23360       188  PMPE      C23           -50.8971380527       40.8568038808       11.9724691359  MEMB      188             0.0000000000
     23361       188  PMPE      H3R           -51.8555602434       41.4131067586       12.0516842058  MEMB      188             0.0000000000
     23362       188  PMPE      H3S           -51.1528850379       39.8318936495       11.6282693133  MEMB      188             0.0000000000
     23363       188  PMPE      C24           -50.0892633614       41.5345109004       10.8148007858  MEMB      188             0.0000000000
     23364       188  PMPE      H4R           -49.1161226261       41.0021543956       10.7522350906  MEMB      188             0.0000000000
     23365       188  PMPE      H4S           -49.8565910204       42.5606323174       11.1715346758  MEMB      188             0.0000000000
     23366       188  PMPE      C25           -50.7755505904       41.4453409822        9.4312419221  MEMB      188             0.0000000000
     23367       188  PMPE      H5R           -51.7900518975       41.7348383502        9.7795229486  MEMB      188             0.0000000000
     23368       188  PMPE      H5S           -50.8361142901       40.3828908091        9.1120982874  MEMB      188             0.0000000000
     23369       188  PMPE      C26           -50.1534890662       42.5067732913        8.5059808073  MEMB      188             0.0000000000
     23370       188  PMPE      H6R           -50.0380033405       43.4674631104        9.0519286285  MEMB      188             0.0000000000
     23371       188  PMPE      H6S           -50.9615407108       42.7757325686        7.7925147843  MEMB      188             0.0000000000
     23372       188  PMPE      C27           -48.8968063967       42.0097499717        7.7671847938  MEMB      188             0.0000000000
     23373       188  PMPE      H7R           -48.2374213420       41.3648648153        8.3865842356  MEMB      188             0.0000000000
     23374       188  PMPE      H7S           -48.4140759307       42.9307995679        7.3760847171  MEMB      188             0.0000000000
     23375       188  PMPE      C28           -49.2852602384       41.0091787529        6.6155783331  MEMB      188             0.0000000000
     23376       188  PMPE      H8R           -49.9112152240       41.5947469227        5.9087472588  MEMB      188             0.0000000000
     23377       188  PMPE      H8S           -49.8325892544       40.0878042703        6.9085316203  MEMB      188             0.0000000000
     23378       188  PMPE      C29           -48.0437153570       40.4873512361        5.9302061158  MEMB      188             0.0000000000
     23379       188  PMPE      H9R           -47.2999508417       39.9452664029        6.5525239646  MEMB      188             0.0000000000
     23380       188  PMPE      C217          -47.3967559606       41.6391989072        5.1351615531  MEMB      188             0.0000000000
     23381       188  PMPE      H17R          -46.3245055262       41.7348565937        5.2535573022  MEMB      188             0.0000000000
     23382       188  PMPE      H17S          -48.0402660359       42.4239517028        4.7570785121  MEMB      188             0.0000000000
     23383       188  PMPE      C210          -47.8600378945       40.3310603261        4.4407202271  MEMB      188             0.0000000000
     23384       188  PMPE      H10R          -47.0501138495       39.6927585947        4.0273022163  MEMB      188             0.0000000000
     23385       188  PMPE      C211          -49.0548029405       40.3789229760        3.5702543439  MEMB      188             0.0000000000
     23386       188  PMPE      H11R          -49.3857788579       41.4327469227        3.4509613070  MEMB      188             0.0000000000
     23387       188  PMPE      H11S          -49.9005231458       39.9242418219        4.1291309234  MEMB      188             0.0000000000
     23388       188  PMPE      C212          -48.6927315255       39.6843696886        2.2624380653  MEMB      188             0.0000000000
     23389       188  PMPE      H12R          -48.6917980908       38.5814376847        2.3960831944  MEMB      188             0.0000000000
     23390       188  PMPE      H12S          -47.7155633982       39.9366719091        1.7978865740  MEMB      188             0.0000000000
     23391       188  PMPE      C213          -49.6640286038       40.0130074930        1.1142241017  MEMB      188             0.0000000000
     23392       188  PMPE      H13R          -49.8044099509       41.1150564632        1.1243062947  MEMB      188             0.0000000000
     23393       188  PMPE      H13S          -50.6184003280       39.4852196160        1.3262079103  MEMB      188             0.0000000000
     23394       188  PMPE      C214          -49.1165278523       39.7287583915       -0.2738488007  MEMB      188             0.0000000000
     23395       188  PMPE      H14R          -49.9045376266       39.5803642269       -1.0428366313  MEMB      188             0.0000000000
     23396       188  PMPE      H14S          -48.3456491169       38.9354789511       -0.1700483750  MEMB      188             0.0000000000
     23397       188  PMPE      C215          -48.4792196859       40.9408641537       -0.9638126634  MEMB      188             0.0000000000
     23398       188  PMPE      H15R          -47.8352775871       40.5701789476       -1.7897980078  MEMB      188             0.0000000000
     23399       188  PMPE      H15S          -47.8139618799       41.3619577122       -0.1799543523  MEMB      188             0.0000000000
     23400       188  PMPE      C216          -49.4687483161       41.9974041639       -1.4684180630  MEMB      188             0.0000000000
     23401       188  PMPE      H16R          -48.9808758274       42.7136754926       -2.1635862315  MEMB      188             0.0000000000
     23402       188  PMPE      H16S          -50.1800924542       41.5902217071       -2.2184273649  MEMB      188             0.0000000000
     23403       188  PMPE      H16T          -50.0045682892       42.5163738847       -0.6450793110  MEMB      188             0.0000000000
     23404       188  PMPE      C33           -55.8939566919       39.6222450004       11.2307021749  MEMB      188             0.0000000000
     23405       188  PMPE      H3X           -56.8837501824       39.8586414144       11.6765118599  MEMB      188             0.0000000000
     23406       188  PMPE      H3Y           -55.7101484421       38.5460712994       11.4365801147  MEMB      188             0.0000000000
     23407       188  PMPE      C34           -55.9176506389       39.6100769383        9.7033763827  MEMB      188             0.0000000000
     23408       188  PMPE      H4X           -56.3966651249       38.6313269927        9.4867775186  MEMB      188             0.0000000000
     23409       188  PMPE      H4Y           -54.8488013413       39.5327949244        9.4102725520  MEMB      188             0.0000000000
     23410       188  PMPE      C35           -56.5329644162       40.8645713961        9.1333468671  MEMB      188             0.0000000000
     23411       188  PMPE      H5X           -56.0965895801       41.8080458282        9.5254610004  MEMB      188             0.0000000000
     23412       188  PMPE      H5Y           -57.5645608030       40.7391055079        9.5262690622  MEMB      188             0.0000000000
     23413       188  PMPE      C36           -56.5325891141       40.8728546729        7.5774353628  MEMB      188             0.0000000000
     23414       188  PMPE      H6X           -57.2399371935       41.6915092507        7.3248785231  MEMB      188             0.0000000000
     23415       188  PMPE      H6Y           -57.0856695705       40.0037040950        7.1615027157  MEMB      188             0.0000000000
     23416       188  PMPE      C37           -55.1174667172       41.1768868015        6.9498177214  MEMB      188             0.0000000000
     23417       188  PMPE      H7X           -54.4245825813       40.3387113635        7.1771821766  MEMB      188             0.0000000000
     23418       188  PMPE      H7Y           -54.6250337455       42.0614511083        7.4073946884  MEMB      188             0.0000000000
     23419       188  PMPE      C38           -55.2088524549       41.5013674017        5.5106973574  MEMB      188             0.0000000000
     23420       188  PMPE      H8X           -54.2935800316       42.0742867452        5.2492376359  MEMB      188             0.0000000000
     23421       188  PMPE      H8Y           -56.0671659086       42.1998212038        5.4117941054  MEMB      188             0.0000000000
     23422       188  PMPE      C39           -55.2843556726       40.2806216918        4.5541152748  MEMB      188             0.0000000000
     23423       188  PMPE      H9X           -55.7363612890       40.7152689000        3.6370028373  MEMB      188             0.0000000000
     23424       188  PMPE      H9Y           -56.0858057207       39.5737559805        4.8579897613  MEMB      188             0.0000000000
     23425       188  PMPE      C310          -54.0008687643       39.5222077280        4.1351588566  MEMB      188             0.0000000000
     23426       188  PMPE      H10X          -54.2077524017       38.6320118941        3.5034380041  MEMB      188             0.0000000000
     23427       188  PMPE      H10Y          -53.5367116585       39.1606785432        5.0775905852  MEMB      188             0.0000000000
     23428       188  PMPE      C311          -53.1231593753       40.2696724854        3.1296912861  MEMB      188             0.0000000000
     23429       188  PMPE      H11X          -52.2719021899       39.6243111739        2.8244194096  MEMB      188             0.0000000000
     23430       188  PMPE      H11Y          -52.5738944884       41.0197249952        3.7380092078  MEMB      188             0.0000000000
     23431       188  PMPE      C312          -53.9048425932       40.7157250298        1.9211269268  MEMB      188             0.0000000000
     23432       188  PMPE      H12X          -54.6200283745       41.5149292645        2.2111314284  MEMB      188             0.0000000000
     23433       188  PMPE      H12Y          -54.4851208977       39.8424827249        1.5536400539  MEMB      188             0.0000000000
     23434       188  PMPE      C313          -52.9974128177       41.1504421158        0.7343826785  MEMB      188             0.0000000000
     23435       188  PMPE      H13X          -52.5881240797       40.1840959568        0.3697202836  MEMB      188             0.0000000000
     23436       188  PMPE      H13Y          -52.2683310950       41.8429662961        1.2067929061  MEMB      188             0.0000000000
     23437       188  PMPE      C314          -53.7527772949       41.8874264484       -0.3902394463  MEMB      188             0.0000000000
     23438       188  PMPE      H14X          -53.0749305679       42.4757734687       -1.0449848816  MEMB      188             0.0000000000
     23439       188  PMPE      H14Y          -54.4530920322       42.5970259133        0.1000140596  MEMB      188             0.0000000000
     23440       188  PMPE      C315          -54.5643458910       41.0099851041       -1.3171040623  MEMB      188             0.0000000000
     23441       188  PMPE      H15X          -55.1928082135       41.6282756022       -1.9931763018  MEMB      188             0.0000000000
     23442       188  PMPE      H15Y          -55.2659560100       40.3785936621       -0.7310931999  MEMB      188             0.0000000000
     23443       188  PMPE      C316          -53.6768901739       40.0664837797       -2.1845988725  MEMB      188             0.0000000000
     23444       188  PMPE      H16X          -54.3938018316       39.5304949949       -2.8426833985  MEMB      188             0.0000000000
     23445       188  PMPE      H16Y          -53.1175498759       39.3701764184       -1.5238301741  MEMB      188             0.0000000000
     23446       188  PMPE      H16Z          -52.9559043693       40.7259578625       -2.7133659890  MEMB      188             0.0000000000
     23447       189  PMPE      N              38.5961844944       53.4640719691       19.7267240462  MEMB      189             0.0000000000
     23448       189  PMPE      HN1            38.5187832034       54.3129307722       20.3225829158  MEMB      189             0.0000000000
     23449       189  PMPE      HN2            39.3384625096       53.5946439365       19.0100831714  MEMB      189             0.0000000000
     23450       189  PMPE      HN3            37.6830879395       53.1905718652       19.3107283729  MEMB      189             0.0000000000
     23451       189  PMPE      C12            39.0884244094       52.2789740108       20.4909087202  MEMB      189             0.0000000000
     23452       189  PMPE      H12A           38.2219895064       51.8324540080       21.0240422667  MEMB      189             0.0000000000
     23453       189  PMPE      H12B           39.7945763089       52.6770311076       21.2506593742  MEMB      189             0.0000000000
     23454       189  PMPE      C11            39.7859411802       51.3113156654       19.5708833239  MEMB      189             0.0000000000
     23455       189  PMPE      H11A           39.3130209900       51.0354281683       18.6041602327  MEMB      189             0.0000000000
     23456       189  PMPE      H11B           39.8436488108       50.4330671612       20.2488731958  MEMB      189             0.0000000000
     23457       189  PMPE      P              42.1816962148       50.9458078422       18.4668248105  MEMB      189             0.0000000000
     23458       189  PMPE      O13            42.1782716247       49.4914665978       18.8355405685  MEMB      189             0.0000000000
     23459       189  PMPE      O14            43.4825936795       51.6133411094       18.4992177249  MEMB      189             0.0000000000
     23460       189  PMPE      O11            41.5424305691       51.0712934597       17.0827842400  MEMB      189             0.0000000000
     23461       189  PMPE      O12            41.1727346301       51.6926165455       19.3271165646  MEMB      189             0.0000000000
     23462       189  PMPE      C1             41.3836776905       52.1783800978       16.2999851659  MEMB      189             0.0000000000
     23463       189  PMPE      HA             42.3709161804       52.4190363075       15.8508018420  MEMB      189             0.0000000000
     23464       189  PMPE      HB             41.0337048143       53.0571996743       16.8826653644  MEMB      189             0.0000000000
     23465       189  PMPE      C2             40.3646216966       51.9500118715       15.1094169888  MEMB      189             0.0000000000
     23466       189  PMPE      HS             39.3726954783       51.7143766214       15.5508687429  MEMB      189             0.0000000000
     23467       189  PMPE      O21            40.9669914228       50.8901414065       14.2944454727  MEMB      189             0.0000000000
     23468       189  PMPE      C21            40.1150344225       50.2463091372       13.5357892423  MEMB      189             0.0000000000
     23469       189  PMPE      O22            38.8910916776       50.3015361707       13.6156373325  MEMB      189             0.0000000000
     23470       189  PMPE      C22            40.9321107383       49.2156336222       12.6266274594  MEMB      189             0.0000000000
     23471       189  PMPE      H2R            41.2332965799       48.3742198885       13.2866506906  MEMB      189             0.0000000000
     23472       189  PMPE      H2S            41.8771646827       49.6573745584       12.2444506737  MEMB      189             0.0000000000
     23473       189  PMPE      C3             40.1965731649       53.2716589280       14.3445094873  MEMB      189             0.0000000000
     23474       189  PMPE      HX             41.2065210384       53.4790000125       13.9305820969  MEMB      189             0.0000000000
     23475       189  PMPE      HY             40.0243126745       54.1272403168       15.0319887854  MEMB      189             0.0000000000
     23476       189  PMPE      O31            39.0984348511       53.2736606044       13.4331395030  MEMB      189             0.0000000000
     23477       189  PMPE      C31            39.4138357931       52.9964898535       12.1325555438  MEMB      189             0.0000000000
     23478       189  PMPE      O32            40.5057649328       52.7068717912       11.6908070442  MEMB      189             0.0000000000
     23479       189  PMPE      C32            38.0976151115       53.1441678908       11.2752210706  MEMB      189             0.0000000000
     23480       189  PMPE      H2X            37.6651018646       54.1594801643       11.4032623250  MEMB      189             0.0000000000
     23481       189  PMPE      H2Y            37.3806423047       52.4118854711       11.7042124614  MEMB      189             0.0000000000
     23482       189  PMPE      C23            40.0860014346       48.8298702234       11.3412183780  MEMB      189             0.0000000000
     23483       189  PMPE      H3R            39.7525950447       49.7418939566       10.8014270706  MEMB      189             0.0000000000
     23484       189  PMPE      H3S            39.2547442548       48.3503693243       11.9010496444  MEMB      189             0.0000000000
     23485       189  PMPE      C24            40.6501369859       47.7720643737       10.4360326273  MEMB      189             0.0000000000
     23486       189  PMPE      H4R            39.7706142932       47.4592914582        9.8335927643  MEMB      189             0.0000000000
     23487       189  PMPE      H4S            41.1227455425       46.8917590273       10.9218560572  MEMB      189             0.0000000000
     23488       189  PMPE      C25            41.8367731329       48.3740621615        9.6700336276  MEMB      189             0.0000000000
     23489       189  PMPE      H5R            42.6605778943       48.6984408480       10.3411859227  MEMB      189             0.0000000000
     23490       189  PMPE      H5S            41.4026103730       49.2906910568        9.2165852130  MEMB      189             0.0000000000
     23491       189  PMPE      C26            42.3018970839       47.4605375531        8.4995901944  MEMB      189             0.0000000000
     23492       189  PMPE      H6R            41.5019253391       47.4977271049        7.7295356281  MEMB      189             0.0000000000
     23493       189  PMPE      H6S            42.4579393486       46.4382485748        8.9056648037  MEMB      189             0.0000000000
     23494       189  PMPE      C27            43.6019132709       48.0021400075        7.9119969407  MEMB      189             0.0000000000
     23495       189  PMPE      H7R            44.0538678128       47.2721872698        7.2068546109  MEMB      189             0.0000000000
     23496       189  PMPE      H7S            44.2959497499       48.2906658061        8.7301577843  MEMB      189             0.0000000000
     23497       189  PMPE      C28            43.2484013356       49.3099617674        7.1374326694  MEMB      189             0.0000000000
     23498       189  PMPE      H8R            43.1130437500       50.1555697362        7.8452078037  MEMB      189             0.0000000000
     23499       189  PMPE      H8S            42.2331074828       49.2728885172        6.6878497882  MEMB      189             0.0000000000
     23500       189  PMPE      C29            44.2785482295       49.5001284053        6.0035254167  MEMB      189             0.0000000000
     23501       189  PMPE      H9R            44.0450377061       48.9300303907        5.0789811535  MEMB      189             0.0000000000
     23502       189  PMPE      C217           45.7961942912       49.7610634114        6.3544959613  MEMB      189             0.0000000000
     23503       189  PMPE      H17R           46.5040399764       49.4956675084        5.5789903918  MEMB      189             0.0000000000
     23504       189  PMPE      H17S           45.9058127303       50.0058171817        7.4037665088  MEMB      189             0.0000000000
     23505       189  PMPE      C210           44.7985639585       50.8705895702        5.7880836581  MEMB      189             0.0000000000
     23506       189  PMPE      H10R           44.9579751074       51.0739196436        4.7075443465  MEMB      189             0.0000000000
     23507       189  PMPE      C211           44.2945079272       51.9662804894        6.6717604807  MEMB      189             0.0000000000
     23508       189  PMPE      H11R           44.9780911997       52.8416814227        6.6451523360  MEMB      189             0.0000000000
     23509       189  PMPE      H11S           44.3384517741       51.6290914565        7.7294433844  MEMB      189             0.0000000000
     23510       189  PMPE      C212           42.8822017604       52.3450292997        6.3341799411  MEMB      189             0.0000000000
     23511       189  PMPE      H12R           42.5169187583       53.2144432105        6.9215547381  MEMB      189             0.0000000000
     23512       189  PMPE      H12S           42.2125859408       51.5001733558        6.6027954193  MEMB      189             0.0000000000
     23513       189  PMPE      C213           42.6542772872       52.6475894823        4.8896165807  MEMB      189             0.0000000000
     23514       189  PMPE      H13R           41.5854499100       52.9470935407        4.8424330031  MEMB      189             0.0000000000
     23515       189  PMPE      H13S           42.7372830044       51.7325831219        4.2649603391  MEMB      189             0.0000000000
     23516       189  PMPE      C214           43.4269690652       53.8057810365        4.2855647054  MEMB      189             0.0000000000
     23517       189  PMPE      H14R           44.4946058847       53.5115870676        4.1965557770  MEMB      189             0.0000000000
     23518       189  PMPE      H14S           43.2713860225       54.6686405491        4.9679054309  MEMB      189             0.0000000000
     23519       189  PMPE      C215           43.0421705390       54.0629897377        2.7922344298  MEMB      189             0.0000000000
     23520       189  PMPE      H15R           43.3264963663       53.1449836337        2.2347903892  MEMB      189             0.0000000000
     23521       189  PMPE      H15S           43.6605378188       54.8550209689        2.3182834546  MEMB      189             0.0000000000
     23522       189  PMPE      C216           41.5172706381       54.2131248250        2.4929551982  MEMB      189             0.0000000000
     23523       189  PMPE      H16R           40.9575454772       54.8754373948        3.1874838241  MEMB      189             0.0000000000
     23524       189  PMPE      H16S           41.5295100391       54.4819220790        1.4150304799  MEMB      189             0.0000000000
     23525       189  PMPE      H16T           41.0981830734       53.1906703854        2.6081660071  MEMB      189             0.0000000000
     23526       189  PMPE      C33            38.2715297129       52.8891859541        9.7965117516  MEMB      189             0.0000000000
     23527       189  PMPE      H3X            37.2423411831       52.8800484301        9.3781717535  MEMB      189             0.0000000000
     23528       189  PMPE      H3Y            38.7753231636       51.9198766731        9.5941439423  MEMB      189             0.0000000000
     23529       189  PMPE      C34            38.9912101986       54.0531839069        9.0813423726  MEMB      189             0.0000000000
     23530       189  PMPE      H4X            40.0355979238       54.1634735207        9.4438492725  MEMB      189             0.0000000000
     23531       189  PMPE      H4Y            38.3500667955       54.9457305227        9.2444880935  MEMB      189             0.0000000000
     23532       189  PMPE      C35            39.2381889004       53.9428441931        7.5697653985  MEMB      189             0.0000000000
     23533       189  PMPE      H5X            39.8894477345       53.0921875863        7.2755444471  MEMB      189             0.0000000000
     23534       189  PMPE      H5Y            39.6508382035       54.8873434260        7.1550816530  MEMB      189             0.0000000000
     23535       189  PMPE      C36            37.9475025155       53.7195151061        6.7911672089  MEMB      189             0.0000000000
     23536       189  PMPE      H6X            37.3640163068       54.6609867138        6.7045906112  MEMB      189             0.0000000000
     23537       189  PMPE      H6Y            37.2839283399       52.9362918025        7.2160813691  MEMB      189             0.0000000000
     23538       189  PMPE      C37            38.1325341962       53.0551463272        5.4321261811  MEMB      189             0.0000000000
     23539       189  PMPE      H7X            38.7904468395       53.5848289715        4.7103863873  MEMB      189             0.0000000000
     23540       189  PMPE      H7Y            37.0901371021       53.1095014459        5.0516331358  MEMB      189             0.0000000000
     23541       189  PMPE      C38            38.5580525694       51.6657451685        5.3094685309  MEMB      189             0.0000000000
     23542       189  PMPE      H8X            37.9601037983       51.0802675961        6.0402177718  MEMB      189             0.0000000000
     23543       189  PMPE      H8Y            39.6483645940       51.7688650487        5.4963035486  MEMB      189             0.0000000000
     23544       189  PMPE      C39            38.3280413049       51.1544248920        3.8842858873  MEMB      189             0.0000000000
     23545       189  PMPE      H9X            38.7908686624       51.7867062275        3.0966743098  MEMB      189             0.0000000000
     23546       189  PMPE      H9Y            37.2239472607       51.1378985444        3.7617117567  MEMB      189             0.0000000000
     23547       189  PMPE      C310           38.7124388375       49.7330092623        3.4542100363  MEMB      189             0.0000000000
     23548       189  PMPE      H10X           38.1469367581       49.3156134027        2.5937988759  MEMB      189             0.0000000000
     23549       189  PMPE      H10Y           38.4301639548       49.0829148502        4.3097920376  MEMB      189             0.0000000000
     23550       189  PMPE      C311           40.2496973998       49.6477408555        3.0829408875  MEMB      189             0.0000000000
     23551       189  PMPE      H11X           40.7429365562       48.6793699847        3.3137956374  MEMB      189             0.0000000000
     23552       189  PMPE      H11Y           40.7530843030       50.4231342304        3.6991294772  MEMB      189             0.0000000000
     23553       189  PMPE      C312           40.5287529273       50.2079076815        1.6633981564  MEMB      189             0.0000000000
     23554       189  PMPE      H12X           40.1020231693       51.2264018266        1.5413646528  MEMB      189             0.0000000000
     23555       189  PMPE      H12Y           40.0209606681       49.4851346046        0.9895533171  MEMB      189             0.0000000000
     23556       189  PMPE      C313           42.0156256872       50.2484569827        1.3687886547  MEMB      189             0.0000000000
     23557       189  PMPE      H13X           42.4466695230       49.2255482516        1.4154786296  MEMB      189             0.0000000000
     23558       189  PMPE      H13Y           42.5941423672       50.9556500024        2.0008642106  MEMB      189             0.0000000000
     23559       189  PMPE      C314           42.1695366282       50.8566355552       -0.0164055574  MEMB      189             0.0000000000
     23560       189  PMPE      H14X           41.7402181221       51.8774870160        0.0723002737  MEMB      189             0.0000000000
     23561       189  PMPE      H14Y           41.6597293305       50.3673397804       -0.8737315582  MEMB      189             0.0000000000
     23562       189  PMPE      C315           43.6314966852       51.0065130692       -0.2938611628  MEMB      189             0.0000000000
     23563       189  PMPE      H15X           44.0068195034       51.6512565794        0.5294003957  MEMB      189             0.0000000000
     23564       189  PMPE      H15Y           43.7852417790       51.4882265542       -1.2831206177  MEMB      189             0.0000000000
     23565       189  PMPE      C316           44.4601910329       49.7474123461       -0.2331151950  MEMB      189             0.0000000000
     23566       189  PMPE      H16X           45.4955595872       49.9442045316       -0.5846915651  MEMB      189             0.0000000000
     23567       189  PMPE      H16Y           44.1372355763       48.8973782284       -0.8714440804  MEMB      189             0.0000000000
     23568       189  PMPE      H16Z           44.5402829425       49.4050925565        0.8207933556  MEMB      189             0.0000000000
     23569       190  PMPE      N              48.2569374707      -45.6744727673       21.7382353117  MEMB      190             0.0000000000
     23570       190  PMPE      HN1            47.3108623708      -46.0289043115       21.4914152909  MEMB      190             0.0000000000
     23571       190  PMPE      HN2            48.3963653513      -45.5872353863       22.7651480108  MEMB      190             0.0000000000
     23572       190  PMPE      HN3            48.5560568908      -44.7732290504       21.3141042184  MEMB      190             0.0000000000
     23573       190  PMPE      C12            49.2267785854      -46.7576829060       21.2350427444  MEMB      190             0.0000000000
     23574       190  PMPE      H12A           48.5857634583      -47.6650661401       21.2263048123  MEMB      190             0.0000000000
     23575       190  PMPE      H12B           50.0604875356      -46.7522564156       21.9693592363  MEMB      190             0.0000000000
     23576       190  PMPE      C11            49.8037028882      -46.5961094039       19.8736351225  MEMB      190             0.0000000000
     23577       190  PMPE      H11A           50.4376829085      -47.4999016235       19.7489353496  MEMB      190             0.0000000000
     23578       190  PMPE      H11B           50.4418586098      -45.6869095806       19.8528033884  MEMB      190             0.0000000000
     23579       190  PMPE      P              48.6171605577      -45.5886415465       17.7944699465  MEMB      190             0.0000000000
     23580       190  PMPE      O13            48.9981695262      -44.2282041181       18.3171483191  MEMB      190             0.0000000000
     23581       190  PMPE      O14            47.2745189501      -45.8630352125       17.2364713167  MEMB      190             0.0000000000
     23582       190  PMPE      O11            49.7286425559      -46.1055498887       16.8498495832  MEMB      190             0.0000000000
     23583       190  PMPE      O12            48.7480054691      -46.6526697567       18.9551476536  MEMB      190             0.0000000000
     23584       190  PMPE      C1             49.9363860156      -47.4287734139       16.3869452379  MEMB      190             0.0000000000
     23585       190  PMPE      HA             48.9984355910      -47.7346763762       15.8760702078  MEMB      190             0.0000000000
     23586       190  PMPE      HB             50.0337430651      -48.1546467984       17.2223796915  MEMB      190             0.0000000000
     23587       190  PMPE      C2             51.2181255105      -47.4793274394       15.5439518792  MEMB      190             0.0000000000
     23588       190  PMPE      HS             52.1016354426      -47.4999044080       16.2172333979  MEMB      190             0.0000000000
     23589       190  PMPE      O21            51.2693291715      -46.4034634603       14.6100258184  MEMB      190             0.0000000000
     23590       190  PMPE      C21            51.9728793212      -45.3313927672       14.9474140419  MEMB      190             0.0000000000
     23591       190  PMPE      O22            52.5576760022      -45.1160256247       16.0601387440  MEMB      190             0.0000000000
     23592       190  PMPE      C22            51.9580156400      -44.3790179413       13.7192531441  MEMB      190             0.0000000000
     23593       190  PMPE      H2R            51.9825772637      -44.9886931362       12.7908065456  MEMB      190             0.0000000000
     23594       190  PMPE      H2S            52.7681231717      -43.6194963863       13.6849865878  MEMB      190             0.0000000000
     23595       190  PMPE      C3             51.2546174538      -48.8814655991       14.8355153083  MEMB      190             0.0000000000
     23596       190  PMPE      HX             51.3000214969      -49.6997838123       15.5855917418  MEMB      190             0.0000000000
     23597       190  PMPE      HY             52.1592837254      -48.9586207157       14.1952445447  MEMB      190             0.0000000000
     23598       190  PMPE      O31            50.0102517091      -49.0951723771       14.0874925055  MEMB      190             0.0000000000
     23599       190  PMPE      C31            50.0340855503      -48.7350827723       12.7902930580  MEMB      190             0.0000000000
     23600       190  PMPE      O32            51.0358103316      -48.3332253626       12.1959405746  MEMB      190             0.0000000000
     23601       190  PMPE      C32            48.6641988707      -48.8245540441       12.1673846600  MEMB      190             0.0000000000
     23602       190  PMPE      H2X            48.2038682416      -47.8566760118       12.4600085931  MEMB      190             0.0000000000
     23603       190  PMPE      H2Y            48.0922897037      -49.6150472019       12.6987617634  MEMB      190             0.0000000000
     23604       190  PMPE      C23            50.6511438387      -43.4999480244       13.6886177648  MEMB      190             0.0000000000
     23605       190  PMPE      H3R            50.7330684587      -42.6342888666       12.9970662183  MEMB      190             0.0000000000
     23606       190  PMPE      H3S            50.4716769701      -42.9671186328       14.6468481818  MEMB      190             0.0000000000
     23607       190  PMPE      C24            49.4474992294      -44.3614714239       13.4614135642  MEMB      190             0.0000000000
     23608       190  PMPE      H4R            49.0117567405      -44.6342435894       14.4463222215  MEMB      190             0.0000000000
     23609       190  PMPE      H4S            49.8301354244      -45.3104534612       13.0285814639  MEMB      190             0.0000000000
     23610       190  PMPE      C25            48.3123992070      -43.6457430165       12.6831176168  MEMB      190             0.0000000000
     23611       190  PMPE      H5R            47.9783329828      -42.7283014386       13.2132319681  MEMB      190             0.0000000000
     23612       190  PMPE      H5S            47.4598016153      -44.3494834305       12.7933339107  MEMB      190             0.0000000000
     23613       190  PMPE      C26            48.4924673680      -43.3538651504       11.1693834620  MEMB      190             0.0000000000
     23614       190  PMPE      H6R            49.1417438002      -42.4545528485       11.1061490948  MEMB      190             0.0000000000
     23615       190  PMPE      H6S            47.5868271089      -43.0348522176       10.6104849471  MEMB      190             0.0000000000
     23616       190  PMPE      C27            49.0463809690      -44.4320905973       10.3208280780  MEMB      190             0.0000000000
     23617       190  PMPE      H7R            49.9389142975      -44.8612356538       10.8243557100  MEMB      190             0.0000000000
     23618       190  PMPE      H7S            49.4349553750      -43.9991422850        9.3743149289  MEMB      190             0.0000000000
     23619       190  PMPE      C28            48.2585298370      -45.6790077664        9.9969131748  MEMB      190             0.0000000000
     23620       190  PMPE      H8R            48.0970471444      -46.3092368775       10.8974999110  MEMB      190             0.0000000000
     23621       190  PMPE      H8S            48.7628821976      -46.3216738830        9.2439659888  MEMB      190             0.0000000000
     23622       190  PMPE      C29            46.8839387680      -45.2684876393        9.4842164443  MEMB      190             0.0000000000
     23623       190  PMPE      H9R            46.2427538170      -44.7222019810       10.2086304643  MEMB      190             0.0000000000
     23624       190  PMPE      C217           46.0511058192      -46.0930529817        8.5632588658  MEMB      190             0.0000000000
     23625       190  PMPE      H17R           45.0092943367      -46.0791051511        8.8587632490  MEMB      190             0.0000000000
     23626       190  PMPE      H17S           46.4024750700      -46.9522318141        8.0053689628  MEMB      190             0.0000000000
     23627       190  PMPE      C210           46.6219253477      -44.7505157764        8.0716170462  MEMB      190             0.0000000000
     23628       190  PMPE      H10R           45.8421888167      -43.9738033986        7.9197950137  MEMB      190             0.0000000000
     23629       190  PMPE      C211           47.7932423543      -44.8147754344        6.9854308935  MEMB      190             0.0000000000
     23630       190  PMPE      H11R           48.2206987713      -45.8250734918        7.1612145378  MEMB      190             0.0000000000
     23631       190  PMPE      H11S           48.5099454493      -43.9987962812        7.2196010465  MEMB      190             0.0000000000
     23632       190  PMPE      C212           47.2306930532      -44.5291298231        5.6460842892  MEMB      190             0.0000000000
     23633       190  PMPE      H12R           48.0783276256      -44.3661251328        4.9466089101  MEMB      190             0.0000000000
     23634       190  PMPE      H12S           46.6155718259      -43.6069231961        5.7201226619  MEMB      190             0.0000000000
     23635       190  PMPE      C213           46.3436145483      -45.6595349184        5.0320548473  MEMB      190             0.0000000000
     23636       190  PMPE      H13R           45.4168522827      -45.7697900568        5.6347791129  MEMB      190             0.0000000000
     23637       190  PMPE      H13S           46.9863187872      -46.5623446739        5.1107114715  MEMB      190             0.0000000000
     23638       190  PMPE      C214           45.9798559321      -45.3966591848        3.5713567074  MEMB      190             0.0000000000
     23639       190  PMPE      H14R           46.9124096868      -45.0197175972        3.0995741516  MEMB      190             0.0000000000
     23640       190  PMPE      H14S           45.2757028897      -44.5385889931        3.6183141467  MEMB      190             0.0000000000
     23641       190  PMPE      C215           45.4214078149      -46.6104291834        2.7963052591  MEMB      190             0.0000000000
     23642       190  PMPE      H15R           45.8666893458      -47.5512462721        3.1847751430  MEMB      190             0.0000000000
     23643       190  PMPE      H15S           45.7638285566      -46.5337580487        1.7421752283  MEMB      190             0.0000000000
     23644       190  PMPE      C216           43.9403234209      -46.8102914904        2.9104614815  MEMB      190             0.0000000000
     23645       190  PMPE      H16R           43.3839544060      -45.9739399620        2.4358134876  MEMB      190             0.0000000000
     23646       190  PMPE      H16S           43.4923670664      -47.8217291141        2.8072617534  MEMB      190             0.0000000000
     23647       190  PMPE      H16T           43.8046286091      -46.6900637790        4.0065699919  MEMB      190             0.0000000000
     23648       190  PMPE      C33            48.7581478501      -49.2568036356       10.7535262871  MEMB      190             0.0000000000
     23649       190  PMPE      H3X            49.3933969198      -50.1644478390       10.6700918986  MEMB      190             0.0000000000
     23650       190  PMPE      H3Y            49.3297892767      -48.4696952085       10.2168633603  MEMB      190             0.0000000000
     23651       190  PMPE      C34            47.4080044882      -49.3775256238       10.1106163870  MEMB      190             0.0000000000
     23652       190  PMPE      H4X            46.8889444450      -48.3952495414       10.1050026241  MEMB      190             0.0000000000
     23653       190  PMPE      H4Y            46.8060028003      -50.1157124103       10.6824516181  MEMB      190             0.0000000000
     23654       190  PMPE      C35            47.4265384857      -50.0137737360        8.6838417891  MEMB      190             0.0000000000
     23655       190  PMPE      H5X            46.3778656913      -50.0437442529        8.3181803134  MEMB      190             0.0000000000
     23656       190  PMPE      H5Y            47.7760839909      -51.0544749046        8.8543668159  MEMB      190             0.0000000000
     23657       190  PMPE      C36            48.4832361488      -49.3061317344        7.6825656850  MEMB      190             0.0000000000
     23658       190  PMPE      H6X            49.2733844109      -48.7422790867        8.2229887346  MEMB      190             0.0000000000
     23659       190  PMPE      H6Y            47.8734434534      -48.5127632550        7.1998226460  MEMB      190             0.0000000000
     23660       190  PMPE      C37            48.9596775658      -50.3396419264        6.6651406956  MEMB      190             0.0000000000
     23661       190  PMPE      H7X            48.0534128484      -50.9394693880        6.4344622824  MEMB      190             0.0000000000
     23662       190  PMPE      H7Y            49.6564577354      -51.0181727411        7.2021825205  MEMB      190             0.0000000000
     23663       190  PMPE      C38            49.5303159230      -49.7474666355        5.3957728641  MEMB      190             0.0000000000
     23664       190  PMPE      H8X            50.1001217724      -50.5220248515        4.8392644689  MEMB      190             0.0000000000
     23665       190  PMPE      H8Y            50.1558610361      -48.8929221830        5.7315827173  MEMB      190             0.0000000000
     23666       190  PMPE      C39            48.4387490997      -49.2466470944        4.4215520848  MEMB      190             0.0000000000
     23667       190  PMPE      H9X            47.7084227468      -48.5996598163        4.9529197649  MEMB      190             0.0000000000
     23668       190  PMPE      H9Y            47.8898877597      -50.1306479669        4.0321752519  MEMB      190             0.0000000000
     23669       190  PMPE      C310           48.8478913720      -48.4304592451        3.1765025104  MEMB      190             0.0000000000
     23670       190  PMPE      H10X           47.9412209129      -48.1944675925        2.5793607919  MEMB      190             0.0000000000
     23671       190  PMPE      H10Y           49.5314685804      -48.9829870864        2.4969762184  MEMB      190             0.0000000000
     23672       190  PMPE      C311           49.4925270399      -47.0701423616        3.4412250434  MEMB      190             0.0000000000
     23673       190  PMPE      H11X           50.1640479531      -47.2028064943        4.3163144006  MEMB      190             0.0000000000
     23674       190  PMPE      H11Y           48.7965632446      -46.2160602043        3.5843997844  MEMB      190             0.0000000000
     23675       190  PMPE      C312           50.3996171841      -46.4930901085        2.2986759947  MEMB      190             0.0000000000
     23676       190  PMPE      H12X           49.6711032390      -46.4811987601        1.4599583908  MEMB      190             0.0000000000
     23677       190  PMPE      H12Y           51.1486722437      -47.2907475509        2.1063719032  MEMB      190             0.0000000000
     23678       190  PMPE      C313           50.8461358568      -45.1184616879        2.5990223892  MEMB      190             0.0000000000
     23679       190  PMPE      H13X           51.2329656289      -45.2754654189        3.6286020886  MEMB      190             0.0000000000
     23680       190  PMPE      H13Y           50.0899199198      -44.3488141172        2.8637889457  MEMB      190             0.0000000000
     23681       190  PMPE      C314           51.8944345534      -44.5903482946        1.7257016907  MEMB      190             0.0000000000
     23682       190  PMPE      H14X           51.3718398551      -44.3593148610        0.7728957944  MEMB      190             0.0000000000
     23683       190  PMPE      H14Y           52.5924229321      -45.4030590361        1.4313643758  MEMB      190             0.0000000000
     23684       190  PMPE      C315           52.5073600547      -43.3002436736        2.2521922950  MEMB      190             0.0000000000
     23685       190  PMPE      H15X           52.9802335767      -43.3897687848        3.2535401623  MEMB      190             0.0000000000
     23686       190  PMPE      H15Y           51.7096468452      -42.5269564516        2.2533072126  MEMB      190             0.0000000000
     23687       190  PMPE      C316           53.5372885928      -42.8146710196        1.2836408403  MEMB      190             0.0000000000
     23688       190  PMPE      H16X           54.4020366083      -43.5120826640        1.2958431148  MEMB      190             0.0000000000
     23689       190  PMPE      H16Y           53.9225544396      -41.8503018531        1.6784621503  MEMB      190             0.0000000000
     23690       190  PMPE      H16Z           53.2515935365      -42.6781227760        0.2187224634  MEMB      190             0.0000000000
     23691       191  PMPE      N             -42.8314415847      -51.6107261766       21.9139252818  MEMB      191             0.0000000000
     23692       191  PMPE      HN1           -43.2029910934      -51.0109180936       22.6779810274  MEMB      191             0.0000000000
     23693       191  PMPE      HN2           -43.4734970283      -52.3894746522       21.6630955419  MEMB      191             0.0000000000
     23694       191  PMPE      HN3           -41.9410215381      -52.0038927967       22.2802204356  MEMB      191             0.0000000000
     23695       191  PMPE      C12           -42.4993957499      -50.7574113519       20.7429759264  MEMB      191             0.0000000000
     23696       191  PMPE      H12A          -41.4297320030      -50.5377659682       20.5382903495  MEMB      191             0.0000000000
     23697       191  PMPE      H12B          -43.0318383292      -49.7949453435       20.8994533531  MEMB      191             0.0000000000
     23698       191  PMPE      C11           -42.9320355605      -51.4009863668       19.3524558150  MEMB      191             0.0000000000
     23699       191  PMPE      H11A          -43.1269118040      -50.5990990773       18.6086002247  MEMB      191             0.0000000000
     23700       191  PMPE      H11B          -43.9789136885      -51.7550282040       19.4665677515  MEMB      191             0.0000000000
     23701       191  PMPE      P             -42.1845758602      -53.4661841274       17.9371341338  MEMB      191             0.0000000000
     23702       191  PMPE      O13           -41.3089006470      -54.5771438116       18.2719629975  MEMB      191             0.0000000000
     23703       191  PMPE      O14           -41.9921787283      -52.8487809465       16.6156664843  MEMB      191             0.0000000000
     23704       191  PMPE      O11           -43.7241291909      -53.8921533318       18.1310685721  MEMB      191             0.0000000000
     23705       191  PMPE      O12           -41.9722242799      -52.3751098984       19.0348107877  MEMB      191             0.0000000000
     23706       191  PMPE      C1            -44.2094547020      -55.1694596009       18.4554347811  MEMB      191             0.0000000000
     23707       191  PMPE      HA            -44.6133484268      -55.3344115866       19.4771890296  MEMB      191             0.0000000000
     23708       191  PMPE      HB            -43.4005194902      -55.8509891995       18.1156375084  MEMB      191             0.0000000000
     23709       191  PMPE      C2            -45.3117133615      -55.5527112825       17.4515496734  MEMB      191             0.0000000000
     23710       191  PMPE      HS            -45.7310817643      -56.5452618484       17.7222789582  MEMB      191             0.0000000000
     23711       191  PMPE      O21           -44.8134820566      -55.3920632366       16.0915788506  MEMB      191             0.0000000000
     23712       191  PMPE      C21           -44.1016067122      -56.3999090019       15.5928316844  MEMB      191             0.0000000000
     23713       191  PMPE      O22           -43.9801845437      -57.5042679143       16.1095781220  MEMB      191             0.0000000000
     23714       191  PMPE      C22           -43.3204282651      -55.8125264195       14.3620563149  MEMB      191             0.0000000000
     23715       191  PMPE      H2R           -42.3713152975      -55.4529843226       14.8139800083  MEMB      191             0.0000000000
     23716       191  PMPE      H2S           -43.8386880174      -54.9229023825       13.9445668482  MEMB      191             0.0000000000
     23717       191  PMPE      C3            -46.5126306905      -54.6695395905       17.6056339894  MEMB      191             0.0000000000
     23718       191  PMPE      HX            -46.8908942169      -54.7423612041       18.6477159059  MEMB      191             0.0000000000
     23719       191  PMPE      HY            -47.2576007785      -55.1627508021       16.9452679440  MEMB      191             0.0000000000
     23720       191  PMPE      O31           -46.2733277282      -53.3317917807       17.2596568877  MEMB      191             0.0000000000
     23721       191  PMPE      C31           -46.6112866976      -52.8438150205       16.0084986110  MEMB      191             0.0000000000
     23722       191  PMPE      O32           -47.4257840321      -53.4039150841       15.3009588265  MEMB      191             0.0000000000
     23723       191  PMPE      C32           -46.0503059826      -51.4727555187       15.7386307407  MEMB      191             0.0000000000
     23724       191  PMPE      H2X           -44.9602247089      -51.4236795155       15.9475216866  MEMB      191             0.0000000000
     23725       191  PMPE      H2Y           -46.4331472069      -50.7533562732       16.4937587844  MEMB      191             0.0000000000
     23726       191  PMPE      C23           -43.1362831229      -56.8000258248       13.2180827387  MEMB      191             0.0000000000
     23727       191  PMPE      H3R           -44.0046847470      -56.7097891627       12.5310187867  MEMB      191             0.0000000000
     23728       191  PMPE      H3S           -42.9089434952      -57.7974718159       13.6513707384  MEMB      191             0.0000000000
     23729       191  PMPE      C24           -41.8417537191      -56.4010794842       12.4559383353  MEMB      191             0.0000000000
     23730       191  PMPE      H4R           -40.8613301777      -56.5311641716       12.9620690230  MEMB      191             0.0000000000
     23731       191  PMPE      H4S           -42.0331548353      -55.3117210776       12.3511295512  MEMB      191             0.0000000000
     23732       191  PMPE      C25           -41.7097190014      -57.1234504422       11.1408144182  MEMB      191             0.0000000000
     23733       191  PMPE      H5R           -41.9494072016      -58.1995925156       11.2778854886  MEMB      191             0.0000000000
     23734       191  PMPE      H5S           -40.6853236281      -56.9924292726       10.7312180296  MEMB      191             0.0000000000
     23735       191  PMPE      C26           -42.7947413841      -56.5771118640       10.1002856132  MEMB      191             0.0000000000
     23736       191  PMPE      H6R           -42.8818601746      -55.4695581523       10.1078016688  MEMB      191             0.0000000000
     23737       191  PMPE      H6S           -43.8272926975      -56.8654772135       10.3918404133  MEMB      191             0.0000000000
     23738       191  PMPE      C27           -42.4549687794      -57.1095151819        8.6978110709  MEMB      191             0.0000000000
     23739       191  PMPE      H7R           -43.3281808071      -57.2221617113        8.0202182456  MEMB      191             0.0000000000
     23740       191  PMPE      H7S           -42.0192852236      -58.1135694699        8.8885353334  MEMB      191             0.0000000000
     23741       191  PMPE      C28           -41.4616340594      -56.2242588138        7.9200721056  MEMB      191             0.0000000000
     23742       191  PMPE      H8R           -40.5094097552      -56.4800155579        8.4321055906  MEMB      191             0.0000000000
     23743       191  PMPE      H8S           -41.6264945017      -55.1463688135        8.1328988968  MEMB      191             0.0000000000
     23744       191  PMPE      C29           -41.4986897411      -56.4543870044        6.3636865606  MEMB      191             0.0000000000
     23745       191  PMPE      H9R           -42.4911726011      -56.6630985326        5.9101019878  MEMB      191             0.0000000000
     23746       191  PMPE      C217          -40.4869498816      -57.5624314590        5.9404294274  MEMB      191             0.0000000000
     23747       191  PMPE      H17R          -40.9382149532      -58.3051924585        5.2942442415  MEMB      191             0.0000000000
     23748       191  PMPE      H17S          -39.7312261887      -57.8733472108        6.6511344792  MEMB      191             0.0000000000
     23749       191  PMPE      C210          -40.2917718589      -56.0537253987        5.5819255169  MEMB      191             0.0000000000
     23750       191  PMPE      H10R          -40.6027927837      -55.7312229850        4.5652745683  MEMB      191             0.0000000000
     23751       191  PMPE      C211          -39.3240251023      -55.1528372117        6.2962554310  MEMB      191             0.0000000000
     23752       191  PMPE      H11R          -38.9848424191      -55.7475725097        7.1712216564  MEMB      191             0.0000000000
     23753       191  PMPE      H11S          -39.8053085358      -54.2013606991        6.6083122105  MEMB      191             0.0000000000
     23754       191  PMPE      C212          -38.0905517730      -54.7555545756        5.4716789499  MEMB      191             0.0000000000
     23755       191  PMPE      H12R          -37.5684948586      -55.6382685476        5.0443696336  MEMB      191             0.0000000000
     23756       191  PMPE      H12S          -37.4279278769      -54.2529431761        6.2083150233  MEMB      191             0.0000000000
     23757       191  PMPE      C213          -38.4019905544      -53.9728663149        4.2546739348  MEMB      191             0.0000000000
     23758       191  PMPE      H13R          -38.8353009365      -53.0457956410        4.6872280958  MEMB      191             0.0000000000
     23759       191  PMPE      H13S          -39.2173906040      -54.4895537388        3.7046947182  MEMB      191             0.0000000000
     23760       191  PMPE      C214          -37.2469297611      -53.5633676468        3.3267310334  MEMB      191             0.0000000000
     23761       191  PMPE      H14R          -36.9589285897      -54.5968810681        3.0382413877  MEMB      191             0.0000000000
     23762       191  PMPE      H14S          -36.4150605168      -53.0803454626        3.8826128709  MEMB      191             0.0000000000
     23763       191  PMPE      C215          -37.6689064520      -52.8473512063        2.0007376570  MEMB      191             0.0000000000
     23764       191  PMPE      H15R          -36.7049281313      -52.6414322811        1.4882287362  MEMB      191             0.0000000000
     23765       191  PMPE      H15S          -38.1874074725      -51.8701383153        2.1033668079  MEMB      191             0.0000000000
     23766       191  PMPE      C216          -38.5370537122      -53.7978091502        1.1911802308  MEMB      191             0.0000000000
     23767       191  PMPE      H16R          -38.0652083626      -54.8027975600        1.2321825301  MEMB      191             0.0000000000
     23768       191  PMPE      H16S          -39.5790348510      -53.9226976194        1.5558703077  MEMB      191             0.0000000000
     23769       191  PMPE      H16T          -38.5435085410      -53.6214553723        0.0942845532  MEMB      191             0.0000000000
     23770       191  PMPE      C33           -46.2973509486      -51.1453818105       14.2689397282  MEMB      191             0.0000000000
     23771       191  PMPE      H3X           -46.1054845163      -50.0600667160       14.1289421212  MEMB      191             0.0000000000
     23772       191  PMPE      H3Y           -47.2991437807      -51.3619755519       13.8401978233  MEMB      191             0.0000000000
     23773       191  PMPE      C34           -45.3006962999      -51.7900131990       13.3014544010  MEMB      191             0.0000000000
     23774       191  PMPE      H4X           -45.5829007377      -52.8423107980       13.0838508622  MEMB      191             0.0000000000
     23775       191  PMPE      H4Y           -44.3247872171      -51.9280620452       13.8141579876  MEMB      191             0.0000000000
     23776       191  PMPE      C35           -44.9851139806      -51.0765567181       11.8964987739  MEMB      191             0.0000000000
     23777       191  PMPE      H5X           -44.7102183374      -50.0041395429       11.9896369885  MEMB      191             0.0000000000
     23778       191  PMPE      H5Y           -45.9159067373      -51.1108684369       11.2908846921  MEMB      191             0.0000000000
     23779       191  PMPE      C36           -43.8676141546      -51.7184488479       11.0842841270  MEMB      191             0.0000000000
     23780       191  PMPE      H6X           -44.1241108176      -52.7966234039       11.1621952573  MEMB      191             0.0000000000
     23781       191  PMPE      H6Y           -42.8446684349      -51.6244521930       11.5074482472  MEMB      191             0.0000000000
     23782       191  PMPE      C37           -43.7446887555      -51.3683482647        9.5784225597  MEMB      191             0.0000000000
     23783       191  PMPE      H7X           -42.9827735550      -52.0629622879        9.1645181777  MEMB      191             0.0000000000
     23784       191  PMPE      H7Y           -43.4203269138      -50.3110087008        9.4728615478  MEMB      191             0.0000000000
     23785       191  PMPE      C38           -44.9678622053      -51.5928553796        8.7251460147  MEMB      191             0.0000000000
     23786       191  PMPE      H8X           -45.5460767692      -50.6494348384        8.6254134846  MEMB      191             0.0000000000
     23787       191  PMPE      H8Y           -45.5874641095      -52.3633351322        9.2318769831  MEMB      191             0.0000000000
     23788       191  PMPE      C39           -44.7598435523      -52.0414253427        7.3096614184  MEMB      191             0.0000000000
     23789       191  PMPE      H9X           -43.8403704634      -51.5239985849        6.9615808938  MEMB      191             0.0000000000
     23790       191  PMPE      H9Y           -45.5914919981      -51.8308465210        6.6037304696  MEMB      191             0.0000000000
     23791       191  PMPE      C310          -44.4483634710      -53.6013855632        7.3334976479  MEMB      191             0.0000000000
     23792       191  PMPE      H10X          -45.3062103329      -54.0227241424        7.8999718699  MEMB      191             0.0000000000
     23793       191  PMPE      H10Y          -43.5785862853      -53.8767940998        7.9675002779  MEMB      191             0.0000000000
     23794       191  PMPE      C311          -44.6158051995      -54.2982603534        5.9295848944  MEMB      191             0.0000000000
     23795       191  PMPE      H11X          -45.5554001287      -54.0967815602        5.3720109549  MEMB      191             0.0000000000
     23796       191  PMPE      H11Y          -44.5237364911      -55.3929455654        6.0954418682  MEMB      191             0.0000000000
     23797       191  PMPE      C312          -43.5146409981      -53.8400003686        4.9241460566  MEMB      191             0.0000000000
     23798       191  PMPE      H12X          -42.7204269686      -54.5947161626        5.1083989661  MEMB      191             0.0000000000
     23799       191  PMPE      H12Y          -43.1878817099      -52.8091600387        5.1789347527  MEMB      191             0.0000000000
     23800       191  PMPE      C313          -43.7168765494      -53.9383765523        3.3655128062  MEMB      191             0.0000000000
     23801       191  PMPE      H13X          -44.2931484086      -54.7897242020        2.9442783637  MEMB      191             0.0000000000
     23802       191  PMPE      H13Y          -42.6631615563      -54.0958924958        3.0505609782  MEMB      191             0.0000000000
     23803       191  PMPE      C314          -44.3371057933      -52.6939012103        2.7361100830  MEMB      191             0.0000000000
     23804       191  PMPE      H14X          -45.3816373605      -52.5235976785        3.0741512715  MEMB      191             0.0000000000
     23805       191  PMPE      H14Y          -44.6314539735      -52.7965979826        1.6697454184  MEMB      191             0.0000000000
     23806       191  PMPE      C315          -43.5096444131      -51.3984376539        2.9473903291  MEMB      191             0.0000000000
     23807       191  PMPE      H15X          -43.3996222150      -51.0814964264        4.0065242333  MEMB      191             0.0000000000
     23808       191  PMPE      H15Y          -43.9539022612      -50.5115293615        2.4470413405  MEMB      191             0.0000000000
     23809       191  PMPE      C316          -42.0900574195      -51.4812812238        2.3528893333  MEMB      191             0.0000000000
     23810       191  PMPE      H16X          -42.0762896069      -51.0434742170        1.3318812475  MEMB      191             0.0000000000
     23811       191  PMPE      H16Y          -41.7464095410      -52.5349846668        2.2758430788  MEMB      191             0.0000000000
     23812       191  PMPE      H16Z          -41.3889961492      -50.8331740224        2.9210363056  MEMB      191             0.0000000000
     23813       192  PMPE      N             -53.3468620370       43.4329736309       18.6856090798  MEMB      192             0.0000000000
     23814       192  PMPE      HN1           -53.7101891087       44.4047953232       18.6138034274  MEMB      192             0.0000000000
     23815       192  PMPE      HN2           -53.9646856316       42.8372086627       18.0982779024  MEMB      192             0.0000000000
     23816       192  PMPE      HN3           -53.4631940087       43.0806231373       19.6571624924  MEMB      192             0.0000000000
     23817       192  PMPE      C12           -51.9912902239       43.2192863660       18.0843579743  MEMB      192             0.0000000000
     23818       192  PMPE      H12A          -51.9523898226       43.8766539833       17.1895532473  MEMB      192             0.0000000000
     23819       192  PMPE      H12B          -51.9511618814       42.1545123541       17.7697680801  MEMB      192             0.0000000000
     23820       192  PMPE      C11           -50.9522156589       43.7070763224       19.0942237737  MEMB      192             0.0000000000
     23821       192  PMPE      H11A          -49.9593052080       43.3180187186       18.7826406451  MEMB      192             0.0000000000
     23822       192  PMPE      H11B          -51.2000804812       43.2574676369       20.0794832239  MEMB      192             0.0000000000
     23823       192  PMPE      P             -49.4849298579       46.0014480978       19.2455146834  MEMB      192             0.0000000000
     23824       192  PMPE      O13           -48.5163287633       45.3179464838       18.3689568029  MEMB      192             0.0000000000
     23825       192  PMPE      O14           -49.1213578906       46.1599565397       20.6825697576  MEMB      192             0.0000000000
     23826       192  PMPE      O11           -49.8829626512       47.4012108458       18.6294637029  MEMB      192             0.0000000000
     23827       192  PMPE      O12           -50.8853561145       45.1395705457       19.2093042250  MEMB      192             0.0000000000
     23828       192  PMPE      C1            -51.2540504610       47.8181681226       18.4453181854  MEMB      192             0.0000000000
     23829       192  PMPE      HA            -51.3345405868       48.9182016788       18.5786166893  MEMB      192             0.0000000000
     23830       192  PMPE      HB            -51.9787540396       47.2952659463       19.1053932202  MEMB      192             0.0000000000
     23831       192  PMPE      C2            -51.7195651272       47.5128767780       17.0732035596  MEMB      192             0.0000000000
     23832       192  PMPE      HS            -51.7573962569       46.4188034913       16.8837481122  MEMB      192             0.0000000000
     23833       192  PMPE      O21           -50.6736351142       48.2216647312       16.2866264013  MEMB      192             0.0000000000
     23834       192  PMPE      C21           -50.1936777042       47.5567843530       15.2487689392  MEMB      192             0.0000000000
     23835       192  PMPE      O22           -50.5442542608       46.4319135423       14.8967630540  MEMB      192             0.0000000000
     23836       192  PMPE      C22           -49.1873833295       48.4862971839       14.5766521706  MEMB      192             0.0000000000
     23837       192  PMPE      H2R           -48.3350473127       48.6129400122       15.2779409639  MEMB      192             0.0000000000
     23838       192  PMPE      H2S           -49.8094567320       49.3786707189       14.3507870165  MEMB      192             0.0000000000
     23839       192  PMPE      C3            -53.2025626259       48.0233759355       16.8053020952  MEMB      192             0.0000000000
     23840       192  PMPE      HX            -53.0722602967       49.1093017184       17.0005132349  MEMB      192             0.0000000000
     23841       192  PMPE      HY            -53.9704988104       47.6678108996       17.5251411851  MEMB      192             0.0000000000
     23842       192  PMPE      O31           -53.8044510413       47.7195029893       15.5148156878  MEMB      192             0.0000000000
     23843       192  PMPE      C31           -54.0109341486       46.4885941148       15.1831640299  MEMB      192             0.0000000000
     23844       192  PMPE      O32           -53.8572889895       45.4889094986       15.9114100036  MEMB      192             0.0000000000
     23845       192  PMPE      C32           -54.2737194238       46.4618664530       13.6925031084  MEMB      192             0.0000000000
     23846       192  PMPE      H2X           -53.3705557851       46.8674489089       13.1884006206  MEMB      192             0.0000000000
     23847       192  PMPE      H2Y           -55.0282011840       47.2630306175       13.5401402801  MEMB      192             0.0000000000
     23848       192  PMPE      C23           -48.6432583494       47.8946210191       13.2646942628  MEMB      192             0.0000000000
     23849       192  PMPE      H3R           -49.4204921307       48.2421422014       12.5509309503  MEMB      192             0.0000000000
     23850       192  PMPE      H3S           -48.7311389922       46.7876566793       13.2296526704  MEMB      192             0.0000000000
     23851       192  PMPE      C24           -47.2289029748       48.3248322793       12.8506956975  MEMB      192             0.0000000000
     23852       192  PMPE      H4R           -46.3579038637       47.8747342501       13.3732786527  MEMB      192             0.0000000000
     23853       192  PMPE      H4S           -47.0769886253       49.4119024224       13.0225147890  MEMB      192             0.0000000000
     23854       192  PMPE      C25           -46.9382507725       47.8468787471       11.4389659069  MEMB      192             0.0000000000
     23855       192  PMPE      H5R           -47.2490562797       46.7826623789       11.3671009036  MEMB      192             0.0000000000
     23856       192  PMPE      H5S           -45.8499505398       47.9214244983       11.2283328444  MEMB      192             0.0000000000
     23857       192  PMPE      C26           -47.5642904017       48.7104738536       10.2900301212  MEMB      192             0.0000000000
     23858       192  PMPE      H6R           -47.2815818862       49.7797812498       10.3948089958  MEMB      192             0.0000000000
     23859       192  PMPE      H6S           -48.6619868338       48.5782352131       10.3990992591  MEMB      192             0.0000000000
     23860       192  PMPE      C27           -47.2422627755       48.3336434224        8.8458476466  MEMB      192             0.0000000000
     23861       192  PMPE      H7R           -47.7981681578       47.4225714559        8.5372408613  MEMB      192             0.0000000000
     23862       192  PMPE      H7S           -46.1386487541       48.2066614243        8.8306018722  MEMB      192             0.0000000000
     23863       192  PMPE      C28           -47.8037443497       49.4510655125        7.8864312479  MEMB      192             0.0000000000
     23864       192  PMPE      H8R           -47.4763487829       49.1475072176        6.8690890421  MEMB      192             0.0000000000
     23865       192  PMPE      H8S           -47.2754316345       50.4101024395        8.0747259332  MEMB      192             0.0000000000
     23866       192  PMPE      C29           -49.2961996043       49.4184741996        8.0335565194  MEMB      192             0.0000000000
     23867       192  PMPE      H9R           -49.7330604244       49.6266564411        9.0336227941  MEMB      192             0.0000000000
     23868       192  PMPE      C217          -49.9655481243       48.2816390591        7.2904321316  MEMB      192             0.0000000000
     23869       192  PMPE      H17R          -50.7996942882       47.7426280758        7.7223541976  MEMB      192             0.0000000000
     23870       192  PMPE      H17S          -49.1687786565       47.7774769549        6.7576394025  MEMB      192             0.0000000000
     23871       192  PMPE      C210          -50.2551911141       49.7454929540        6.8837642039  MEMB      192             0.0000000000
     23872       192  PMPE      H10R          -51.2765538281       50.1298941619        7.0920309952  MEMB      192             0.0000000000
     23873       192  PMPE      C211          -49.5284246880       50.1680869141        5.5999306490  MEMB      192             0.0000000000
     23874       192  PMPE      H11R          -48.9170083352       49.3160116946        5.2332440972  MEMB      192             0.0000000000
     23875       192  PMPE      H11S          -48.8213256253       51.0110234042        5.7541701511  MEMB      192             0.0000000000
     23876       192  PMPE      C212          -50.6983237241       50.6050801179        4.6921448639  MEMB      192             0.0000000000
     23877       192  PMPE      H12R          -51.3307177549       51.2652323599        5.3234908490  MEMB      192             0.0000000000
     23878       192  PMPE      H12S          -51.3649262962       49.7493422644        4.4519892513  MEMB      192             0.0000000000
     23879       192  PMPE      C213          -50.2088591235       51.2683784923        3.4110196312  MEMB      192             0.0000000000
     23880       192  PMPE      H13R          -49.9195764849       50.5301309220        2.6327984631  MEMB      192             0.0000000000
     23881       192  PMPE      H13S          -49.4440698907       52.0131535986        3.7187999077  MEMB      192             0.0000000000
     23882       192  PMPE      C214          -51.3228971815       52.2937119225        2.8782801440  MEMB      192             0.0000000000
     23883       192  PMPE      H14R          -50.6897593611       53.2049238566        2.8221477136  MEMB      192             0.0000000000
     23884       192  PMPE      H14S          -52.1776674768       52.3235144453        3.5873644769  MEMB      192             0.0000000000
     23885       192  PMPE      C215          -51.8544925132       51.9505904780        1.4330072345  MEMB      192             0.0000000000
     23886       192  PMPE      H15R          -51.0317056602       51.7105187401        0.7261062706  MEMB      192             0.0000000000
     23887       192  PMPE      H15S          -52.3944388999       52.8553354352        1.0805633499  MEMB      192             0.0000000000
     23888       192  PMPE      C216          -52.9990926762       50.9418750004        1.2775253881  MEMB      192             0.0000000000
     23889       192  PMPE      H16R          -52.8975443021       50.1051605280        2.0013489350  MEMB      192             0.0000000000
     23890       192  PMPE      H16S          -53.9885761797       51.4361665115        1.3820211143  MEMB      192             0.0000000000
     23891       192  PMPE      H16T          -52.8239872621       50.4913859059        0.2771667009  MEMB      192             0.0000000000
     23892       192  PMPE      C33           -54.7120153882       45.0799184639       13.2704231356  MEMB      192             0.0000000000
     23893       192  PMPE      H3X           -55.5992268566       44.7287003182       13.8394773436  MEMB      192             0.0000000000
     23894       192  PMPE      H3Y           -53.9229111092       44.3168098875       13.4415983575  MEMB      192             0.0000000000
     23895       192  PMPE      C34           -55.0144699571       44.9557848351       11.7669368001  MEMB      192             0.0000000000
     23896       192  PMPE      H4X           -55.8994276529       45.6084721949       11.6082850758  MEMB      192             0.0000000000
     23897       192  PMPE      H4Y           -55.6111870292       44.0422577132       11.5578489102  MEMB      192             0.0000000000
     23898       192  PMPE      C35           -53.9372104394       45.3207969375       10.7138039395  MEMB      192             0.0000000000
     23899       192  PMPE      H5X           -53.3652705937       46.2124845066       11.0486154431  MEMB      192             0.0000000000
     23900       192  PMPE      H5Y           -54.4855228032       45.6485357452        9.8048139443  MEMB      192             0.0000000000
     23901       192  PMPE      C36           -53.0176434772       44.0464983409       10.5292642340  MEMB      192             0.0000000000
     23902       192  PMPE      H6X           -53.6539720617       43.1772535614       10.2575649822  MEMB      192             0.0000000000
     23903       192  PMPE      H6Y           -52.5672190941       43.6461502174       11.4626235857  MEMB      192             0.0000000000
     23904       192  PMPE      C37           -51.8165126298       44.2617940778        9.6288932020  MEMB      192             0.0000000000
     23905       192  PMPE      H7X           -51.3385350156       43.3521487624        9.2065146288  MEMB      192             0.0000000000
     23906       192  PMPE      H7Y           -50.9856661617       44.9152725866        9.9709180278  MEMB      192             0.0000000000
     23907       192  PMPE      C38           -52.2469240424       44.8624280521        8.2415380781  MEMB      192             0.0000000000
     23908       192  PMPE      H8X           -51.2551191224       44.8354840375        7.7416202082  MEMB      192             0.0000000000
     23909       192  PMPE      H8Y           -52.4319486636       45.9579071859        8.2380385170  MEMB      192             0.0000000000
     23910       192  PMPE      C39           -53.1606659966       44.0266419566        7.3789020848  MEMB      192             0.0000000000
     23911       192  PMPE      H9X           -54.2320310155       44.2641424733        7.5523714457  MEMB      192             0.0000000000
     23912       192  PMPE      H9Y           -52.9292965754       42.9435333978        7.4664539903  MEMB      192             0.0000000000
     23913       192  PMPE      C310          -52.9401743772       44.3120950002        5.8410111497  MEMB      192             0.0000000000
     23914       192  PMPE      H10X          -53.5947721487       43.6872354672        5.1965173958  MEMB      192             0.0000000000
     23915       192  PMPE      H10Y          -51.8883543890       44.0352284645        5.6144265293  MEMB      192             0.0000000000
     23916       192  PMPE      C311          -53.1743207944       45.7200119129        5.3235419578  MEMB      192             0.0000000000
     23917       192  PMPE      H11X          -52.4188770957       46.4850945930        5.6033167772  MEMB      192             0.0000000000
     23918       192  PMPE      H11Y          -54.1442534779       46.1739728069        5.6192971094  MEMB      192             0.0000000000
     23919       192  PMPE      C312          -53.2618399064       45.8100229367        3.7391448159  MEMB      192             0.0000000000
     23920       192  PMPE      H12X          -53.4865168588       46.7881918365        3.2626704898  MEMB      192             0.0000000000
     23921       192  PMPE      H12Y          -54.0617802075       45.1057015810        3.4255404177  MEMB      192             0.0000000000
     23922       192  PMPE      C313          -51.9939934565       45.2516233432        2.9917973026  MEMB      192             0.0000000000
     23923       192  PMPE      H13X          -52.1539455836       45.1953530997        1.8938121307  MEMB      192             0.0000000000
     23924       192  PMPE      H13Y          -51.9081613255       44.1782655991        3.2653978728  MEMB      192             0.0000000000
     23925       192  PMPE      C314          -50.6393484835       45.9001400390        3.3492638465  MEMB      192             0.0000000000
     23926       192  PMPE      H14X          -49.7446301960       45.5033274911        2.8235832378  MEMB      192             0.0000000000
     23927       192  PMPE      H14Y          -50.4605488706       45.9607902916        4.4441032273  MEMB      192             0.0000000000
     23928       192  PMPE      C315          -50.4958350987       47.3983865304        2.9559736693  MEMB      192             0.0000000000
     23929       192  PMPE      H15X          -49.5563888310       47.7828110510        3.4076144978  MEMB      192             0.0000000000
     23930       192  PMPE      H15Y          -51.3541250751       47.9159429996        3.4353421129  MEMB      192             0.0000000000
     23931       192  PMPE      C316          -50.5235936030       47.7285277344        1.4715863064  MEMB      192             0.0000000000
     23932       192  PMPE      H16X          -51.4656755616       47.3987481219        0.9836850846  MEMB      192             0.0000000000
     23933       192  PMPE      H16Y          -49.6802331346       47.2848618900        0.9004252452  MEMB      192             0.0000000000
     23934       192  PMPE      H16Z          -50.5248541813       48.8295857790        1.3232945461  MEMB      192             0.0000000000
     23935       193  QMPE      N              43.7541182503      -54.3430816411       21.9288443610  MEMB      193             0.0000000000
     23936       193  QMPE      HN1            43.4995344877      -55.0693877986       22.6283202693  MEMB      193             0.0000000000
     23937       193  QMPE      HN2            43.7564180219      -53.4338663887       22.4337427238  MEMB      193             0.0000000000
     23938       193  QMPE      HN3            43.0852894304      -54.2994592446       21.1336305720  MEMB      193             0.0000000000
     23939       193  QMPE      C12            45.1629187422      -54.5832774144       21.2618193859  MEMB      193             0.0000000000
     23940       193  QMPE      H12A           45.1954619500      -55.6381100296       20.9145584018  MEMB      193             0.0000000000
     23941       193  QMPE      H12B           45.7806856490      -54.4231945826       22.1712469026  MEMB      193             0.0000000000
     23942       193  QMPE      C11            45.4245208063      -53.5740773552       20.1597325402  MEMB      193             0.0000000000
     23943       193  QMPE      H11A           46.4825789436      -53.7766908063       19.8881044669  MEMB      193             0.0000000000
     23944       193  QMPE      H11B           45.2780887158      -52.5668479646       20.6051173979  MEMB      193             0.0000000000
     23945       193  QMPE      P              44.9006388089      -53.3298203504       17.7167529789  MEMB      193             0.0000000000
     23946       193  QMPE      O13            45.6433280073      -52.0539421117       17.6561011140  MEMB      193             0.0000000000
     23947       193  QMPE      O14            43.6695852681      -53.5053478752       16.8601970693  MEMB      193             0.0000000000
     23948       193  QMPE      O11            45.9139772108      -54.4015814775       17.2954532452  MEMB      193             0.0000000000
     23949       193  QMPE      O12            44.4531344776      -53.7853309676       19.1210993275  MEMB      193             0.0000000000
     23950       193  QMPE      C1             45.8387381193      -55.7850699658       17.5516574313  MEMB      193             0.0000000000
     23951       193  QMPE      HA             44.8813673245      -56.1943481260       17.1640318921  MEMB      193             0.0000000000
     23952       193  QMPE      HB             45.8514448369      -55.9901758296       18.6434865892  MEMB      193             0.0000000000
     23953       193  QMPE      C2             47.1196439655      -56.5449985699       16.9006261260  MEMB      193             0.0000000000
     23954       193  QMPE      HS             47.4223728416      -57.4073344200       17.5323322479  MEMB      193             0.0000000000
     23955       193  QMPE      O21            48.2616173336      -55.6286354090       16.7405238159  MEMB      193             0.0000000000
     23956       193  QMPE      C21            48.8492639756      -55.3417136740       17.9316123275  MEMB      193             0.0000000000
     23957       193  QMPE      O22            48.5757323419      -55.9090028922       18.9511624475  MEMB      193             0.0000000000
     23958       193  QMPE      C22            49.8149964628      -54.1830431679       17.8532113768  MEMB      193             0.0000000000
     23959       193  QMPE      H2R            50.5561472802      -54.5478280612       18.5961435628  MEMB      193             0.0000000000
     23960       193  QMPE      H2S            49.4658053451      -53.1662615543       18.1334640350  MEMB      193             0.0000000000
     23961       193  QMPE      C3             46.9363770848      -57.1639233176       15.5532795926  MEMB      193             0.0000000000
     23962       193  QMPE      HX             46.2442578809      -58.0329941198       15.5505028776  MEMB      193             0.0000000000
     23963       193  QMPE      HY             47.8595362940      -57.5341355360       15.0582634639  MEMB      193             0.0000000000
     23964       193  QMPE      O31            46.3565713344      -56.2333270842       14.5830699497  MEMB      193             0.0000000000
     23965       193  QMPE      C31            45.0901446862      -56.2808425299       14.2412836428  MEMB      193             0.0000000000
     23966       193  QMPE      O32            44.3186100088      -57.1930626963       14.4943086765  MEMB      193             0.0000000000
     23967       193  QMPE      C32            44.7400304468      -55.0213975421       13.6117505145  MEMB      193             0.0000000000
     23968       193  QMPE      H2X            45.2587530352      -54.2594762976       14.2320116938  MEMB      193             0.0000000000
     23969       193  QMPE      H2Y            45.1496659340      -54.9994529043       12.5792592081  MEMB      193             0.0000000000
     23970       193  QMPE      C23            50.4551917649      -54.0608034170       16.4770283594  MEMB      193             0.0000000000
     23971       193  QMPE      H3R            50.5322186813      -55.0475936678       15.9724165361  MEMB      193             0.0000000000
     23972       193  QMPE      H3S            51.4310036920      -53.5807968762       16.7044173121  MEMB      193             0.0000000000
     23973       193  QMPE      C24            49.4991553308      -53.0430773100       15.6846416394  MEMB      193             0.0000000000
     23974       193  QMPE      H4R            49.7591473896      -52.0189580735       16.0280145255  MEMB      193             0.0000000000
     23975       193  QMPE      H4S            48.4612057143      -53.2945483457       15.9908178091  MEMB      193             0.0000000000
     23976       193  QMPE      C25            49.4029523346      -53.1030675488       14.1746578311  MEMB      193             0.0000000000
     23977       193  QMPE      H5R            50.3846420032      -52.7967011314       13.7542458953  MEMB      193             0.0000000000
     23978       193  QMPE      H5S            48.6570921842      -52.3705013452       13.7986789553  MEMB      193             0.0000000000
     23979       193  QMPE      C26            49.0922641239      -54.4644881327       13.6204814004  MEMB      193             0.0000000000
     23980       193  QMPE      H6R            48.3589646144      -54.9312418052       14.3123873919  MEMB      193             0.0000000000
     23981       193  QMPE      H6S            49.8987452013      -55.2263138264       13.6799014997  MEMB      193             0.0000000000
     23982       193  QMPE      C27            48.5297458495      -54.5528300477       12.1170201459  MEMB      193             0.0000000000
     23983       193  QMPE      H7R            49.3291162181      -54.0377894064       11.5425101945  MEMB      193             0.0000000000
     23984       193  QMPE      H7S            47.5642290960      -54.0052360412       12.0697023565  MEMB      193             0.0000000000
     23985       193  QMPE      C28            48.3338167457      -55.9906070324       11.5795471588  MEMB      193             0.0000000000
     23986       193  QMPE      H8R            47.5598116917      -56.6222696179       12.0655919407  MEMB      193             0.0000000000
     23987       193  QMPE      H8S            49.3270721832      -56.4665486758       11.4337932468  MEMB      193             0.0000000000
     23988       193  QMPE      C29            47.8264827861      -55.9501264459       10.0919755225  MEMB      193             0.0000000000
     23989       193  QMPE      H9R            46.8085158395      -55.5829452138        9.8404949896  MEMB      193             0.0000000000
     23990       193  QMPE      C217           48.3901899663      -57.1128911984        9.2568509978  MEMB      193             0.0000000000
     23991       193  QMPE      H17R           49.0374333096      -57.7107776208        9.8865313155  MEMB      193             0.0000000000
     23992       193  QMPE      H17S           47.8113893990      -57.4423396348        8.4028361842  MEMB      193             0.0000000000
     23993       193  QMPE      C210           48.7592248430      -55.7190818306        8.8380725002  MEMB      193             0.0000000000
     23994       193  QMPE      H10R           48.2068338596      -55.3906828178        7.9317945578  MEMB      193             0.0000000000
     23995       193  QMPE      C211           50.1812645884      -55.3588484213        9.1170703054  MEMB      193             0.0000000000
     23996       193  QMPE      H11R           50.2666102847      -54.2554028940        9.2142570375  MEMB      193             0.0000000000
     23997       193  QMPE      H11S           50.6041625230      -55.9594586465        9.9505841934  MEMB      193             0.0000000000
     23998       193  QMPE      C212           50.9701904973      -55.6494303285        7.7999701210  MEMB      193             0.0000000000
     23999       193  QMPE      H12R           50.9189674677      -56.7039100096        7.4538914180  MEMB      193             0.0000000000
     24000       193  QMPE      H12S           52.0448961083      -55.7245832164        8.0714126208  MEMB      193             0.0000000000
     24001       193  QMPE      C213           50.7341623881      -54.7183024722        6.6232022834  MEMB      193             0.0000000000
     24002       193  QMPE      H13R           51.2466525386      -53.7476841268        6.7951755020  MEMB      193             0.0000000000
     24003       193  QMPE      H13S           49.6958218801      -54.4381055169        6.3445271404  MEMB      193             0.0000000000
     24004       193  QMPE      C214           51.4768209563      -55.3898417257        5.3284401003  MEMB      193             0.0000000000
     24005       193  QMPE      H14R           50.8117973898      -56.2180530896        5.0026626599  MEMB      193             0.0000000000
     24006       193  QMPE      H14S           52.4872346080      -55.7886600059        5.5615249958  MEMB      193             0.0000000000
     24007       193  QMPE      C215           51.5530847657      -54.4946705041        4.0623354029  MEMB      193             0.0000000000
     24008       193  QMPE      H15R           52.4557188919      -54.7504363233        3.4672258378  MEMB      193             0.0000000000
     24009       193  QMPE      H15S           51.6065708157      -53.4113051194        4.3027093418  MEMB      193             0.0000000000
     24010       193  QMPE      C216           50.3826392443      -54.5517855997        3.1352173134  MEMB      193             0.0000000000
     24011       193  QMPE      H16R           50.2593023952      -55.6192276298        2.8529480151  MEMB      193             0.0000000000
     24012       193  QMPE      H16S           50.6142867717      -53.9496383997        2.2307412929  MEMB      193             0.0000000000
     24013       193  QMPE      H16T           49.4053587378      -54.2167815317        3.5438945905  MEMB      193             0.0000000000
     24014       193  QMPE      C33            43.2522238125      -54.6966376740       13.4524563989  MEMB      193             0.0000000000
     24015       193  QMPE      H3X            42.6113469506      -54.7085807168       14.3599008068  MEMB      193             0.0000000000
     24016       193  QMPE      H3Y            42.9269592005      -55.3776404814       12.6371290242  MEMB      193             0.0000000000
     24017       193  QMPE      C34            43.2482227787      -53.1427509460       13.0760951524  MEMB      193             0.0000000000
     24018       193  QMPE      H4X            43.4716843910      -52.5650516971       13.9984021243  MEMB      193             0.0000000000
     24019       193  QMPE      H4Y            42.2105792380      -52.8949312071       12.7659301673  MEMB      193             0.0000000000
     24020       193  QMPE      C35            44.1435920947      -52.7993193189       11.8524572049  MEMB      193             0.0000000000
     24021       193  QMPE      H5X            43.8362813871      -53.3584806835       10.9429407530  MEMB      193             0.0000000000
     24022       193  QMPE      H5Y            45.2462185586      -52.8940866157       11.9502067377  MEMB      193             0.0000000000
     24023       193  QMPE      C36            44.0234966981      -51.3253893644       11.3474955609  MEMB      193             0.0000000000
     24024       193  QMPE      H6X            43.9747812065      -50.6801401372       12.2506019462  MEMB      193             0.0000000000
     24025       193  QMPE      H6Y            43.0503348571      -51.1490514337       10.8413513332  MEMB      193             0.0000000000
     24026       193  QMPE      C37            45.0947430497      -50.7397413784       10.4250286351  MEMB      193             0.0000000000
     24027       193  QMPE      H7X            44.7850524508      -49.7592020328       10.0043680677  MEMB      193             0.0000000000
     24028       193  QMPE      H7Y            45.9508420590      -50.3863968480       11.0386761555  MEMB      193             0.0000000000
     24029       193  QMPE      C38            45.7266246305      -51.7390478338        9.3674355223  MEMB      193             0.0000000000
     24030       193  QMPE      H8X            46.1585673837      -52.6030803326        9.9162475083  MEMB      193             0.0000000000
     24031       193  QMPE      H8Y            44.8765137783      -52.1147286569        8.7587510510  MEMB      193             0.0000000000
     24032       193  QMPE      C39            46.7907344654      -51.2107072517        8.3797415280  MEMB      193             0.0000000000
     24033       193  QMPE      H9X            47.5571489717      -50.7736167268        9.0549319278  MEMB      193             0.0000000000
     24034       193  QMPE      H9Y            46.2770828585      -50.4024305834        7.8165614579  MEMB      193             0.0000000000
     24035       193  QMPE      C310           47.3787698419      -52.2364526369        7.4558375332  MEMB      193             0.0000000000
     24036       193  QMPE      H10X           47.8881071918      -53.0541678921        8.0092258768  MEMB      193             0.0000000000
     24037       193  QMPE      H10Y           48.2299328469      -51.7912034299        6.8976306376  MEMB      193             0.0000000000
     24038       193  QMPE      C311           46.4195001749      -52.8983995065        6.3610159037  MEMB      193             0.0000000000
     24039       193  QMPE      H11X           45.9224492998      -52.0927827901        5.7794291085  MEMB      193             0.0000000000
     24040       193  QMPE      H11Y           45.6733502538      -53.5317253729        6.8868296049  MEMB      193             0.0000000000
     24041       193  QMPE      C312           47.1450927172      -53.7979765402        5.3373933076  MEMB      193             0.0000000000
     24042       193  QMPE      H12X           47.6687190881      -54.5929145346        5.9102893162  MEMB      193             0.0000000000
     24043       193  QMPE      H12Y           47.8514233930      -53.1363384329        4.7918171238  MEMB      193             0.0000000000
     24044       193  QMPE      C313           46.1584889767      -54.3506283487        4.3515913782  MEMB      193             0.0000000000
     24045       193  QMPE      H13X           46.4888166822      -55.2749013717        3.8310879294  MEMB      193             0.0000000000
     24046       193  QMPE      H13Y           45.2376490115      -54.5851101619        4.9272588313  MEMB      193             0.0000000000
     24047       193  QMPE      C314           45.7068772542      -53.2005736340        3.4361865466  MEMB      193             0.0000000000
     24048       193  QMPE      H14X           46.5819878065      -52.5597111338        3.1957749369  MEMB      193             0.0000000000
     24049       193  QMPE      H14Y           44.9765244151      -52.5958718118        4.0151874410  MEMB      193             0.0000000000
     24050       193  QMPE      C315           45.0418812494      -53.7093887460        2.1911806507  MEMB      193             0.0000000000
     24051       193  QMPE      H15X           45.7308996203      -54.2703554874        1.5241799606  MEMB      193             0.0000000000
     24052       193  QMPE      H15Y           44.1690467553      -54.3395468012        2.4657384155  MEMB      193             0.0000000000
     24053       193  QMPE      H15Z           44.5365130156      -52.8873808363        1.6405204169  MEMB      193             0.0000000000
     24054       194  PMPE      N              51.0468425791       44.3892021888       19.5499029179  MEMB      194             0.0000000000
     24055       194  PMPE      HN1            51.2021759529       44.0526490270       18.5782015794  MEMB      194             0.0000000000
     24056       194  PMPE      HN2            51.1958889001       43.6899823104       20.3052020052  MEMB      194             0.0000000000
     24057       194  PMPE      HN3            50.0419164857       44.5957116612       19.7204242099  MEMB      194             0.0000000000
     24058       194  PMPE      C12            51.8504238523       45.5977908150       19.7379684362  MEMB      194             0.0000000000
     24059       194  PMPE      H12A           51.4143146380       46.1614576324       20.5902649459  MEMB      194             0.0000000000
     24060       194  PMPE      H12B           51.9256167099       46.2640417467       18.8520921636  MEMB      194             0.0000000000
     24061       194  PMPE      C11            53.2327575049       45.1849706377       20.1355068671  MEMB      194             0.0000000000
     24062       194  PMPE      H11A           53.1556568180       44.4270026684       20.9441235793  MEMB      194             0.0000000000
     24063       194  PMPE      H11B           53.8795650608       46.0499164824       20.3959480461  MEMB      194             0.0000000000
     24064       194  PMPE      P              55.1830027211       44.4816610197       18.5714240463  MEMB      194             0.0000000000
     24065       194  PMPE      O13            55.8099106452       43.3460785110       19.2359066246  MEMB      194             0.0000000000
     24066       194  PMPE      O14            55.7823913688       45.7854699617       18.7674772341  MEMB      194             0.0000000000
     24067       194  PMPE      O11            55.1429274804       44.0959973174       17.0047638982  MEMB      194             0.0000000000
     24068       194  PMPE      O12            53.7315710486       44.4818159490       18.9970499748  MEMB      194             0.0000000000
     24069       194  PMPE      C1             53.9445999830       43.6234599347       16.4197102691  MEMB      194             0.0000000000
     24070       194  PMPE      HA             53.1857729356       44.4347966677       16.4350443030  MEMB      194             0.0000000000
     24071       194  PMPE      HB             53.6323590809       42.6768590701       16.9103972006  MEMB      194             0.0000000000
     24072       194  PMPE      C2             54.1611072095       43.3964273799       14.9104301059  MEMB      194             0.0000000000
     24073       194  PMPE      HS             54.7110740134       42.4381420363       14.7940394337  MEMB      194             0.0000000000
     24074       194  PMPE      O21            54.8798919615       44.5249172679       14.4195538952  MEMB      194             0.0000000000
     24075       194  PMPE      C21            55.5787465958       44.3821470950       13.3072886893  MEMB      194             0.0000000000
     24076       194  PMPE      O22            55.5661042015       43.4289793502       12.5872449944  MEMB      194             0.0000000000
     24077       194  PMPE      C22            56.2627433578       45.6654267458       13.0801202671  MEMB      194             0.0000000000
     24078       194  PMPE      H2R            56.9038224308       45.6671283260       12.1727412934  MEMB      194             0.0000000000
     24079       194  PMPE      H2S            56.9166617992       45.9008482428       13.9468890128  MEMB      194             0.0000000000
     24080       194  PMPE      C3             52.7443171153       43.1507375750       14.2146521985  MEMB      194             0.0000000000
     24081       194  PMPE      HX             52.0423179463       43.9746472692       14.4650338444  MEMB      194             0.0000000000
     24082       194  PMPE      HY             52.2309082157       42.2365175924       14.5819856314  MEMB      194             0.0000000000
     24083       194  PMPE      O31            52.8599825420       43.2047228987       12.7718899069  MEMB      194             0.0000000000
     24084       194  PMPE      C31            52.8471607406       42.0000806407       12.0768710324  MEMB      194             0.0000000000
     24085       194  PMPE      O32            52.9945549071       40.8943811249       12.5415982472  MEMB      194             0.0000000000
     24086       194  PMPE      C32            52.5979109351       42.3548105786       10.6140014101  MEMB      194             0.0000000000
     24087       194  PMPE      H2X            53.5569021463       42.7634822404       10.2297559828  MEMB      194             0.0000000000
     24088       194  PMPE      H2Y            51.7668140805       43.0908496732       10.5710414354  MEMB      194             0.0000000000
     24089       194  PMPE      C23            55.1850920749       46.8140108948       13.0567590985  MEMB      194             0.0000000000
     24090       194  PMPE      H3R            55.8888962024       47.6505134365       12.8586567951  MEMB      194             0.0000000000
     24091       194  PMPE      H3S            54.7609340544       46.8062862902       14.0835752147  MEMB      194             0.0000000000
     24092       194  PMPE      C24            54.0511263287       46.8427926702       12.0150327183  MEMB      194             0.0000000000
     24093       194  PMPE      H4R            53.4694926579       47.7545735373       12.2693536105  MEMB      194             0.0000000000
     24094       194  PMPE      H4S            53.3190619091       46.0420699649       12.2542940183  MEMB      194             0.0000000000
     24095       194  PMPE      C25            54.5076145345       46.9174698351       10.5501678243  MEMB      194             0.0000000000
     24096       194  PMPE      H5R            55.4189036168       46.3013153971       10.3945178161  MEMB      194             0.0000000000
     24097       194  PMPE      H5S            54.8183781155       47.9479835970       10.2748706529  MEMB      194             0.0000000000
     24098       194  PMPE      C26            53.4446745697       46.4218256658        9.6005493950  MEMB      194             0.0000000000
     24099       194  PMPE      H6R            52.4840984519       46.8675512624        9.9366200703  MEMB      194             0.0000000000
     24100       194  PMPE      H6S            53.2973433167       45.3207613045        9.5840625456  MEMB      194             0.0000000000
     24101       194  PMPE      C27            53.7490384889       46.8589817876        8.1623282129  MEMB      194             0.0000000000
     24102       194  PMPE      H7R            54.8016526349       46.5521665700        7.9829157629  MEMB      194             0.0000000000
     24103       194  PMPE      H7S            53.8108980576       47.9619961396        8.0446252051  MEMB      194             0.0000000000
     24104       194  PMPE      C28            52.8248517067       46.2830358152        7.1273806539  MEMB      194             0.0000000000
     24105       194  PMPE      H8R            52.8708564626       45.1877116924        7.3075738591  MEMB      194             0.0000000000
     24106       194  PMPE      H8S            53.1686641902       46.3888338315        6.0762294022  MEMB      194             0.0000000000
     24107       194  PMPE      C29            51.4230919723       46.8630202656        7.3479782764  MEMB      194             0.0000000000
     24108       194  PMPE      H9R            51.2843487875       47.9581360995        7.2223109165  MEMB      194             0.0000000000
     24109       194  PMPE      C217           50.4385995349       46.1483939020        8.3143221445  MEMB      194             0.0000000000
     24110       194  PMPE      H17R           49.8593869564       46.9233894937        8.8009261921  MEMB      194             0.0000000000
     24111       194  PMPE      H17S           50.9800938940       45.3527858328        8.8109918259  MEMB      194             0.0000000000
     24112       194  PMPE      C210           50.3074847684       46.0019831928        6.7805690053  MEMB      194             0.0000000000
     24113       194  PMPE      H10R           49.4562939787       46.6504930148        6.4818549603  MEMB      194             0.0000000000
     24114       194  PMPE      C211           50.4207538802       44.6099718625        6.1564372937  MEMB      194             0.0000000000
     24115       194  PMPE      H11R           49.3800424459       44.2344226898        6.0554237889  MEMB      194             0.0000000000
     24116       194  PMPE      H11S           51.0861348883       44.0157010661        6.8185783674  MEMB      194             0.0000000000
     24117       194  PMPE      C212           51.0041637120       44.4455663957        4.7376849912  MEMB      194             0.0000000000
     24118       194  PMPE      H12R           51.0415131472       43.3621006619        4.4947288156  MEMB      194             0.0000000000
     24119       194  PMPE      H12S           52.0287721626       44.8730110831        4.6953813949  MEMB      194             0.0000000000
     24120       194  PMPE      C213           50.2620620216       45.1122658770        3.6736436934  MEMB      194             0.0000000000
     24121       194  PMPE      H13R           50.3494216177       46.1862046996        3.9444658020  MEMB      194             0.0000000000
     24122       194  PMPE      H13S           49.1885838964       44.8385814675        3.5896040012  MEMB      194             0.0000000000
     24123       194  PMPE      C214           50.9180375370       45.1025407053        2.2697428098  MEMB      194             0.0000000000
     24124       194  PMPE      H14R           51.0850592672       44.0252998986        2.0553207069  MEMB      194             0.0000000000
     24125       194  PMPE      H14S           51.8175948139       45.7530199042        2.2250791870  MEMB      194             0.0000000000
     24126       194  PMPE      C215           50.0107780971       45.6560361151        1.1135697318  MEMB      194             0.0000000000
     24127       194  PMPE      H15R           48.9980833131       45.2134357574        1.2270356621  MEMB      194             0.0000000000
     24128       194  PMPE      H15S           50.2941754011       45.2769740827        0.1084220697  MEMB      194             0.0000000000
     24129       194  PMPE      C216           50.0429980483       47.1706733727        1.0024075911  MEMB      194             0.0000000000
     24130       194  PMPE      H16R           51.0407916362       47.6019700582        0.7728165078  MEMB      194             0.0000000000
     24131       194  PMPE      H16S           49.2390257686       47.4583915916        0.2916567898  MEMB      194             0.0000000000
     24132       194  PMPE      H16T           49.6694831579       47.5757577971        1.9671435522  MEMB      194             0.0000000000
     24133       194  PMPE      C33            52.4306813222       41.0441056872        9.8695647265  MEMB      194             0.0000000000
     24134       194  PMPE      H3X            51.6458125471       40.3766749918       10.2853032281  MEMB      194             0.0000000000
     24135       194  PMPE      H3Y            53.3456422753       40.4544732074       10.0920532631  MEMB      194             0.0000000000
     24136       194  PMPE      C34            52.1371380920       41.2603730356        8.3618580491  MEMB      194             0.0000000000
     24137       194  PMPE      H4X            51.1559217881       41.7804594619        8.3295242208  MEMB      194             0.0000000000
     24138       194  PMPE      H4Y            52.0273114666       40.2889171399        7.8340954475  MEMB      194             0.0000000000
     24139       194  PMPE      C35            53.1351243730       42.0476068376        7.5726951319  MEMB      194             0.0000000000
     24140       194  PMPE      H5X            53.3580578558       43.0636028801        7.9630456931  MEMB      194             0.0000000000
     24141       194  PMPE      H5Y            52.7386412568       42.1224868622        6.5375555240  MEMB      194             0.0000000000
     24142       194  PMPE      C36            54.4608133185       41.4177100194        7.6066787238  MEMB      194             0.0000000000
     24143       194  PMPE      H6X            54.4909640869       40.3120292274        7.5023648208  MEMB      194             0.0000000000
     24144       194  PMPE      H6Y            54.9482845585       41.6397356609        8.5800225364  MEMB      194             0.0000000000
     24145       194  PMPE      C37            55.4279331772       41.9579505094        6.4517486805  MEMB      194             0.0000000000
     24146       194  PMPE      H7X            54.7451259525       41.9281008339        5.5758466846  MEMB      194             0.0000000000
     24147       194  PMPE      H7Y            56.2784092022       41.2837123353        6.2142320494  MEMB      194             0.0000000000
     24148       194  PMPE      C38            55.9946585078       43.3883503604        6.5940347422  MEMB      194             0.0000000000
     24149       194  PMPE      H8X            56.7235770382       43.5039641165        7.4244766044  MEMB      194             0.0000000000
     24150       194  PMPE      H8Y            55.1481680437       44.0261932987        6.9270980776  MEMB      194             0.0000000000
     24151       194  PMPE      C39            56.6521121242       43.9556385558        5.3099644557  MEMB      194             0.0000000000
     24152       194  PMPE      H9X            57.4383323003       43.2294292199        5.0119738346  MEMB      194             0.0000000000
     24153       194  PMPE      H9Y            57.0331883938       44.9517152925        5.6213052765  MEMB      194             0.0000000000
     24154       194  PMPE      C310           55.6954162054       44.2292115567        4.0964476911  MEMB      194             0.0000000000
     24155       194  PMPE      H10X           56.1076116043       45.1446019252        3.6205521645  MEMB      194             0.0000000000
     24156       194  PMPE      H10Y           54.6732173092       44.3778755274        4.5055062740  MEMB      194             0.0000000000
     24157       194  PMPE      C311           55.7205978055       43.0441565811        3.0852714927  MEMB      194             0.0000000000
     24158       194  PMPE      H11X           55.9446089302       42.1226167785        3.6639812727  MEMB      194             0.0000000000
     24159       194  PMPE      H11Y           56.6170623670       43.1683543979        2.4408745720  MEMB      194             0.0000000000
     24160       194  PMPE      C312           54.5735508008       43.0063560047        2.0568696015  MEMB      194             0.0000000000
     24161       194  PMPE      H12X           53.5943466077       42.7615885955        2.5211640271  MEMB      194             0.0000000000
     24162       194  PMPE      H12Y           54.8008848960       42.1296618127        1.4134043831  MEMB      194             0.0000000000
     24163       194  PMPE      C313           54.4505924465       44.2942262828        1.1491556847  MEMB      194             0.0000000000
     24164       194  PMPE      H13X           55.4552837238       44.7047545555        0.9117039321  MEMB      194             0.0000000000
     24165       194  PMPE      H13Y           53.9864958309       45.1137887791        1.7384377746  MEMB      194             0.0000000000
     24166       194  PMPE      C314           53.6237388380       44.0856306573       -0.1800734080  MEMB      194             0.0000000000
     24167       194  PMPE      H14X           52.5677240433       43.9118179715        0.1181598600  MEMB      194             0.0000000000
     24168       194  PMPE      H14Y           53.9269455773       43.1400346398       -0.6783054397  MEMB      194             0.0000000000
     24169       194  PMPE      C315           53.5902801907       45.3561881581       -1.0705534618  MEMB      194             0.0000000000
     24170       194  PMPE      H15X           53.2736339704       46.2397414301       -0.4760870411  MEMB      194             0.0000000000
     24171       194  PMPE      H15Y           52.8571808254       45.0952425471       -1.8635189974  MEMB      194             0.0000000000
     24172       194  PMPE      C316           54.9408865299       45.5039381076       -1.6299428083  MEMB      194             0.0000000000
     24173       194  PMPE      H16X           54.8513113973       46.2599867361       -2.4390699009  MEMB      194             0.0000000000
     24174       194  PMPE      H16Y           55.3613597991       44.5862821017       -2.0940876798  MEMB      194             0.0000000000
     24175       194  PMPE      H16Z           55.5982915135       45.9292302811       -0.8417385436  MEMB      194             0.0000000000
     24176       195  POPE      N             -47.4890817870       54.8015961949       17.2484493679  MEMB      195             0.0000000000
     24177       195  POPE      HN1           -48.1815339780       54.3891285047       17.9057013643  MEMB      195             0.0000000000
     24178       195  POPE      HN2           -47.7853454513       55.7382741829       16.9071837543  MEMB      195             0.0000000000
     24179       195  POPE      HN3           -47.3469609170       54.2460192578       16.3808458904  MEMB      195             0.0000000000
     24180       195  POPE      C12           -46.2455089035       54.8498449571       18.0803374628  MEMB      195             0.0000000000
     24181       195  POPE      H12A          -46.4365339896       55.5554046840       18.9170070271  MEMB      195             0.0000000000
     24182       195  POPE      H12B          -45.4212230448       55.2342451290       17.4422855295  MEMB      195             0.0000000000
     24183       195  POPE      C11           -45.7938492816       53.4232646198       18.4093322850  MEMB      195             0.0000000000
     24184       195  POPE      H11A          -44.7851643886       53.3932646912       18.8740643829  MEMB      195             0.0000000000
     24185       195  POPE      H11B          -45.8238233317       52.8455451642       17.4608267171  MEMB      195             0.0000000000
     24186       195  POPE      P             -46.4082737845       51.3285079546       19.7049579551  MEMB      195             0.0000000000
     24187       195  POPE      O13           -47.6776012777       50.6610632821       19.9889466338  MEMB      195             0.0000000000
     24188       195  POPE      O14           -45.4858817938       51.3631080444       20.9018027979  MEMB      195             0.0000000000
     24189       195  POPE      O11           -45.7597484825       50.6650277110       18.4438915714  MEMB      195             0.0000000000
     24190       195  POPE      O12           -46.6925554894       52.7735200360       19.2222819273  MEMB      195             0.0000000000
     24191       195  POPE      C1            -44.5881690982       49.8258063992       18.4271062951  MEMB      195             0.0000000000
     24192       195  POPE      HA            -44.7873622716       48.8677069199       18.9531182044  MEMB      195             0.0000000000
     24193       195  POPE      HB            -43.7598298398       50.3204227001       18.9780417184  MEMB      195             0.0000000000
     24194       195  POPE      C2            -44.1275151839       49.7363612136       16.9205894822  MEMB      195             0.0000000000
     24195       195  POPE      HS            -43.3265134097       48.9685739561       16.8638434639  MEMB      195             0.0000000000
     24196       195  POPE      O21           -43.5169582726       51.0207641035       16.6585796233  MEMB      195             0.0000000000
     24197       195  POPE      C21           -42.6654570012       51.1297608791       15.5826288930  MEMB      195             0.0000000000
     24198       195  POPE      O22           -42.4285983980       50.2612114554       14.8048406133  MEMB      195             0.0000000000
     24199       195  POPE      C22           -42.1579170489       52.6264819070       15.4124472296  MEMB      195             0.0000000000
     24200       195  POPE      H2R           -41.5075205884       52.7268101136       14.5173271748  MEMB      195             0.0000000000
     24201       195  POPE      H2S           -41.4540297725       52.7936507885       16.2556066940  MEMB      195             0.0000000000
     24202       195  POPE      C3            -45.2241846160       49.4244812605       15.8776253676  MEMB      195             0.0000000000
     24203       195  POPE      HX            -45.5468256894       48.3777749256       16.0637153717  MEMB      195             0.0000000000
     24204       195  POPE      HY            -44.8181153453       49.3337330339       14.8474830028  MEMB      195             0.0000000000
     24205       195  POPE      O31           -46.2451324782       50.4269317199       15.9234712740  MEMB      195             0.0000000000
     24206       195  POPE      C31           -47.5329032830       50.0420972237       15.6161211291  MEMB      195             0.0000000000
     24207       195  POPE      O32           -47.8307347963       48.9377055011       15.2197028669  MEMB      195             0.0000000000
     24208       195  POPE      C32           -48.5035486595       51.2072854044       16.0563393857  MEMB      195             0.0000000000
     24209       195  POPE      H2X           -47.9581146963       52.1175169818       15.7272477707  MEMB      195             0.0000000000
     24210       195  POPE      H2Y           -48.5627425830       51.2644364009       17.1642883218  MEMB      195             0.0000000000
     24211       195  POPE      C23           -43.3877605348       53.5708542419       15.3256843790  MEMB      195             0.0000000000
     24212       195  POPE      H3R           -42.9232479578       54.5283886912       15.6445525187  MEMB      195             0.0000000000
     24213       195  POPE      H3S           -44.2351478449       53.3267199874       16.0014462340  MEMB      195             0.0000000000
     24214       195  POPE      C24           -43.9503648395       53.7526427627       13.9233482716  MEMB      195             0.0000000000
     24215       195  POPE      H4R           -43.1477041359       54.0603773426       13.2195330528  MEMB      195             0.0000000000
     24216       195  POPE      H4S           -44.8307289399       54.4289359065       13.9670246990  MEMB      195             0.0000000000
     24217       195  POPE      C25           -44.6020489485       52.4798416329       13.4218640699  MEMB      195             0.0000000000
     24218       195  POPE      H5R           -45.1723404369       52.1375449176       14.3117641453  MEMB      195             0.0000000000
     24219       195  POPE      H5S           -43.8180533618       51.6958810613       13.3506080148  MEMB      195             0.0000000000
     24220       195  POPE      C26           -45.4475547063       52.6187587682       12.1530234840  MEMB      195             0.0000000000
     24221       195  POPE      H6R           -46.0705577921       53.5385881218       12.1429169857  MEMB      195             0.0000000000
     24222       195  POPE      H6S           -46.1719977226       51.7780148402       12.1015166486  MEMB      195             0.0000000000
     24223       195  POPE      C27           -44.6527358422       52.3041261796       10.7880674255  MEMB      195             0.0000000000
     24224       195  POPE      H7R           -44.3343827280       51.2399327241       10.7665218887  MEMB      195             0.0000000000
     24225       195  POPE      H7S           -43.7022809581       52.8793970355       10.7925214701  MEMB      195             0.0000000000
     24226       195  POPE      C28           -45.5284718631       52.5744101382        9.4684268326  MEMB      195             0.0000000000
     24227       195  POPE      H8R           -45.9473698296       53.6015496924        9.5303130805  MEMB      195             0.0000000000
     24228       195  POPE      H8S           -46.2749320480       51.7516906912        9.4842660573  MEMB      195             0.0000000000
     24229       195  POPE      C29           -44.6636368554       52.3467748005        8.2552452090  MEMB      195             0.0000000000
     24230       195  POPE      H91           -44.2597978065       51.3352593256        8.1011326762  MEMB      195             0.0000000000
     24231       195  POPE      C210          -44.1365609907       53.2914985557        7.4698672882  MEMB      195             0.0000000000
     24232       195  POPE      H101          -43.5451647959       53.0444005912        6.5758910255  MEMB      195             0.0000000000
     24233       195  POPE      C211          -44.3973226585       54.7986697358        7.7030909899  MEMB      195             0.0000000000
     24234       195  POPE      H11R          -43.4365942483       55.3433304693        7.5819852051  MEMB      195             0.0000000000
     24235       195  POPE      H11S          -44.6089307558       55.0213681266        8.7707748512  MEMB      195             0.0000000000
     24236       195  POPE      C212          -45.6004269590       55.4057886508        6.9290056570  MEMB      195             0.0000000000
     24237       195  POPE      H12R          -45.6302466342       56.5155540685        6.9720463597  MEMB      195             0.0000000000
     24238       195  POPE      H12S          -46.5076800277       54.9525940263        7.3826883179  MEMB      195             0.0000000000
     24239       195  POPE      C213          -45.7052880057       55.0664029316        5.3938358755  MEMB      195             0.0000000000
     24240       195  POPE      H13R          -45.8727015089       53.9778821287        5.2474930991  MEMB      195             0.0000000000
     24241       195  POPE      H13S          -44.7875681878       55.2066124443        4.7835465162  MEMB      195             0.0000000000
     24242       195  POPE      C214          -46.9417525771       55.8625178576        4.6773190556  MEMB      195             0.0000000000
     24243       195  POPE      H14R          -46.9658649477       55.6052471688        3.5967865249  MEMB      195             0.0000000000
     24244       195  POPE      H14S          -46.6004487793       56.9197739033        4.6708069385  MEMB      195             0.0000000000
     24245       195  POPE      C215          -48.2975943121       55.6459662232        5.2792914215  MEMB      195             0.0000000000
     24246       195  POPE      H15R          -48.2099399112       55.9237797197        6.3514186645  MEMB      195             0.0000000000
     24247       195  POPE      H15S          -48.5815632566       54.5730918796        5.2280724647  MEMB      195             0.0000000000
     24248       195  POPE      C216          -49.5532672217       56.4040660268        4.7080048027  MEMB      195             0.0000000000
     24249       195  POPE      H16R          -49.6478780999       57.4365313153        5.1072350365  MEMB      195             0.0000000000
     24250       195  POPE      H16S          -50.4926338650       55.8553612359        4.9334701322  MEMB      195             0.0000000000
     24251       195  POPE      C217          -49.4748104019       56.6344089309        3.1912525636  MEMB      195             0.0000000000
     24252       195  POPE      H17R          -49.5334363910       55.6670191104        2.6480757328  MEMB      195             0.0000000000
     24253       195  POPE      H17S          -48.5154200616       57.1651775583        3.0118762963  MEMB      195             0.0000000000
     24254       195  POPE      C218          -50.4628753873       57.5275964680        2.4306063418  MEMB      195             0.0000000000
     24255       195  POPE      H18R          -50.1648958298       58.5660586880        2.6896907992  MEMB      195             0.0000000000
     24256       195  POPE      H18S          -51.4801016086       57.2327237478        2.7661988024  MEMB      195             0.0000000000
     24257       195  POPE      H18T          -50.3386912627       57.3795198405        1.3365440206  MEMB      195             0.0000000000
     24258       195  POPE      C33           -49.9798181682       50.9249379507       15.4772933343  MEMB      195             0.0000000000
     24259       195  POPE      H3X           -50.7069869748       51.0131686699       16.3126144737  MEMB      195             0.0000000000
     24260       195  POPE      H3Y           -50.0886307780       49.8322521157       15.3084191524  MEMB      195             0.0000000000
     24261       195  POPE      C34           -50.4175182581       51.6716535077       14.2913969186  MEMB      195             0.0000000000
     24262       195  POPE      H4X           -50.3195970082       52.7698419190       14.4281974178  MEMB      195             0.0000000000
     24263       195  POPE      H4Y           -51.5102077302       51.5049561948       14.1793138732  MEMB      195             0.0000000000
     24264       195  POPE      C35           -49.5409125508       51.3013137478       13.0276039678  MEMB      195             0.0000000000
     24265       195  POPE      H5X           -49.6646143081       50.2268647817       12.7734814382  MEMB      195             0.0000000000
     24266       195  POPE      H5Y           -48.4702049222       51.5447394041       13.1968670883  MEMB      195             0.0000000000
     24267       195  POPE      C36           -50.1002400991       52.1936536180       11.8671517387  MEMB      195             0.0000000000
     24268       195  POPE      H6X           -50.0675140467       53.2626330215       12.1680393721  MEMB      195             0.0000000000
     24269       195  POPE      H6Y           -51.1261884845       51.8173044480       11.6668728057  MEMB      195             0.0000000000
     24270       195  POPE      C37           -49.4042322170       52.0166314118       10.4890354224  MEMB      195             0.0000000000
     24271       195  POPE      H7X           -49.4651469044       50.9348806717       10.2432184558  MEMB      195             0.0000000000
     24272       195  POPE      H7Y           -48.3326477011       52.3098605815       10.4956943834  MEMB      195             0.0000000000
     24273       195  POPE      C38           -50.1048427389       52.9452279188        9.4118960588  MEMB      195             0.0000000000
     24274       195  POPE      H8X           -50.0848592440       54.0126854035        9.7192334245  MEMB      195             0.0000000000
     24275       195  POPE      H8Y           -51.1483429295       52.5741760683        9.3238677853  MEMB      195             0.0000000000
     24276       195  POPE      C39           -49.3750432919       52.8555299466        8.1250427398  MEMB      195             0.0000000000
     24277       195  POPE      H9X           -48.3045305419       53.1033012987        8.2891546393  MEMB      195             0.0000000000
     24278       195  POPE      H9Y           -49.7588620928       53.4239184470        7.2510067676  MEMB      195             0.0000000000
     24279       195  POPE      C310          -49.3704128515       51.4104262096        7.5693252342  MEMB      195             0.0000000000
     24280       195  POPE      H10X          -50.4394502310       51.1080815832        7.5775298331  MEMB      195             0.0000000000
     24281       195  POPE      H10Y          -48.8334536713       50.6693131798        8.1992040980  MEMB      195             0.0000000000
     24282       195  POPE      C311          -48.8159192312       51.2854365274        6.1580076238  MEMB      195             0.0000000000
     24283       195  POPE      H11X          -49.3472252037       51.9278759102        5.4236325656  MEMB      195             0.0000000000
     24284       195  POPE      H11Y          -49.0908774730       50.2861038488        5.7579415052  MEMB      195             0.0000000000
     24285       195  POPE      C312          -47.3063927709       51.3485070368        6.0353976224  MEMB      195             0.0000000000
     24286       195  POPE      H12X          -46.8781908397       50.8062051697        6.9053819669  MEMB      195             0.0000000000
     24287       195  POPE      H12Y          -46.8938214677       52.3765293727        6.1206970340  MEMB      195             0.0000000000
     24288       195  POPE      C313          -46.7103721600       50.6979060018        4.7836706642  MEMB      195             0.0000000000
     24289       195  POPE      H13X          -47.2397537338       49.7227764617        4.7271160511  MEMB      195             0.0000000000
     24290       195  POPE      H13Y          -45.6172330289       50.5540697575        4.9203408436  MEMB      195             0.0000000000
     24291       195  POPE      C314          -47.1194422713       51.4172523648        3.5341684970  MEMB      195             0.0000000000
     24292       195  POPE      H14X          -46.5058327766       52.3395483549        3.4494660520  MEMB      195             0.0000000000
     24293       195  POPE      H14Y          -48.1420595769       51.8182443338        3.7008427520  MEMB      195             0.0000000000
     24294       195  POPE      C315          -46.9948821122       50.6223759992        2.1931825578  MEMB      195             0.0000000000
     24295       195  POPE      H15X          -47.1047227909       51.3612417569        1.3707884610  MEMB      195             0.0000000000
     24296       195  POPE      H15Y          -47.8590410940       49.9336247653        2.0784134257  MEMB      195             0.0000000000
     24297       195  POPE      C316          -45.6276662188       49.9519365840        2.0962181394  MEMB      195             0.0000000000
     24298       195  POPE      H16X          -45.5287288379       49.0209434458        2.6943678954  MEMB      195             0.0000000000
     24299       195  POPE      H16Y          -44.8803961849       50.6588574475        2.5159461076  MEMB      195             0.0000000000
     24300       195  POPE      H16Z          -45.3450785263       49.7049725423        1.0505257876  MEMB      195             0.0000000000
     24301       196  PMPE      N              50.0715936899       51.3051019575       21.5001664778  MEMB      196             0.0000000000
     24302       196  PMPE      HN1            50.9401126441       51.8769733356       21.5155897058  MEMB      196             0.0000000000
     24303       196  PMPE      HN2            49.9102739105       50.8803595145       22.4356715945  MEMB      196             0.0000000000
     24304       196  PMPE      HN3            50.1159429312       50.4800432968       20.8685722299  MEMB      196             0.0000000000
     24305       196  PMPE      C12            49.0566704029       52.3312905799       21.2951316148  MEMB      196             0.0000000000
     24306       196  PMPE      H12A           49.1184903285       53.1743714849       22.0160433611  MEMB      196             0.0000000000
     24307       196  PMPE      H12B           48.0952070771       51.7838859927       21.3964105441  MEMB      196             0.0000000000
     24308       196  PMPE      C11            49.0075607764       52.7863751681       19.8317331312  MEMB      196             0.0000000000
     24309       196  PMPE      H11A           49.9901987599       53.2246785223       19.5549050258  MEMB      196             0.0000000000
     24310       196  PMPE      H11B           48.1594774728       53.4819175416       19.6548247922  MEMB      196             0.0000000000
     24311       196  PMPE      P              49.4873104156       51.2966559232       17.8487455398  MEMB      196             0.0000000000
     24312       196  PMPE      O13            48.9391411087       50.1073775552       17.0992657213  MEMB      196             0.0000000000
     24313       196  PMPE      O14            50.8917217200       51.2388857253       18.3075929028  MEMB      196             0.0000000000
     24314       196  PMPE      O11            49.1629800717       52.6293118387       17.0814628298  MEMB      196             0.0000000000
     24315       196  PMPE      O12            48.5984074110       51.6592556507       19.0359017842  MEMB      196             0.0000000000
     24316       196  PMPE      C1             47.9658953457       52.7688865034       16.3689114217  MEMB      196             0.0000000000
     24317       196  PMPE      HA             47.4643489631       53.7571618390       16.4469116368  MEMB      196             0.0000000000
     24318       196  PMPE      HB             47.2535839465       51.9879468427       16.7110616083  MEMB      196             0.0000000000
     24319       196  PMPE      C2             48.1758865084       52.4527686626       14.8596728591  MEMB      196             0.0000000000
     24320       196  PMPE      HS             48.2241281428       51.3498163233       14.7352148597  MEMB      196             0.0000000000
     24321       196  PMPE      O21            49.2723477098       53.2819847770       14.3666327537  MEMB      196             0.0000000000
     24322       196  PMPE      C21            50.4385748587       52.6893487851       14.2798056851  MEMB      196             0.0000000000
     24323       196  PMPE      O22            50.6731174704       51.5561531810       14.6402992291  MEMB      196             0.0000000000
     24324       196  PMPE      C22            51.4553763250       53.6966284446       13.9276325318  MEMB      196             0.0000000000
     24325       196  PMPE      H2R            51.9665782365       53.9913819296       14.8689687394  MEMB      196             0.0000000000
     24326       196  PMPE      H2S            51.0477819836       54.6396463185       13.5046607419  MEMB      196             0.0000000000
     24327       196  PMPE      C3             46.9043238874       52.7521428915       14.0307910240  MEMB      196             0.0000000000
     24328       196  PMPE      HX             46.7544957216       53.8206244561       13.7658014498  MEMB      196             0.0000000000
     24329       196  PMPE      HY             46.0315636958       52.5125287836       14.6751479362  MEMB      196             0.0000000000
     24330       196  PMPE      O31            46.8904690233       51.8445905663       12.9086747967  MEMB      196             0.0000000000
     24331       196  PMPE      C31            47.5683415801       52.4291112302       11.8467172532  MEMB      196             0.0000000000
     24332       196  PMPE      O32            48.2564144126       53.4115747212       11.9135771996  MEMB      196             0.0000000000
     24333       196  PMPE      C32            46.9665372590       51.7913235876       10.6438944062  MEMB      196             0.0000000000
     24334       196  PMPE      H2X            46.3288229069       52.6000479377       10.2272336117  MEMB      196             0.0000000000
     24335       196  PMPE      H2Y            46.4507433186       50.8636293242       10.9720119670  MEMB      196             0.0000000000
     24336       196  PMPE      C23            52.5546268412       53.1179221970       13.0604759782  MEMB      196             0.0000000000
     24337       196  PMPE      H3R            53.0398336660       52.2585824844       13.5707999594  MEMB      196             0.0000000000
     24338       196  PMPE      H3S            53.3916580189       53.8126236602       12.8344465019  MEMB      196             0.0000000000
     24339       196  PMPE      C24            52.1129382109       52.7596166082       11.6119159579  MEMB      196             0.0000000000
     24340       196  PMPE      H4R            51.7934610377       53.7154105559       11.1442484280  MEMB      196             0.0000000000
     24341       196  PMPE      H4S            51.2551063075       52.0565525989       11.5475220227  MEMB      196             0.0000000000
     24342       196  PMPE      C25            53.3167309159       52.1778219861       10.7869681050  MEMB      196             0.0000000000
     24343       196  PMPE      H5R            53.7081117877       51.1967101860       11.1312961362  MEMB      196             0.0000000000
     24344       196  PMPE      H5S            54.1463822698       52.8701358818       11.0452339308  MEMB      196             0.0000000000
     24345       196  PMPE      C26            53.1374852111       51.9749034455        9.2481674537  MEMB      196             0.0000000000
     24346       196  PMPE      H6R            54.1279984197       51.7607316992        8.7928269012  MEMB      196             0.0000000000
     24347       196  PMPE      H6S            52.7323812965       52.8867419438        8.7595348444  MEMB      196             0.0000000000
     24348       196  PMPE      C27            52.2051080538       50.7793579936        8.9518096414  MEMB      196             0.0000000000
     24349       196  PMPE      H7R            51.2961211048       50.8652544723        9.5848068473  MEMB      196             0.0000000000
     24350       196  PMPE      H7S            52.7873463806       49.8593734067        9.1730509652  MEMB      196             0.0000000000
     24351       196  PMPE      C28            51.7465932498       50.7258402086        7.4797530436  MEMB      196             0.0000000000
     24352       196  PMPE      H8R            52.6536368873       50.6893689392        6.8392349848  MEMB      196             0.0000000000
     24353       196  PMPE      H8S            51.1410256289       51.6259017448        7.2399653748  MEMB      196             0.0000000000
     24354       196  PMPE      C29            50.9375995033       49.4181257160        7.2943841672  MEMB      196             0.0000000000
     24355       196  PMPE      H9R            49.9891921506       49.3713059184        7.8711447190  MEMB      196             0.0000000000
     24356       196  PMPE      C217           51.7257276842       48.1532856095        6.8764821397  MEMB      196             0.0000000000
     24357       196  PMPE      H17R           51.3010901939       47.2736678711        7.3442900963  MEMB      196             0.0000000000
     24358       196  PMPE      H17S           52.7677966324       48.3656198178        6.6717985195  MEMB      196             0.0000000000
     24359       196  PMPE      C210           50.8101497015       48.8129744307        5.8693922198  MEMB      196             0.0000000000
     24360       196  PMPE      H10R           49.8065980945       48.4186490625        5.6015998384  MEMB      196             0.0000000000
     24361       196  PMPE      C211           51.5676551434       49.3793022040        4.6806729887  MEMB      196             0.0000000000
     24362       196  PMPE      H11R           51.7969001082       48.7092429595        3.8246426077  MEMB      196             0.0000000000
     24363       196  PMPE      H11S           52.6346350062       49.6541451579        4.8232790169  MEMB      196             0.0000000000
     24364       196  PMPE      C212           50.8787349221       50.6268562290        4.1166341158  MEMB      196             0.0000000000
     24365       196  PMPE      H12R           51.4790725534       50.9759103804        3.2494106130  MEMB      196             0.0000000000
     24366       196  PMPE      H12S           50.9224434497       51.5143024431        4.7836045685  MEMB      196             0.0000000000
     24367       196  PMPE      C213           49.4840075121       50.3952807521        3.4682271115  MEMB      196             0.0000000000
     24368       196  PMPE      H13R           48.7497438930       50.8112729481        4.1908122387  MEMB      196             0.0000000000
     24369       196  PMPE      H13S           49.3702163494       49.2923574068        3.3979946806  MEMB      196             0.0000000000
     24370       196  PMPE      C214           49.3562751513       51.0982621877        1.9914819300  MEMB      196             0.0000000000
     24371       196  PMPE      H14R           50.1003154570       50.6104821934        1.3260536828  MEMB      196             0.0000000000
     24372       196  PMPE      H14S           49.4810047998       52.2012406195        2.0384110248  MEMB      196             0.0000000000
     24373       196  PMPE      C215           47.9258031395       50.8832418324        1.4475744268  MEMB      196             0.0000000000
     24374       196  PMPE      H15R           47.6345140672       49.8763817267        1.8159560223  MEMB      196             0.0000000000
     24375       196  PMPE      H15S           47.7575104609       50.9354331190        0.3506354700  MEMB      196             0.0000000000
     24376       196  PMPE      C216           46.9049602234       51.8614900278        2.0117618756  MEMB      196             0.0000000000
     24377       196  PMPE      H16R           45.8594243044       51.5091870236        1.8811574534  MEMB      196             0.0000000000
     24378       196  PMPE      H16S           47.1467929242       51.9637089433        3.0912930630  MEMB      196             0.0000000000
     24379       196  PMPE      H16T           47.0778940369       52.7853100609        1.4193325809  MEMB      196             0.0000000000
     24380       196  PMPE      C33            48.1313561369       51.3300837038        9.7316580572  MEMB      196             0.0000000000
     24381       196  PMPE      H3X            48.7572345487       50.6494596106       10.3475703457  MEMB      196             0.0000000000
     24382       196  PMPE      H3Y            48.8021551968       52.1591722478        9.4202718288  MEMB      196             0.0000000000
     24383       196  PMPE      C34            47.5035709630       50.6072587008        8.5287012988  MEMB      196             0.0000000000
     24384       196  PMPE      H4X            46.3946294010       50.5402773077        8.5378406054  MEMB      196             0.0000000000
     24385       196  PMPE      H4Y            47.9797940948       49.6164013477        8.3682825067  MEMB      196             0.0000000000
     24386       196  PMPE      C35            47.8367377414       51.3391569377        7.1789563547  MEMB      196             0.0000000000
     24387       196  PMPE      H5X            47.4412673058       50.6199122367        6.4302165560  MEMB      196             0.0000000000
     24388       196  PMPE      H5Y            48.9279244294       51.4789475122        7.0237420312  MEMB      196             0.0000000000
     24389       196  PMPE      C36            47.1404253626       52.6789985847        7.0181453661  MEMB      196             0.0000000000
     24390       196  PMPE      H6X            46.9707012366       53.0403453218        8.0549395561  MEMB      196             0.0000000000
     24391       196  PMPE      H6Y            46.0962122321       52.5030368200        6.6820232964  MEMB      196             0.0000000000
     24392       196  PMPE      C37            47.9292943905       53.7471090065        6.1207044062  MEMB      196             0.0000000000
     24393       196  PMPE      H7X            47.1565601989       54.4789404938        5.8019164461  MEMB      196             0.0000000000
     24394       196  PMPE      H7Y            48.2442951761       53.2490638076        5.1788725102  MEMB      196             0.0000000000
     24395       196  PMPE      C38            49.1193172357       54.4213700066        6.7791307174  MEMB      196             0.0000000000
     24396       196  PMPE      H8X            49.7105777924       53.5862382457        7.2118968593  MEMB      196             0.0000000000
     24397       196  PMPE      H8Y            48.7664455427       55.0334904440        7.6365163974  MEMB      196             0.0000000000
     24398       196  PMPE      C39            49.9875503171       55.2996025281        5.8459018333  MEMB      196             0.0000000000
     24399       196  PMPE      H9X            50.6417961928       55.8298442963        6.5705579448  MEMB      196             0.0000000000
     24400       196  PMPE      H9Y            49.3088645048       56.0349868646        5.3632874788  MEMB      196             0.0000000000
     24401       196  PMPE      C310           50.8029278195       54.5375376335        4.7424231047  MEMB      196             0.0000000000
     24402       196  PMPE      H10X           50.1683771579       53.9157478371        4.0753064867  MEMB      196             0.0000000000
     24403       196  PMPE      H10Y           51.4905745432       53.7736769779        5.1642994006  MEMB      196             0.0000000000
     24404       196  PMPE      C311           51.5655560127       55.5364719048        3.8207032186  MEMB      196             0.0000000000
     24405       196  PMPE      H11X           52.1802524467       56.1569789779        4.5073187668  MEMB      196             0.0000000000
     24406       196  PMPE      H11Y           50.8535206613       56.2489209278        3.3519358597  MEMB      196             0.0000000000
     24407       196  PMPE      C312           52.4292054640       54.9952690703        2.7211931750  MEMB      196             0.0000000000
     24408       196  PMPE      H12X           53.2357510305       54.3173601439        3.0736770740  MEMB      196             0.0000000000
     24409       196  PMPE      H12Y           52.9306768234       55.8788634816        2.2716270641  MEMB      196             0.0000000000
     24410       196  PMPE      C313           51.7312854410       54.2002053012        1.6419032416  MEMB      196             0.0000000000
     24411       196  PMPE      H13X           50.9183669855       54.8490761633        1.2514535568  MEMB      196             0.0000000000
     24412       196  PMPE      H13Y           51.1118638395       53.3737819731        2.0513685706  MEMB      196             0.0000000000
     24413       196  PMPE      C314           52.6421729768       53.8141591628        0.5059209321  MEMB      196             0.0000000000
     24414       196  PMPE      H14X           53.6395912928       53.4865608079        0.8694543488  MEMB      196             0.0000000000
     24415       196  PMPE      H14Y           52.8725129191       54.7316946126       -0.0766551939  MEMB      196             0.0000000000
     24416       196  PMPE      C315           51.9942796714       52.8221369573       -0.4618441965  MEMB      196             0.0000000000
     24417       196  PMPE      H15X           50.8883597668       52.9260822210       -0.4832338706  MEMB      196             0.0000000000
     24418       196  PMPE      H15Y           52.2748315311       51.8132680697       -0.0906371334  MEMB      196             0.0000000000
     24419       196  PMPE      C316           52.5736548934       52.9029170213       -1.8210423086  MEMB      196             0.0000000000
     24420       196  PMPE      H16X           51.9365078589       52.4192796561       -2.5920546249  MEMB      196             0.0000000000
     24421       196  PMPE      H16Y           53.6339013798       52.5713015506       -1.8361924694  MEMB      196             0.0000000000
     24422       196  PMPE      H16Z           52.6234625653       53.9717847555       -2.1199767224  MEMB      196             0.0000000000
     24423       197  POPE      N             -55.2494827078      -48.7174529306       19.6519506423  MEMB      197             0.0000000000
     24424       197  POPE      HN1           -56.0985316691      -48.5140456708       20.2170534843  MEMB      197             0.0000000000
     24425       197  POPE      HN2           -55.5806388884      -48.7275530527       18.6661344834  MEMB      197             0.0000000000
     24426       197  POPE      HN3           -54.9742241759      -49.6755380442       19.9484393646  MEMB      197             0.0000000000
     24427       197  POPE      C12           -54.1141285162      -47.7045722271       19.9403054935  MEMB      197             0.0000000000
     24428       197  POPE      H12A          -53.1730166457      -48.1405607064       19.5421303557  MEMB      197             0.0000000000
     24429       197  POPE      H12B          -54.0949725334      -47.5348769404       21.0381021028  MEMB      197             0.0000000000
     24430       197  POPE      C11           -54.3927732603      -46.3010515580       19.2647775365  MEMB      197             0.0000000000
     24431       197  POPE      H11A          -54.2775615153      -46.4927597821       18.1765242571  MEMB      197             0.0000000000
     24432       197  POPE      H11B          -53.5606956104      -45.6316295304       19.5711138445  MEMB      197             0.0000000000
     24433       197  POPE      P             -56.0282581404      -44.4269623053       18.6493359062  MEMB      197             0.0000000000
     24434       197  POPE      O13           -54.8643049011      -43.9023257659       17.9263377329  MEMB      197             0.0000000000
     24435       197  POPE      O14           -56.8092919370      -43.4724575106       19.5357159008  MEMB      197             0.0000000000
     24436       197  POPE      O11           -57.0764908040      -44.9574728559       17.4896075096  MEMB      197             0.0000000000
     24437       197  POPE      O12           -55.6486305144      -45.6958624311       19.5419692565  MEMB      197             0.0000000000
     24438       197  POPE      C1            -56.4948416153      -46.0152698056       16.6922726327  MEMB      197             0.0000000000
     24439       197  POPE      HA            -56.5373635347      -46.9728616410       17.2539938168  MEMB      197             0.0000000000
     24440       197  POPE      HB            -55.4387751073      -45.8352804210       16.3979116768  MEMB      197             0.0000000000
     24441       197  POPE      C2            -57.3758452866      -46.2566650067       15.4052743253  MEMB      197             0.0000000000
     24442       197  POPE      HS            -56.8331026950      -46.8174642729       14.6145429618  MEMB      197             0.0000000000
     24443       197  POPE      O21           -57.9627571777      -45.1217406567       14.8023868259  MEMB      197             0.0000000000
     24444       197  POPE      C21           -57.1366042848      -44.2179430753       14.3457638069  MEMB      197             0.0000000000
     24445       197  POPE      O22           -55.9249496922      -44.2271710031       14.3573938624  MEMB      197             0.0000000000
     24446       197  POPE      C22           -58.0313633020      -42.9637385167       13.9157543637  MEMB      197             0.0000000000
     24447       197  POPE      H2R           -57.3681864462      -42.0833022532       14.0548561201  MEMB      197             0.0000000000
     24448       197  POPE      H2S           -58.9107143568      -42.8300977822       14.5814893458  MEMB      197             0.0000000000
     24449       197  POPE      C3            -58.5046198909      -47.2184073038       15.7302452317  MEMB      197             0.0000000000
     24450       197  POPE      HX            -59.1558190276      -46.9972048360       16.6027876174  MEMB      197             0.0000000000
     24451       197  POPE      HY            -58.1171874568      -48.2399434520       15.9319403485  MEMB      197             0.0000000000
     24452       197  POPE      O31           -59.3749290004      -47.3125376442       14.6211655679  MEMB      197             0.0000000000
     24453       197  POPE      C31           -60.1661321779      -48.3794229825       14.5163281769  MEMB      197             0.0000000000
     24454       197  POPE      O32           -60.3146794025      -49.2105065541       15.4207300068  MEMB      197             0.0000000000
     24455       197  POPE      C32           -61.0021808045      -48.4619998579       13.2644939612  MEMB      197             0.0000000000
     24456       197  POPE      H2X           -61.7907328731      -47.6886287313       13.1444800938  MEMB      197             0.0000000000
     24457       197  POPE      H2Y           -61.3883986043      -49.5020847463       13.2063562704  MEMB      197             0.0000000000
     24458       197  POPE      C23           -58.5343705951      -43.0480707715       12.5560210941  MEMB      197             0.0000000000
     24459       197  POPE      H3R           -57.7169620009      -43.3601367629       11.8713466902  MEMB      197             0.0000000000
     24460       197  POPE      H3S           -58.9768668375      -42.0705331008       12.2680313408  MEMB      197             0.0000000000
     24461       197  POPE      C24           -59.6901801855      -44.0360268447       12.3129253823  MEMB      197             0.0000000000
     24462       197  POPE      H4R           -60.6215495648      -43.5960593020       12.7292197560  MEMB      197             0.0000000000
     24463       197  POPE      H4S           -59.6012904461      -44.9758950872       12.8986448386  MEMB      197             0.0000000000
     24464       197  POPE      C25           -59.9236932517      -44.4401773699       10.9328716331  MEMB      197             0.0000000000
     24465       197  POPE      H5R           -60.6485016290      -45.2745283748       11.0461500860  MEMB      197             0.0000000000
     24466       197  POPE      H5S           -59.0914773429      -44.8840664847       10.3457595449  MEMB      197             0.0000000000
     24467       197  POPE      C26           -60.6650750557      -43.3521407445       10.1162988728  MEMB      197             0.0000000000
     24468       197  POPE      H6R           -60.2415485391      -42.3281389779       10.1960900889  MEMB      197             0.0000000000
     24469       197  POPE      H6S           -61.6290776449      -43.1371888778       10.6250381752  MEMB      197             0.0000000000
     24470       197  POPE      C27           -60.8450592054      -43.6976713069        8.6135263162  MEMB      197             0.0000000000
     24471       197  POPE      H7R           -61.5489401976      -42.9309932710        8.2248391072  MEMB      197             0.0000000000
     24472       197  POPE      H7S           -61.4065621054      -44.6545046692        8.6727342970  MEMB      197             0.0000000000
     24473       197  POPE      C28           -59.6504040427      -43.7926527465        7.6850421242  MEMB      197             0.0000000000
     24474       197  POPE      H8R           -59.9529875992      -44.5050147512        6.8879830951  MEMB      197             0.0000000000
     24475       197  POPE      H8S           -58.8364955508      -44.1840471795        8.3321006391  MEMB      197             0.0000000000
     24476       197  POPE      C29           -59.2201443314      -42.4280627117        7.2485082726  MEMB      197             0.0000000000
     24477       197  POPE      H91           -59.1966404971      -41.8251749196        8.1682774166  MEMB      197             0.0000000000
     24478       197  POPE      C210          -58.9289316862      -41.8968686996        6.0205065314  MEMB      197             0.0000000000
     24479       197  POPE      H101          -58.4546987610      -40.9222953837        5.8325975903  MEMB      197             0.0000000000
     24480       197  POPE      C211          -58.9904455871      -42.5842647252        4.7191146336  MEMB      197             0.0000000000
     24481       197  POPE      H11R          -58.6138287323      -43.6233892538        4.8318132472  MEMB      197             0.0000000000
     24482       197  POPE      H11S          -58.2774326645      -42.0229504219        4.0781311910  MEMB      197             0.0000000000
     24483       197  POPE      C212          -60.4243725848      -42.7713753586        4.0733685169  MEMB      197             0.0000000000
     24484       197  POPE      H12R          -60.7740485351      -41.7839639805        3.7031447004  MEMB      197             0.0000000000
     24485       197  POPE      H12S          -61.2089836680      -43.0530905429        4.8077687065  MEMB      197             0.0000000000
     24486       197  POPE      C213          -60.4204934742      -43.7057409324        2.8432006782  MEMB      197             0.0000000000
     24487       197  POPE      H13R          -59.9760813110      -44.6319442042        3.2662443935  MEMB      197             0.0000000000
     24488       197  POPE      H13S          -59.7576103603      -43.2961181754        2.0512943990  MEMB      197             0.0000000000
     24489       197  POPE      C214          -61.7967143690      -44.0763531285        2.1914273197  MEMB      197             0.0000000000
     24490       197  POPE      H14R          -62.1763963244      -43.0957725598        1.8327830394  MEMB      197             0.0000000000
     24491       197  POPE      H14S          -62.4846601488      -44.4638350136        2.9730342740  MEMB      197             0.0000000000
     24492       197  POPE      C215          -61.8195638823      -45.1408064109        1.1175700434  MEMB      197             0.0000000000
     24493       197  POPE      H15R          -61.2945949923      -45.9928266942        1.6000532284  MEMB      197             0.0000000000
     24494       197  POPE      H15S          -61.1594942569      -44.7882730684        0.2963819214  MEMB      197             0.0000000000
     24495       197  POPE      C216          -63.1166575182      -45.4698831863        0.4690788101  MEMB      197             0.0000000000
     24496       197  POPE      H16R          -63.4362422817      -44.6274579418       -0.1809257501  MEMB      197             0.0000000000
     24497       197  POPE      H16S          -63.8818009679      -45.6626067005        1.2512131019  MEMB      197             0.0000000000
     24498       197  POPE      C217          -62.9440252135      -46.6982718484       -0.4315325940  MEMB      197             0.0000000000
     24499       197  POPE      H17R          -62.6643202767      -47.6271859296        0.1099497764  MEMB      197             0.0000000000
     24500       197  POPE      H17S          -62.1260738707      -46.5961481744       -1.1764136362  MEMB      197             0.0000000000
     24501       197  POPE      C218          -64.2461786817      -47.0543384655       -1.1857129157  MEMB      197             0.0000000000
     24502       197  POPE      H18R          -64.6321938544      -46.4468320295       -2.0320276573  MEMB      197             0.0000000000
     24503       197  POPE      H18S          -65.0820706651      -47.1383638282       -0.4587005641  MEMB      197             0.0000000000
     24504       197  POPE      H18T          -64.1059396436      -48.0523187377       -1.6533553497  MEMB      197             0.0000000000
     24505       197  POPE      C33           -60.2512216485      -48.1217059829       11.9876192497  MEMB      197             0.0000000000
     24506       197  POPE      H3X           -59.3321370152      -48.7409896106       11.9095673677  MEMB      197             0.0000000000
     24507       197  POPE      H3Y           -59.9297262417      -47.0582693254       11.9796113145  MEMB      197             0.0000000000
     24508       197  POPE      C34           -60.9449235787      -48.5657690986       10.7151239207  MEMB      197             0.0000000000
     24509       197  POPE      H4X           -61.8102220343      -47.8779757671       10.6032316389  MEMB      197             0.0000000000
     24510       197  POPE      H4Y           -61.4906468977      -49.5114814670       10.9203919492  MEMB      197             0.0000000000
     24511       197  POPE      C35           -60.1095767701      -48.4346363414        9.4349382181  MEMB      197             0.0000000000
     24512       197  POPE      H5X           -59.2191786239      -49.0918287695        9.5329700436  MEMB      197             0.0000000000
     24513       197  POPE      H5Y           -59.8126953106      -47.3730714369        9.2961492785  MEMB      197             0.0000000000
     24514       197  POPE      C36           -60.7860332127      -48.6319124028        8.0668594635  MEMB      197             0.0000000000
     24515       197  POPE      H6X           -61.5322956737      -49.4429072154        8.2072205755  MEMB      197             0.0000000000
     24516       197  POPE      H6Y           -59.9551347567      -49.0056207561        7.4310372515  MEMB      197             0.0000000000
     24517       197  POPE      C37           -61.3271817841      -47.3699188880        7.4351601145  MEMB      197             0.0000000000
     24518       197  POPE      H7X           -60.5636703348      -46.5665592900        7.3577994375  MEMB      197             0.0000000000
     24519       197  POPE      H7Y           -62.2154353024      -47.1198223630        8.0538509598  MEMB      197             0.0000000000
     24520       197  POPE      C38           -61.8090392420      -47.4912613102        6.0066449020  MEMB      197             0.0000000000
     24521       197  POPE      H8X           -62.0027595770      -46.4919654502        5.5614468005  MEMB      197             0.0000000000
     24522       197  POPE      H8Y           -62.7258050792      -48.1181802801        5.9777501392  MEMB      197             0.0000000000
     24523       197  POPE      C39           -60.8884263143      -48.2465241731        4.9623514182  MEMB      197             0.0000000000
     24524       197  POPE      H9X           -61.3942216618      -48.2544475274        3.9731956742  MEMB      197             0.0000000000
     24525       197  POPE      H9Y           -60.7466908554      -49.3238228774        5.1939970392  MEMB      197             0.0000000000
     24526       197  POPE      C310          -59.4521172362      -47.6309616689        4.7456789320  MEMB      197             0.0000000000
     24527       197  POPE      H10X          -58.8241108343      -47.9211933211        5.6149862803  MEMB      197             0.0000000000
     24528       197  POPE      H10Y          -59.7048738540      -46.5684932857        4.5417287990  MEMB      197             0.0000000000
     24529       197  POPE      C311          -58.7359539687      -48.2049306918        3.4750729021  MEMB      197             0.0000000000
     24530       197  POPE      H11X          -59.3928558162      -48.0996216879        2.5852901743  MEMB      197             0.0000000000
     24531       197  POPE      H11Y          -58.7614032802      -49.2776651397        3.7630201886  MEMB      197             0.0000000000
     24532       197  POPE      C312          -57.3718657695      -47.6303475454        3.1808340399  MEMB      197             0.0000000000
     24533       197  POPE      H12X          -56.7933244189      -48.2240333174        2.4411392237  MEMB      197             0.0000000000
     24534       197  POPE      H12Y          -56.8005280051      -47.9016588042        4.0942250855  MEMB      197             0.0000000000
     24535       197  POPE      C313          -57.4160448666      -46.1523222239        2.7650977437  MEMB      197             0.0000000000
     24536       197  POPE      H13X          -57.1973773818      -45.4766788678        3.6195043353  MEMB      197             0.0000000000
     24537       197  POPE      H13Y          -58.4624709426      -45.9353384697        2.4614006209  MEMB      197             0.0000000000
     24538       197  POPE      C314          -56.4976959361      -45.8623684597        1.5325592767  MEMB      197             0.0000000000
     24539       197  POPE      H14X          -56.7642465574      -46.5478427075        0.6998553330  MEMB      197             0.0000000000
     24540       197  POPE      H14Y          -55.4002137817      -45.9182396828        1.6960585341  MEMB      197             0.0000000000
     24541       197  POPE      C315          -56.8776012279      -44.4011023786        1.0201374352  MEMB      197             0.0000000000
     24542       197  POPE      H15X          -57.9746432839      -44.2478995774        0.9344163226  MEMB      197             0.0000000000
     24543       197  POPE      H15Y          -56.3756879709      -44.2750839158        0.0370187335  MEMB      197             0.0000000000
     24544       197  POPE      C316          -56.3487277502      -43.2835257994        1.8867883797  MEMB      197             0.0000000000
     24545       197  POPE      H16X          -56.9231669687      -43.2480397773        2.8370939236  MEMB      197             0.0000000000
     24546       197  POPE      H16Y          -56.3745578527      -42.2784659419        1.4140202579  MEMB      197             0.0000000000
     24547       197  POPE      H16Z          -55.3092044248      -43.3918737952        2.2635799291  MEMB      197             0.0000000000
     24548       198  POPE      N             -49.6855839061      -53.2273248274       21.6224700937  MEMB      198             0.0000000000
     24549       198  POPE      HN1           -48.8506903308      -52.6118167652       21.5469546331  MEMB      198             0.0000000000
     24550       198  POPE      HN2           -50.5481400261      -52.6540645907       21.5277625243  MEMB      198             0.0000000000
     24551       198  POPE      HN3           -49.6861788014      -53.7559940223       22.5180753382  MEMB      198             0.0000000000
     24552       198  POPE      C12           -49.6417722866      -54.0907171879       20.3566048637  MEMB      198             0.0000000000
     24553       198  POPE      H12A          -49.1884183817      -55.0580241872       20.6617416577  MEMB      198             0.0000000000
     24554       198  POPE      H12B          -48.8965896368      -53.6477491078       19.6617644057  MEMB      198             0.0000000000
     24555       198  POPE      C11           -51.0038367976      -54.3373010906       19.9003931262  MEMB      198             0.0000000000
     24556       198  POPE      H11A          -51.6276425769      -54.7318289726       20.7307755291  MEMB      198             0.0000000000
     24557       198  POPE      H11B          -51.0188398883      -55.2153533527       19.2198638323  MEMB      198             0.0000000000
     24558       198  POPE      P             -51.3249910780      -52.5717585289       18.0277005328  MEMB      198             0.0000000000
     24559       198  POPE      O13           -50.0757546207      -51.7331404473       18.0806486735  MEMB      198             0.0000000000
     24560       198  POPE      O14           -52.4791531040      -51.8485344948       17.5327250904  MEMB      198             0.0000000000
     24561       198  POPE      O11           -51.1385350679      -53.8088347743       17.0820200173  MEMB      198             0.0000000000
     24562       198  POPE      O12           -51.7117955388      -53.1531686479       19.3974376024  MEMB      198             0.0000000000
     24563       198  POPE      C1            -49.8647654377      -54.3372937468       16.6869878853  MEMB      198             0.0000000000
     24564       198  POPE      HA            -49.2772913706      -54.4635459766       17.6214694501  MEMB      198             0.0000000000
     24565       198  POPE      HB            -49.2807889389      -53.5591644888       16.1505112342  MEMB      198             0.0000000000
     24566       198  POPE      C2            -50.0324045207      -55.6389454061       15.8741945844  MEMB      198             0.0000000000
     24567       198  POPE      HS            -49.0307920033      -56.0969012505       15.7280113655  MEMB      198             0.0000000000
     24568       198  POPE      O21           -50.7173728996      -55.3641416720       14.6719188561  MEMB      198             0.0000000000
     24569       198  POPE      C21           -50.1294544552      -54.7172834102       13.6875005417  MEMB      198             0.0000000000
     24570       198  POPE      O22           -48.9737786397      -54.2968011575       13.6922960346  MEMB      198             0.0000000000
     24571       198  POPE      C22           -51.1521455485      -54.6038878278       12.4923345409  MEMB      198             0.0000000000
     24572       198  POPE      H2R           -50.7995290425      -53.9892763078       11.6366269095  MEMB      198             0.0000000000
     24573       198  POPE      H2S           -52.1308012062      -54.1721933874       12.7926576502  MEMB      198             0.0000000000
     24574       198  POPE      C3            -50.8292762136      -56.7610236049       16.7192337680  MEMB      198             0.0000000000
     24575       198  POPE      HX            -50.1687096268      -57.0590869566       17.5613329638  MEMB      198             0.0000000000
     24576       198  POPE      HY            -50.7968313054      -57.7122033243       16.1460619898  MEMB      198             0.0000000000
     24577       198  POPE      O31           -52.1319949173      -56.3760707787       17.1932275563  MEMB      198             0.0000000000
     24578       198  POPE      C31           -53.0866355111      -56.6134066245       16.3223220404  MEMB      198             0.0000000000
     24579       198  POPE      O32           -53.0535128313      -57.2602914879       15.2803962105  MEMB      198             0.0000000000
     24580       198  POPE      C32           -54.3766587447      -55.9005518993       16.7678412267  MEMB      198             0.0000000000
     24581       198  POPE      H2X           -54.2476240181      -54.9957745034       17.3995445208  MEMB      198             0.0000000000
     24582       198  POPE      H2Y           -54.8358384413      -56.7034585475       17.3833213479  MEMB      198             0.0000000000
     24583       198  POPE      C23           -51.3653342529      -55.9928001540       11.9438687147  MEMB      198             0.0000000000
     24584       198  POPE      H3R           -51.9922878608      -55.8853584248       11.0329864640  MEMB      198             0.0000000000
     24585       198  POPE      H3S           -51.8959455548      -56.6120339348       12.6984031974  MEMB      198             0.0000000000
     24586       198  POPE      C24           -50.0930812968      -56.6564825005       11.4679744010  MEMB      198             0.0000000000
     24587       198  POPE      H4R           -49.5458357896      -57.0053639797       12.3697090270  MEMB      198             0.0000000000
     24588       198  POPE      H4S           -49.4258942840      -55.8589245459       11.0767152190  MEMB      198             0.0000000000
     24589       198  POPE      C25           -50.1782401955      -57.8918304342       10.6339942879  MEMB      198             0.0000000000
     24590       198  POPE      H5R           -50.7188716267      -58.7319718571       11.1199997380  MEMB      198             0.0000000000
     24591       198  POPE      H5S           -49.2066454313      -58.4040324424       10.4667407344  MEMB      198             0.0000000000
     24592       198  POPE      C26           -50.8938125966      -57.5357520757        9.2725751515  MEMB      198             0.0000000000
     24593       198  POPE      H6R           -51.8758586968      -57.1739086574        9.6453699267  MEMB      198             0.0000000000
     24594       198  POPE      H6S           -50.9446809841      -58.4487190365        8.6415254881  MEMB      198             0.0000000000
     24595       198  POPE      C27           -50.1141194983      -56.5598825789        8.4275903930  MEMB      198             0.0000000000
     24596       198  POPE      H7R           -49.0495962480      -56.8597521824        8.5333696515  MEMB      198             0.0000000000
     24597       198  POPE      H7S           -50.2526509716      -55.5496585999        8.8686997554  MEMB      198             0.0000000000
     24598       198  POPE      C28           -50.4114952998      -56.5551699253        6.9652151474  MEMB      198             0.0000000000
     24599       198  POPE      H8R           -50.2071745832      -57.5905652814        6.6180396171  MEMB      198             0.0000000000
     24600       198  POPE      H8S           -49.7625400805      -55.8868384785        6.3598125443  MEMB      198             0.0000000000
     24601       198  POPE      C29           -51.9033819858      -56.0996040041        6.7358328843  MEMB      198             0.0000000000
     24602       198  POPE      H91           -52.6468582735      -56.3754393225        7.4981698065  MEMB      198             0.0000000000
     24603       198  POPE      C210          -52.4588048311      -55.3265417865        5.7762852418  MEMB      198             0.0000000000
     24604       198  POPE      H101          -53.5405945495      -55.1318422333        5.8189833007  MEMB      198             0.0000000000
     24605       198  POPE      C211          -51.8366767207      -54.7144218449        4.5709974882  MEMB      198             0.0000000000
     24606       198  POPE      H11R          -50.8758158044      -54.2354277895        4.8567108016  MEMB      198             0.0000000000
     24607       198  POPE      H11S          -52.5577002442      -53.9554055137        4.1990567872  MEMB      198             0.0000000000
     24608       198  POPE      C212          -51.3830473912      -55.5172889990        3.2862634139  MEMB      198             0.0000000000
     24609       198  POPE      H12R          -52.2643370421      -55.7440550818        2.6489050045  MEMB      198             0.0000000000
     24610       198  POPE      H12S          -51.0056139030      -56.5056482185        3.6253958670  MEMB      198             0.0000000000
     24611       198  POPE      C213          -50.2765297908      -54.9346966491        2.4384425245  MEMB      198             0.0000000000
     24612       198  POPE      H13R          -49.7964423738      -55.6668585501        1.7545012680  MEMB      198             0.0000000000
     24613       198  POPE      H13S          -49.5017136485      -54.7408183416        3.2107066911  MEMB      198             0.0000000000
     24614       198  POPE      C214          -50.7526797932      -53.6995402841        1.6729739238  MEMB      198             0.0000000000
     24615       198  POPE      H14R          -50.8401858582      -52.8821966114        2.4203774682  MEMB      198             0.0000000000
     24616       198  POPE      H14S          -51.7957756435      -53.9899562492        1.4241145845  MEMB      198             0.0000000000
     24617       198  POPE      C215          -49.9637834652      -53.3483212126        0.4330918564  MEMB      198             0.0000000000
     24618       198  POPE      H15R          -50.3547183589      -52.3501613498        0.1412566545  MEMB      198             0.0000000000
     24619       198  POPE      H15S          -50.1786890456      -54.1084153721       -0.3481841819  MEMB      198             0.0000000000
     24620       198  POPE      C216          -48.4256775970      -53.1748575858        0.6961011444  MEMB      198             0.0000000000
     24621       198  POPE      H16R          -47.9791996230      -54.0951866465        1.1296589104  MEMB      198             0.0000000000
     24622       198  POPE      H16S          -48.1768096283      -52.3061848962        1.3424699435  MEMB      198             0.0000000000
     24623       198  POPE      C217          -47.6739215156      -53.0538780816       -0.6539605523  MEMB      198             0.0000000000
     24624       198  POPE      H17R          -47.9345802637      -52.2249936393       -1.3462949943  MEMB      198             0.0000000000
     24625       198  POPE      H17S          -47.8786608218      -53.9582463956       -1.2659407400  MEMB      198             0.0000000000
     24626       198  POPE      C218          -46.1324167259      -52.9649012274       -0.6078578491  MEMB      198             0.0000000000
     24627       198  POPE      H18R          -45.6491039520      -53.9537492745       -0.4564989732  MEMB      198             0.0000000000
     24628       198  POPE      H18S          -45.7752668497      -52.2548900984        0.1684469831  MEMB      198             0.0000000000
     24629       198  POPE      H18T          -45.8017948747      -52.6197059702       -1.6107792311  MEMB      198             0.0000000000
     24630       198  POPE      C33           -55.2371853725      -55.4962592218       15.5744775657  MEMB      198             0.0000000000
     24631       198  POPE      H3X           -56.2563136044      -55.3378186834       15.9875094012  MEMB      198             0.0000000000
     24632       198  POPE      H3Y           -55.3060968829      -56.3883790237       14.9159228532  MEMB      198             0.0000000000
     24633       198  POPE      C34           -54.8607999678      -54.2357798383       14.7913655187  MEMB      198             0.0000000000
     24634       198  POPE      H4X           -53.8307110513      -54.3326322833       14.3865722471  MEMB      198             0.0000000000
     24635       198  POPE      H4Y           -54.8462798442      -53.3915503226       15.5134363220  MEMB      198             0.0000000000
     24636       198  POPE      C35           -55.9627653084      -53.9346112052       13.7313705459  MEMB      198             0.0000000000
     24637       198  POPE      H5X           -56.9279074116      -53.9123554207       14.2812126911  MEMB      198             0.0000000000
     24638       198  POPE      H5Y           -55.8972546146      -54.7051761949       12.9337122804  MEMB      198             0.0000000000
     24639       198  POPE      C36           -55.8756920766      -52.6530899113       12.8618655047  MEMB      198             0.0000000000
     24640       198  POPE      H6X           -55.9209574416      -51.7524556418       13.5108110328  MEMB      198             0.0000000000
     24641       198  POPE      H6Y           -56.7455744250      -52.6555550751       12.1707644720  MEMB      198             0.0000000000
     24642       198  POPE      C37           -54.6666016319      -52.5331708170       11.9960214585  MEMB      198             0.0000000000
     24643       198  POPE      H7X           -53.7414307269      -52.4336265027       12.6030395722  MEMB      198             0.0000000000
     24644       198  POPE      H7Y           -54.8208405488      -51.5362863254       11.5304543153  MEMB      198             0.0000000000
     24645       198  POPE      C38           -54.5773899760      -53.6805474648       10.9191502634  MEMB      198             0.0000000000
     24646       198  POPE      H8X           -55.5261974574      -53.6379761746       10.3427192319  MEMB      198             0.0000000000
     24647       198  POPE      H8Y           -54.4544298336      -54.6324110277       11.4787550017  MEMB      198             0.0000000000
     24648       198  POPE      C39           -53.3144869498      -53.4636994766       10.0501235821  MEMB      198             0.0000000000
     24649       198  POPE      H9X           -53.1771491506      -54.3648770321        9.4150347767  MEMB      198             0.0000000000
     24650       198  POPE      H9Y           -52.4818842074      -53.3315082003       10.7737391484  MEMB      198             0.0000000000
     24651       198  POPE      C310          -53.4764437331      -52.2588573793        9.1873157314  MEMB      198             0.0000000000
     24652       198  POPE      H10X          -53.6288632324      -51.3376501463        9.7893675989  MEMB      198             0.0000000000
     24653       198  POPE      H10Y          -54.4501273350      -52.3167241194        8.6554207667  MEMB      198             0.0000000000
     24654       198  POPE      C311          -52.2437876047      -52.0426601689        8.2806846563  MEMB      198             0.0000000000
     24655       198  POPE      H11X          -51.7747509367      -53.0242753247        8.0553913426  MEMB      198             0.0000000000
     24656       198  POPE      H11Y          -51.5515153216      -51.4228926682        8.8897561198  MEMB      198             0.0000000000
     24657       198  POPE      C312          -52.3422645428      -51.3931115077        6.9426569700  MEMB      198             0.0000000000
     24658       198  POPE      H12X          -52.8376133433      -50.4290929453        7.1868273331  MEMB      198             0.0000000000
     24659       198  POPE      H12Y          -53.1055287557      -51.9129318974        6.3249717322  MEMB      198             0.0000000000
     24660       198  POPE      C313          -51.0243953288      -51.0144169983        6.2279335336  MEMB      198             0.0000000000
     24661       198  POPE      H13X          -50.6045030569      -52.0245766002        6.0340542155  MEMB      198             0.0000000000
     24662       198  POPE      H13Y          -50.3053661093      -50.4658424857        6.8732120435  MEMB      198             0.0000000000
     24663       198  POPE      C314          -51.2164596350      -50.2074260634        4.9622749195  MEMB      198             0.0000000000
     24664       198  POPE      H14X          -51.8199627688      -49.2841717140        5.0953405701  MEMB      198             0.0000000000
     24665       198  POPE      H14Y          -51.9199629692      -50.8073779955        4.3462706145  MEMB      198             0.0000000000
     24666       198  POPE      C315          -49.9195641094      -49.9047326094        4.1877026491  MEMB      198             0.0000000000
     24667       198  POPE      H15X          -49.1061156702      -50.6607623866        4.1554281623  MEMB      198             0.0000000000
     24668       198  POPE      H15Y          -49.3477504964      -49.0577948290        4.6236463798  MEMB      198             0.0000000000
     24669       198  POPE      C316          -50.1806862084      -49.6156110873        2.6669852491  MEMB      198             0.0000000000
     24670       198  POPE      H16X          -49.3026702108      -49.2007481359        2.1272644505  MEMB      198             0.0000000000
     24671       198  POPE      H16Y          -50.9429299222      -48.8174732931        2.5393835589  MEMB      198             0.0000000000
     24672       198  POPE      H16Z          -50.5661891294      -50.4976853739        2.1123193315  MEMB      198             0.0000000000
     24673       199  OYPE      N              52.9647579638      -51.1485102837       21.3991696407  MEMB      199             0.0000000000
     24674       199  OYPE      HN1            52.5817321984      -50.3704496809       21.9732018330  MEMB      199             0.0000000000
     24675       199  OYPE      HN2            53.6226686600      -51.6727784167       22.0106402609  MEMB      199             0.0000000000
     24676       199  OYPE      HN3            53.4293737455      -50.7199227862       20.5733094914  MEMB      199             0.0000000000
     24677       199  OYPE      C12            51.8578574106      -52.1419418252       21.1208804894  MEMB      199             0.0000000000
     24678       199  OYPE      H12A           50.9336474547      -51.5814105517       20.8640510094  MEMB      199             0.0000000000
     24679       199  OYPE      H12B           51.5354042982      -52.6505091987       22.0545315568  MEMB      199             0.0000000000
     24680       199  OYPE      C11            52.2686834308      -53.1245758824       19.9575428096  MEMB      199             0.0000000000
     24681       199  OYPE      H11A           51.3743751071      -53.7728499265       19.8380679129  MEMB      199             0.0000000000
     24682       199  OYPE      H11B           53.0876210280      -53.7706526304       20.3399654303  MEMB      199             0.0000000000
     24683       199  OYPE      P              53.8707178619      -52.8175340060       17.8866184136  MEMB      199             0.0000000000
     24684       199  OYPE      O13            53.3293181997      -53.6267947537       16.7910354985  MEMB      199             0.0000000000
     24685       199  OYPE      O14            54.9848446880      -53.2309578482       18.6968994912  MEMB      199             0.0000000000
     24686       199  OYPE      O11            54.1571289087      -51.3694403831       17.3933098020  MEMB      199             0.0000000000
     24687       199  OYPE      O12            52.5546283410      -52.4583161998       18.7545438339  MEMB      199             0.0000000000
     24688       199  OYPE      C1             54.0465838563      -50.1603158999       18.0513924979  MEMB      199             0.0000000000
     24689       199  OYPE      HA             53.9256528079      -50.2988276334       19.1470709069  MEMB      199             0.0000000000
     24690       199  OYPE      HB             53.0995836464      -49.6358488146       17.8015006424  MEMB      199             0.0000000000
     24691       199  OYPE      C2             55.2594840439      -49.1742237153       17.8411507981  MEMB      199             0.0000000000
     24692       199  OYPE      HS             54.9506608666      -48.2588686790       18.3898529943  MEMB      199             0.0000000000
     24693       199  OYPE      O21            55.4838120055      -48.8923503840       16.4602310519  MEMB      199             0.0000000000
     24694       199  OYPE      C21            54.4459314101      -48.2557893239       15.8006974016  MEMB      199             0.0000000000
     24695       199  OYPE      O22            53.3499437391      -47.9994940861       16.2724504266  MEMB      199             0.0000000000
     24696       199  OYPE      C22            54.9600124712      -48.2023035025       14.2518565926  MEMB      199             0.0000000000
     24697       199  OYPE      H2R            55.6089817596      -49.0860148006       14.0723735528  MEMB      199             0.0000000000
     24698       199  OYPE      H2S            55.4840381700      -47.2435823480       14.0504313116  MEMB      199             0.0000000000
     24699       199  OYPE      C3             56.5732632875      -49.7534640933       18.4375356494  MEMB      199             0.0000000000
     24700       199  OYPE      HX             56.3207160655      -49.9157904976       19.5072043054  MEMB      199             0.0000000000
     24701       199  OYPE      HY             57.4559729739      -49.0790732827       18.4560393864  MEMB      199             0.0000000000
     24702       199  OYPE      O31            56.9347250370      -50.9964448889       17.8582207263  MEMB      199             0.0000000000
     24703       199  OYPE      C31            57.6505999127      -50.9090850165       16.7411478268  MEMB      199             0.0000000000
     24704       199  OYPE      O32            58.0543844075      -49.8665162754       16.2376569794  MEMB      199             0.0000000000
     24705       199  OYPE      C32            57.6414307886      -52.2664882991       16.0875935445  MEMB      199             0.0000000000
     24706       199  OYPE      H2X            58.2123940374      -52.9603165012       16.7409881800  MEMB      199             0.0000000000
     24707       199  OYPE      H2Y            56.6155740505      -52.6922532028       16.0618443588  MEMB      199             0.0000000000
     24708       199  OYPE      C23            53.7275318078      -48.1144656489       13.3437538624  MEMB      199             0.0000000000
     24709       199  OYPE      H3R            53.1147154017      -47.2727326173       13.7313913393  MEMB      199             0.0000000000
     24710       199  OYPE      H3S            53.1893758832      -49.0831946817       13.4229573370  MEMB      199             0.0000000000
     24711       199  OYPE      C24            53.8390211651      -47.7487629164       11.8406954019  MEMB      199             0.0000000000
     24712       199  OYPE      H4R            52.8477352726      -47.6638026004       11.3462716657  MEMB      199             0.0000000000
     24713       199  OYPE      H4S            54.4971389750      -48.4818807329       11.3271390007  MEMB      199             0.0000000000
     24714       199  OYPE      C25            54.5067320431      -46.4176043086       11.6731850524  MEMB      199             0.0000000000
     24715       199  OYPE      H5R            55.4896955490      -46.4162066355       12.1909706556  MEMB      199             0.0000000000
     24716       199  OYPE      H5S            53.8143065201      -45.6473300300       12.0751121973  MEMB      199             0.0000000000
     24717       199  OYPE      C26            54.7165509371      -46.1222721539       10.1224870497  MEMB      199             0.0000000000
     24718       199  OYPE      H6R            54.9299298903      -45.0331878738       10.0706630267  MEMB      199             0.0000000000
     24719       199  OYPE      H6S            53.7333054087      -46.2718037548        9.6273209281  MEMB      199             0.0000000000
     24720       199  OYPE      C27            55.9148616417      -46.9096531829        9.5997466471  MEMB      199             0.0000000000
     24721       199  OYPE      H7R            55.6500266947      -47.9885569070        9.5874934942  MEMB      199             0.0000000000
     24722       199  OYPE      H7S            56.7755930944      -46.5554791714       10.2063954936  MEMB      199             0.0000000000
     24723       199  OYPE      C28            56.3560817820      -46.5540225968        8.1306950252  MEMB      199             0.0000000000
     24724       199  OYPE      H8R            56.5542275385      -45.4608404615        8.1273077560  MEMB      199             0.0000000000
     24725       199  OYPE      H8S            55.5153135355      -46.8809653329        7.4822053720  MEMB      199             0.0000000000
     24726       199  OYPE      C29            57.5807389780      -47.3036916642        7.6087837221  MEMB      199             0.0000000000
     24727       199  OYPE      H9R            58.4837523195      -47.3300663019        8.2363756870  MEMB      199             0.0000000000
     24728       199  OYPE      C210           57.7074860235      -47.9401121365        6.4632826577  MEMB      199             0.0000000000
     24729       199  OYPE      H10R           58.6567760763      -48.4684144571        6.2908154857  MEMB      199             0.0000000000
     24730       199  OYPE      C211           56.7238700834      -48.1383983624        5.3146694039  MEMB      199             0.0000000000
     24731       199  OYPE      H11R           55.8102815343      -47.5793955122        5.6099539372  MEMB      199             0.0000000000
     24732       199  OYPE      H11S           56.5153215614      -49.2275241451        5.2466012363  MEMB      199             0.0000000000
     24733       199  OYPE      C212           57.1812719293      -47.7280628059        3.9004842333  MEMB      199             0.0000000000
     24734       199  OYPE      H12R           58.0939435398      -48.3023580634        3.6330218694  MEMB      199             0.0000000000
     24735       199  OYPE      H12S           57.4265649130      -46.6679479006        4.1247798518  MEMB      199             0.0000000000
     24736       199  OYPE      C213           56.1375753958      -47.9723235305        2.7774732860  MEMB      199             0.0000000000
     24737       199  OYPE      H13R           55.1266868299      -47.7255506473        3.1667388773  MEMB      199             0.0000000000
     24738       199  OYPE      H13S           56.2163771460      -49.0663126801        2.6005577204  MEMB      199             0.0000000000
     24739       199  OYPE      C214           56.3312694320      -47.1219579073        1.4920528028  MEMB      199             0.0000000000
     24740       199  OYPE      H14R           57.2678705978      -47.5410109614        1.0660322571  MEMB      199             0.0000000000
     24741       199  OYPE      H14S           56.4515133657      -46.0597063299        1.7945161596  MEMB      199             0.0000000000
     24742       199  OYPE      C215           55.1166724849      -47.1799672011        0.5525541634  MEMB      199             0.0000000000
     24743       199  OYPE      H15R           54.7817525111      -48.1959492882        0.2526709375  MEMB      199             0.0000000000
     24744       199  OYPE      H15S           55.3872611389      -46.6601081292       -0.3912928689  MEMB      199             0.0000000000
     24745       199  OYPE      C216           53.9017400964      -46.5025420467        1.1191260346  MEMB      199             0.0000000000
     24746       199  OYPE      H16R           54.0885972841      -45.4704409331        1.4854225652  MEMB      199             0.0000000000
     24747       199  OYPE      H16S           53.2902442856      -46.9719112822        1.9191816801  MEMB      199             0.0000000000
     24748       199  OYPE      H16T           53.2143259368      -46.4054091704        0.2517476221  MEMB      199             0.0000000000
     24749       199  OYPE      C33            58.1328011774      -52.2635537029       14.5591085456  MEMB      199             0.0000000000
     24750       199  OYPE      H3X            58.2308739183      -53.3165539308       14.2186780737  MEMB      199             0.0000000000
     24751       199  OYPE      H3Y            59.1771949284      -51.8854928538       14.5842661643  MEMB      199             0.0000000000
     24752       199  OYPE      C34            57.3812996245      -51.4774396459       13.4539661919  MEMB      199             0.0000000000
     24753       199  OYPE      H4X            57.2840374442      -50.4420454282       13.8448879108  MEMB      199             0.0000000000
     24754       199  OYPE      H4Y            58.0245825230      -51.3861109128       12.5527633004  MEMB      199             0.0000000000
     24755       199  OYPE      C35            56.0426752659      -52.1559617888       13.2156491647  MEMB      199             0.0000000000
     24756       199  OYPE      H5X            55.3218083597      -52.0782561465       14.0574526647  MEMB      199             0.0000000000
     24757       199  OYPE      H5Y            56.3475185636      -53.1953337060       12.9684701782  MEMB      199             0.0000000000
     24758       199  OYPE      C36            55.4077120631      -51.5575128063       11.9586444464  MEMB      199             0.0000000000
     24759       199  OYPE      H6X            55.2149452443      -50.4746038430       12.1150735839  MEMB      199             0.0000000000
     24760       199  OYPE      H6Y            56.1005434937      -51.6046452692       11.0914165636  MEMB      199             0.0000000000
     24761       199  OYPE      C37            54.2037789499      -52.3894358603       11.5831951602  MEMB      199             0.0000000000
     24762       199  OYPE      H7X            54.3759283815      -53.4856852524       11.6372591925  MEMB      199             0.0000000000
     24763       199  OYPE      H7Y            53.3732514588      -52.0951359531       12.2599025928  MEMB      199             0.0000000000
     24764       199  OYPE      C38            53.7960619451      -52.1533877921       10.1328635000  MEMB      199             0.0000000000
     24765       199  OYPE      H8X            54.5840233246      -52.6244691653        9.5071476158  MEMB      199             0.0000000000
     24766       199  OYPE      H8Y            52.9107420730      -52.8100755194        9.9939712360  MEMB      199             0.0000000000
     24767       199  OYPE      C39            53.3046618160      -50.8288810677        9.7793196423  MEMB      199             0.0000000000
     24768       199  OYPE      H9X            52.6050112200      -50.3404440873       10.4735226628  MEMB      199             0.0000000000
     24769       199  OYPE      C310           53.8014416153      -50.0374397916        8.8067526441  MEMB      199             0.0000000000
     24770       199  OYPE      H10X           53.2339220166      -49.1626532254        8.4565105043  MEMB      199             0.0000000000
     24771       199  OYPE      C311           54.9078107453      -50.4245315820        7.8881816678  MEMB      199             0.0000000000
     24772       199  OYPE      H11X           55.7362552010      -49.6856294457        7.9331748100  MEMB      199             0.0000000000
     24773       199  OYPE      H11Y           55.4265501396      -51.4045949386        7.9567850210  MEMB      199             0.0000000000
     24774       199  OYPE      C312           54.2127347330      -50.4025593274        6.4293610179  MEMB      199             0.0000000000
     24775       199  OYPE      H12X           55.0297005969      -50.5100470276        5.6841529392  MEMB      199             0.0000000000
     24776       199  OYPE      H12Y           53.7121340567      -49.4113767177        6.3936260053  MEMB      199             0.0000000000
     24777       199  OYPE      C313           53.2748910278      -51.6043592994        6.0266060035  MEMB      199             0.0000000000
     24778       199  OYPE      H13X           53.8694921827      -52.5147802677        6.2544301054  MEMB      199             0.0000000000
     24779       199  OYPE      H13Y           52.3967692934      -51.6260299591        6.7068662177  MEMB      199             0.0000000000
     24780       199  OYPE      C314           52.7093162560      -51.4048874427        4.5671997711  MEMB      199             0.0000000000
     24781       199  OYPE      H14X           52.1710089354      -52.3505059476        4.3428078600  MEMB      199             0.0000000000
     24782       199  OYPE      H14Y           53.5646140274      -51.3959751825        3.8581810505  MEMB      199             0.0000000000
     24783       199  OYPE      C315           51.6749835273      -50.3045329461        4.4012715188  MEMB      199             0.0000000000
     24784       199  OYPE      H15X           52.2290767640      -49.3428660077        4.4512573843  MEMB      199             0.0000000000
     24785       199  OYPE      H15Y           50.9671976703      -50.2647543820        5.2567117017  MEMB      199             0.0000000000
     24786       199  OYPE      C316           50.7530135001      -50.3629178716        3.1532117444  MEMB      199             0.0000000000
     24787       199  OYPE      H16X           49.9533118955      -49.5917488079        3.1433747744  MEMB      199             0.0000000000
     24788       199  OYPE      H16Y           50.1560950894      -51.2695829998        3.3897862621  MEMB      199             0.0000000000
     24789       199  OYPE      C317           51.4375878203      -50.5167815177        1.7503132303  MEMB      199             0.0000000000
     24790       199  OYPE      H17X           52.1488309109      -51.3660733224        1.6657097895  MEMB      199             0.0000000000
     24791       199  OYPE      H17Y           52.0218918627      -49.5969406241        1.5339744153  MEMB      199             0.0000000000
     24792       199  OYPE      C318           50.4604783194      -50.5895011146        0.5403790121  MEMB      199             0.0000000000
     24793       199  OYPE      H18X           50.9472365114      -50.7651029243       -0.4427536794  MEMB      199             0.0000000000
     24794       199  OYPE      H18Y           49.6935874316      -51.3900016428        0.6138495782  MEMB      199             0.0000000000
     24795       199  OYPE      H18Z           49.9793825077      -49.5948912123        0.4236768335  MEMB      199             0.0000000000
     24796       200  PYPG      C13           -58.1288870236       52.9854957008       19.6988699613  MEMB      200             0.0000000000
     24797       200  PYPG      H13A          -58.4783203269       52.0400188075       20.1660859191  MEMB      200             0.0000000000
     24798       200  PYPG      H13B          -58.7069673758       53.9076955229       19.9217862850  MEMB      200             0.0000000000
     24799       200  PYPG      OC3           -58.3776931365       52.7971023777       18.3059059455  MEMB      200             0.0000000000
     24800       200  PYPG      HO3           -57.8333833064       52.0328192803       18.1029326277  MEMB      200             0.0000000000
     24801       200  PYPG      C12           -56.5876060875       53.1575261727       20.1849163691  MEMB      200             0.0000000000
     24802       200  PYPG      H12A          -56.6112070199       53.5484591098       21.2286565066  MEMB      200             0.0000000000
     24803       200  PYPG      OC2           -55.9188645111       54.1202005434       19.3687768896  MEMB      200             0.0000000000
     24804       200  PYPG      HO2           -54.9831219705       54.0422695554       19.6569252870  MEMB      200             0.0000000000
     24805       200  PYPG      C11           -55.7390010160       51.8251908900       20.2135234502  MEMB      200             0.0000000000
     24806       200  PYPG      H11A          -56.4269164234       51.2427173791       20.8629986267  MEMB      200             0.0000000000
     24807       200  PYPG      H11B          -54.7891183532       51.9596730065       20.7738434044  MEMB      200             0.0000000000
     24808       200  PYPG      P             -54.6590059152       50.1035229292       18.4714146427  MEMB      200             0.0000000000
     24809       200  PYPG      O13           -53.8667349878       49.5047107919       19.5643967150  MEMB      200             0.0000000000
     24810       200  PYPG      O14           -53.9533022915       50.6201598656       17.2826532264  MEMB      200             0.0000000000
     24811       200  PYPG      O11           -55.6755111920       48.9888220820       17.9810539528  MEMB      200             0.0000000000
     24812       200  PYPG      O12           -55.5499588571       51.2937373847       18.9284888615  MEMB      200             0.0000000000
     24813       200  PYPG      C1            -56.8821966299       49.4862514634       17.4496496766  MEMB      200             0.0000000000
     24814       200  PYPG      HA            -56.6956241451       50.4108589415       16.8626123904  MEMB      200             0.0000000000
     24815       200  PYPG      HB            -57.5248601796       49.7192974506       18.3254315877  MEMB      200             0.0000000000
     24816       200  PYPG      C2            -57.6525957790       48.4611298851       16.5109533210  MEMB      200             0.0000000000
     24817       200  PYPG      HS            -57.9887351819       47.5885135653       17.1108468550  MEMB      200             0.0000000000
     24818       200  PYPG      O21           -56.8435524239       47.9806214195       15.4453608545  MEMB      200             0.0000000000
     24819       200  PYPG      C21           -57.1689311562       46.8869141826       14.7410183680  MEMB      200             0.0000000000
     24820       200  PYPG      O22           -58.0819329602       46.1282921031       14.9558780140  MEMB      200             0.0000000000
     24821       200  PYPG      C22           -56.1559601877       46.7144554519       13.5613877819  MEMB      200             0.0000000000
     24822       200  PYPG      H2R           -55.0910843146       46.6352899591       13.8681335713  MEMB      200             0.0000000000
     24823       200  PYPG      H2S           -56.3759857128       47.5820945734       12.9032750521  MEMB      200             0.0000000000
     24824       200  PYPG      C3            -59.0259701353       49.0324858988       15.8725278324  MEMB      200             0.0000000000
     24825       200  PYPG      HX            -59.5928959357       49.2745882675       16.7968126886  MEMB      200             0.0000000000
     24826       200  PYPG      HY            -59.6472464034       48.2765295782       15.3463468310  MEMB      200             0.0000000000
     24827       200  PYPG      O31           -58.7454207326       50.3183273495       15.2002900271  MEMB      200             0.0000000000
     24828       200  PYPG      C31           -58.4621393821       50.1800403138       13.8695947785  MEMB      200             0.0000000000
     24829       200  PYPG      O32           -58.4967260584       49.1710638638       13.2244102074  MEMB      200             0.0000000000
     24830       200  PYPG      C32           -58.1725997550       51.5853364043       13.3253770998  MEMB      200             0.0000000000
     24831       200  PYPG      H2X           -58.5730580950       51.5128548655       12.2915969640  MEMB      200             0.0000000000
     24832       200  PYPG      H2Y           -58.8133290075       52.2913102873       13.8958045748  MEMB      200             0.0000000000
     24833       200  PYPG      C23           -56.5375186192       45.4363684637       12.8756637952  MEMB      200             0.0000000000
     24834       200  PYPG      H3R           -57.5772250613       45.6272550161       12.5337664409  MEMB      200             0.0000000000
     24835       200  PYPG      H3S           -56.7891911755       44.5909496564       13.5511258776  MEMB      200             0.0000000000
     24836       200  PYPG      C24           -55.4770278868       44.8431593595       11.8705224019  MEMB      200             0.0000000000
     24837       200  PYPG      H4R           -55.5717872288       43.7542773322       12.0697132074  MEMB      200             0.0000000000
     24838       200  PYPG      H4S           -54.3991235801       45.0349612403       12.0593487536  MEMB      200             0.0000000000
     24839       200  PYPG      C25           -55.8481023196       45.2614341174       10.4714665656  MEMB      200             0.0000000000
     24840       200  PYPG      H5R           -56.9578363019       45.3141372104       10.4656371774  MEMB      200             0.0000000000
     24841       200  PYPG      H5S           -55.4635738347       44.4572030943        9.8083897800  MEMB      200             0.0000000000
     24842       200  PYPG      C26           -55.1836766438       46.5222378898       10.0137117664  MEMB      200             0.0000000000
     24843       200  PYPG      H6R           -54.0840625601       46.3942152433       10.1074137473  MEMB      200             0.0000000000
     24844       200  PYPG      H6S           -55.4700865767       47.4320617583       10.5833695881  MEMB      200             0.0000000000
     24845       200  PYPG      C27           -55.3703755357       47.0031716370        8.6056857461  MEMB      200             0.0000000000
     24846       200  PYPG      H7R           -54.9465228614       46.2805666377        7.8759511252  MEMB      200             0.0000000000
     24847       200  PYPG      H7S           -54.9029065649       48.0073670071        8.5197487786  MEMB      200             0.0000000000
     24848       200  PYPG      C28           -56.7839189259       47.2650245507        8.0866508506  MEMB      200             0.0000000000
     24849       200  PYPG      H8R           -57.3435544831       46.3153905432        7.9476382692  MEMB      200             0.0000000000
     24850       200  PYPG      H8S           -56.6003286171       47.7674433963        7.1129002708  MEMB      200             0.0000000000
     24851       200  PYPG      C29           -57.4820400059       48.3186534479        8.9532158973  MEMB      200             0.0000000000
     24852       200  PYPG      H9R           -58.0200387225       47.8045854954        9.7633342403  MEMB      200             0.0000000000
     24853       200  PYPG      C210          -57.4270811490       49.6826693257        8.9699748904  MEMB      200             0.0000000000
     24854       200  PYPG      H10R          -58.0395019330       50.1774590766        9.7381701900  MEMB      200             0.0000000000
     24855       200  PYPG      C211          -56.6266542649       50.6047825904        8.0592469097  MEMB      200             0.0000000000
     24856       200  PYPG      H11R          -55.7046641799       50.1550815275        7.6326038625  MEMB      200             0.0000000000
     24857       200  PYPG      H11S          -56.2646159357       51.4804745531        8.6392580962  MEMB      200             0.0000000000
     24858       200  PYPG      C212          -57.3007029635       51.0848866086        6.7972099587  MEMB      200             0.0000000000
     24859       200  PYPG      H12R          -56.7209095943       51.8994934287        6.3128785199  MEMB      200             0.0000000000
     24860       200  PYPG      H12S          -58.3065586424       51.4089623437        7.1400652427  MEMB      200             0.0000000000
     24861       200  PYPG      C213          -57.5110987593       49.9134582236        5.7631930809  MEMB      200             0.0000000000
     24862       200  PYPG      H13R          -58.0520080125       49.0933995919        6.2820783390  MEMB      200             0.0000000000
     24863       200  PYPG      H13S          -56.5618827074       49.5066096886        5.3535782110  MEMB      200             0.0000000000
     24864       200  PYPG      C214          -58.3646043851       50.2893834325        4.4816961928  MEMB      200             0.0000000000
     24865       200  PYPG      H14R          -59.3630290407       50.5259772567        4.9077148498  MEMB      200             0.0000000000
     24866       200  PYPG      H14S          -57.8960189844       51.1633645764        3.9807913442  MEMB      200             0.0000000000
     24867       200  PYPG      C215          -58.5296287896       49.0837779861        3.4477446304  MEMB      200             0.0000000000
     24868       200  PYPG      H15R          -59.3800842090       49.4024445310        2.8078252247  MEMB      200             0.0000000000
     24869       200  PYPG      H15S          -58.8029445620       48.1961857752        4.0574986082  MEMB      200             0.0000000000
     24870       200  PYPG      C216          -57.4116868261       48.7056536330        2.5400791796  MEMB      200             0.0000000000
     24871       200  PYPG      H16R          -57.1403843869       49.5148298841        1.8287777366  MEMB      200             0.0000000000
     24872       200  PYPG      H16S          -57.6138205356       47.7987332649        1.9310157705  MEMB      200             0.0000000000
     24873       200  PYPG      H16T          -56.5126986223       48.3610652743        3.0945161660  MEMB      200             0.0000000000
     24874       200  PYPG      C33           -56.5947384246       51.8059636409       13.4651251623  MEMB      200             0.0000000000
     24875       200  PYPG      H3X           -56.0775226425       51.4191896111       14.3691243966  MEMB      200             0.0000000000
     24876       200  PYPG      H3Y           -56.4892343045       52.9044744008       13.5934377967  MEMB      200             0.0000000000
     24877       200  PYPG      C34           -55.8949675101       51.3945937160       12.1807087984  MEMB      200             0.0000000000
     24878       200  PYPG      H4X           -56.1964424001       52.0331406493       11.3229839732  MEMB      200             0.0000000000
     24879       200  PYPG      H4Y           -56.2219410204       50.3775447970       11.8757148720  MEMB      200             0.0000000000
     24880       200  PYPG      C35           -54.4094162085       51.3682848298       12.2674849584  MEMB      200             0.0000000000
     24881       200  PYPG      H5X           -54.1655830168       50.8161479188       13.2002290488  MEMB      200             0.0000000000
     24882       200  PYPG      H5Y           -54.1400618454       52.4420731302       12.3610147697  MEMB      200             0.0000000000
     24883       200  PYPG      C36           -53.7545073163       50.7482890574       11.0190364896  MEMB      200             0.0000000000
     24884       200  PYPG      H6X           -54.3428583210       51.1183808207       10.1523205188  MEMB      200             0.0000000000
     24885       200  PYPG      H6Y           -53.7413471041       49.6379645458       11.0554678469  MEMB      200             0.0000000000
     24886       200  PYPG      C37           -52.2399406809       51.1980342459       10.8805099196  MEMB      200             0.0000000000
     24887       200  PYPG      H7X           -52.0267822998       52.2391397078       11.2045224342  MEMB      200             0.0000000000
     24888       200  PYPG      H7Y           -51.5799295399       50.5083101131       11.4488290394  MEMB      200             0.0000000000
     24889       200  PYPG      C38           -51.8246944637       51.1066604106        9.4183344428  MEMB      200             0.0000000000
     24890       200  PYPG      H8X           -50.7851749471       50.7152667861        9.4413725728  MEMB      200             0.0000000000
     24891       200  PYPG      H8Y           -51.6527632485       52.0709309062        8.8939844068  MEMB      200             0.0000000000
     24892       200  PYPG      C39           -52.5893079747       50.1915579182        8.5201528504  MEMB      200             0.0000000000
     24893       200  PYPG      H9X           -53.6383914196       50.5463939084        8.4316286480  MEMB      200             0.0000000000
     24894       200  PYPG      H9Y           -52.5637410689       49.1956608230        9.0119417703  MEMB      200             0.0000000000
     24895       200  PYPG      C310          -51.7856541896       49.9265007397        7.2329648416  MEMB      200             0.0000000000
     24896       200  PYPG      H10X          -51.0236810114       49.1444890025        7.4383315105  MEMB      200             0.0000000000
     24897       200  PYPG      H10Y          -51.4933867113       50.8898618702        6.7630325323  MEMB      200             0.0000000000
     24898       200  PYPG      C311          -52.7285452636       49.4808555965        6.1859192592  MEMB      200             0.0000000000
     24899       200  PYPG      H11X          -53.5702704698       50.2005430773        6.0972079734  MEMB      200             0.0000000000
     24900       200  PYPG      H11Y          -53.1428416002       48.5163332196        6.5497546366  MEMB      200             0.0000000000
     24901       200  PYPG      C312          -52.0655504661       49.1129845977        4.7856844431  MEMB      200             0.0000000000
     24902       200  PYPG      H12X          -51.6747755560       50.0999789802        4.4578767018  MEMB      200             0.0000000000
     24903       200  PYPG      H12Y          -51.1671836374       48.4704014936        4.9054543831  MEMB      200             0.0000000000
     24904       200  PYPG      C313          -53.0378481391       48.4536972441        3.9001807982  MEMB      200             0.0000000000
     24905       200  PYPG      H13X          -53.5138565167       47.5404898561        4.3170615235  MEMB      200             0.0000000000
     24906       200  PYPG      H13Y          -53.8568099238       49.1199248688        3.5541125139  MEMB      200             0.0000000000
     24907       200  PYPG      C314          -52.3776076081       48.0238978115        2.5208673624  MEMB      200             0.0000000000
     24908       200  PYPG      H14X          -51.5724036642       47.3216273839        2.8254715215  MEMB      200             0.0000000000
     24909       200  PYPG      H14Y          -53.0798879870       47.3896777570        1.9387273956  MEMB      200             0.0000000000
     24910       200  PYPG      C315          -51.8084747208       49.1662017319        1.6301251075  MEMB      200             0.0000000000
     24911       200  PYPG      H15X          -50.9410147446       49.6693580396        2.1083188027  MEMB      200             0.0000000000
     24912       200  PYPG      H15Y          -51.4860733045       48.8098692187        0.6284237939  MEMB      200             0.0000000000
     24913       200  PYPG      C316          -52.8655594166       50.3055108275        1.3647103032  MEMB      200             0.0000000000
     24914       200  PYPG      H16X          -53.6869531259       49.8181575664        0.7971540509  MEMB      200             0.0000000000
     24915       200  PYPG      H16Y          -52.4222255965       51.1040430602        0.7321570227  MEMB      200             0.0000000000
     24916       200  PYPG      H16Z          -53.2984036758       50.7103835499        2.3044134748  MEMB      200             0.0000000000
     24917       201  PMPG      C13             1.1435858400       -0.9149377969      -21.1594649958  MEMB      201             0.0000000000
     24918       201  PMPG      H13A            2.1458330097       -0.4358356919      -21.1762785146  MEMB      201             0.0000000000
     24919       201  PMPG      H13B            0.8850944475       -1.5738987886      -22.0157789522  MEMB      201             0.0000000000
     24920       201  PMPG      OC3             0.1885845535        0.1856588878      -21.2469211442  MEMB      201             0.0000000000
     24921       201  PMPG      HO3            -0.5891703092        0.0524175555      -20.7001632956  MEMB      201             0.0000000000
     24922       201  PMPG      C12             0.9858395848       -1.6544755168      -19.8400997366  MEMB      201             0.0000000000
     24923       201  PMPG      H12A            1.6478924512       -2.5504401846      -19.8814803613  MEMB      201             0.0000000000
     24924       201  PMPG      OC2            -0.3600715746       -2.1077080567      -19.6879672094  MEMB      201             0.0000000000
     24925       201  PMPG      HO2            -0.3779986832       -2.4406465576      -18.7640909118  MEMB      201             0.0000000000
     24926       201  PMPG      C11             1.3484924730       -0.9811624394      -18.5647018376  MEMB      201             0.0000000000
     24927       201  PMPG      H11A            2.4586346526       -0.9845363730      -18.5211841653  MEMB      201             0.0000000000
     24928       201  PMPG      H11B            0.9254478872       -1.5659537672      -17.7200874500  MEMB      201             0.0000000000
     24929       201  PMPG      P              -0.6471603747        0.6343295593      -17.8626238491  MEMB      201             0.0000000000
     24930       201  PMPG      O13            -1.1863508630        1.9031185148      -18.4276824953  MEMB      201             0.0000000000
     24931       201  PMPG      O14            -0.3744886023        0.6110186998      -16.3969970641  MEMB      201             0.0000000000
     24932       201  PMPG      O11            -1.6409509034       -0.5895387829      -18.2995320916  MEMB      201             0.0000000000
     24933       201  PMPG      O12             0.7365501605        0.3450314094      -18.5140096046  MEMB      201             0.0000000000
     24934       201  PMPG      C1             -2.6674289309       -0.3943598854      -19.1636186761  MEMB      201             0.0000000000
     24935       201  PMPG      HA             -2.3437054366       -0.4097739475      -20.2262975958  MEMB      201             0.0000000000
     24936       201  PMPG      HB             -3.1297196128        0.6071364740      -19.0309018503  MEMB      201             0.0000000000
     24937       201  PMPG      C2             -3.6920635724       -1.4470812888      -18.9178223640  MEMB      201             0.0000000000
     24938       201  PMPG      HS             -4.6296578059       -1.1836566596      -19.4524677258  MEMB      201             0.0000000000
     24939       201  PMPG      O21            -3.8939405808       -1.5908374657      -17.5079755360  MEMB      201             0.0000000000
     24940       201  PMPG      C21            -4.3697370764       -0.6206687715      -16.7614699130  MEMB      201             0.0000000000
     24941       201  PMPG      O22            -4.6830269735        0.4939969832      -17.1316026557  MEMB      201             0.0000000000
     24942       201  PMPG      C22            -4.5553876750       -0.9879968710      -15.2631487037  MEMB      201             0.0000000000
     24943       201  PMPG      H2R            -4.8014209731       -2.0671520359      -15.1671677752  MEMB      201             0.0000000000
     24944       201  PMPG      H2S            -5.3681556639       -0.4387043907      -14.7416058900  MEMB      201             0.0000000000
     24945       201  PMPG      C3             -3.2328823369       -2.9106303985      -19.3427277754  MEMB      201             0.0000000000
     24946       201  PMPG      HX             -3.1107034055       -2.9040949964      -20.4469698823  MEMB      201             0.0000000000
     24947       201  PMPG      HY             -4.0549701975       -3.5768342828      -19.0041057106  MEMB      201             0.0000000000
     24948       201  PMPG      O31            -1.9175934944       -3.2180651615      -18.8166737247  MEMB      201             0.0000000000
     24949       201  PMPG      C31            -1.8594236332       -3.8222677322      -17.6402802769  MEMB      201             0.0000000000
     24950       201  PMPG      O32            -2.8018374554       -4.3241601579      -17.0805566588  MEMB      201             0.0000000000
     24951       201  PMPG      C32            -0.4027856790       -4.0232372428      -17.0950545161  MEMB      201             0.0000000000
     24952       201  PMPG      H2X             0.3878721565       -3.6438377512      -17.7771374715  MEMB      201             0.0000000000
     24953       201  PMPG      H2Y            -0.1656563361       -5.1085541630      -17.0817214136  MEMB      201             0.0000000000
     24954       201  PMPG      C23            -3.3016243297       -0.7273574418      -14.4279311434  MEMB      201             0.0000000000
     24955       201  PMPG      H3R            -3.1162660577        0.3680481823      -14.4208917167  MEMB      201             0.0000000000
     24956       201  PMPG      H3S            -2.4711027437       -1.2722916782      -14.9255268828  MEMB      201             0.0000000000
     24957       201  PMPG      C24            -3.4527601540       -1.0658036235      -12.9648891325  MEMB      201             0.0000000000
     24958       201  PMPG      H4R            -4.4583426174       -0.6813707958      -12.6904140092  MEMB      201             0.0000000000
     24959       201  PMPG      H4S            -2.6635597344       -0.6384719917      -12.3100065845  MEMB      201             0.0000000000
     24960       201  PMPG      C25            -3.3642399678       -2.5977343455      -12.6845966865  MEMB      201             0.0000000000
     24961       201  PMPG      H5R            -2.5124797082       -3.0417084114      -13.2429090652  MEMB      201             0.0000000000
     24962       201  PMPG      H5S            -4.2967534108       -3.1145324627      -12.9971022842  MEMB      201             0.0000000000
     24963       201  PMPG      C26            -2.9305772952       -2.9231693468      -11.2087974854  MEMB      201             0.0000000000
     24964       201  PMPG      H6R            -3.8548607955       -2.7662089002      -10.6126562205  MEMB      201             0.0000000000
     24965       201  PMPG      H6S            -2.1251890876       -2.2484754071      -10.8476062999  MEMB      201             0.0000000000
     24966       201  PMPG      C27            -2.3912919971       -4.3487579608      -11.0085775735  MEMB      201             0.0000000000
     24967       201  PMPG      H7R            -1.4735626188       -4.4477673925      -11.6268745988  MEMB      201             0.0000000000
     24968       201  PMPG      H7S            -3.1383250256       -5.1365271706      -11.2445494077  MEMB      201             0.0000000000
     24969       201  PMPG      C28            -2.0461537429       -4.6533486570       -9.4828145448  MEMB      201             0.0000000000
     24970       201  PMPG      H8R            -1.5410615608       -5.6423822466       -9.5146799783  MEMB      201             0.0000000000
     24971       201  PMPG      H8S            -2.9522524623       -4.6541317949       -8.8399267028  MEMB      201             0.0000000000
     24972       201  PMPG      C29            -1.0436914961       -3.7070296073       -8.9248173550  MEMB      201             0.0000000000
     24973       201  PMPG      H9R            -0.2921861355       -3.3287138510       -9.6503771105  MEMB      201             0.0000000000
     24974       201  PMPG      C217           -1.6408293252       -2.7218762797       -7.8569202069  MEMB      201             0.0000000000
     24975       201  PMPG      H17R           -1.1733612515       -1.7544445936       -7.7211318964  MEMB      201             0.0000000000
     24976       201  PMPG      H17S           -2.5932581711       -3.0801788698       -7.4862615268  MEMB      201             0.0000000000
     24977       201  PMPG      C210           -0.5425060525       -3.7724785741       -7.4817186166  MEMB      201             0.0000000000
     24978       201  PMPG      H10R            0.4437327015       -3.3039242876       -7.2765089974  MEMB      201             0.0000000000
     24979       201  PMPG      C211           -0.9710946199       -4.9746520890       -6.6491718887  MEMB      201             0.0000000000
     24980       201  PMPG      H11R           -2.0671468712       -4.8799035361       -6.4942108495  MEMB      201             0.0000000000
     24981       201  PMPG      H11S           -0.7540219145       -5.8998653496       -7.2246551762  MEMB      201             0.0000000000
     24982       201  PMPG      C212           -0.1232086661       -4.9641107851       -5.3425637435  MEMB      201             0.0000000000
     24983       201  PMPG      H12R           -0.0608939435       -3.9477523304       -4.8982070157  MEMB      201             0.0000000000
     24984       201  PMPG      H12S            0.9028250367       -5.2453162710       -5.6627190469  MEMB      201             0.0000000000
     24985       201  PMPG      C213           -0.7791705883       -5.8666937371       -4.3323781172  MEMB      201             0.0000000000
     24986       201  PMPG      H13R           -0.8079596908       -6.8526366973       -4.8436592448  MEMB      201             0.0000000000
     24987       201  PMPG      H13S           -1.8302045165       -5.5862890302       -4.1064975312  MEMB      201             0.0000000000
     24988       201  PMPG      C214           -0.0142749543       -6.0322958000       -3.0017240382  MEMB      201             0.0000000000
     24989       201  PMPG      H14R            1.0128072489       -6.2929977308       -3.3355755948  MEMB      201             0.0000000000
     24990       201  PMPG      H14S           -0.4708430371       -6.7263344351       -2.2640390296  MEMB      201             0.0000000000
     24991       201  PMPG      C215            0.0239645385       -4.7915224437       -2.0410385818  MEMB      201             0.0000000000
     24992       201  PMPG      H15R           -0.9994169656       -4.3822064230       -1.9014971136  MEMB      201             0.0000000000
     24993       201  PMPG      H15S            0.6226647914       -3.9878008899       -2.5205287721  MEMB      201             0.0000000000
     24994       201  PMPG      C216            0.5408367796       -5.0156012379       -0.6738996184  MEMB      201             0.0000000000
     24995       201  PMPG      H16R            1.5389273378       -5.5022455244       -0.7101437633  MEMB      201             0.0000000000
     24996       201  PMPG      H16S           -0.0891127847       -5.6088918880        0.0228729205  MEMB      201             0.0000000000
     24997       201  PMPG      H16T            0.8024800613       -4.0658441105       -0.1602600400  MEMB      201             0.0000000000
     24998       201  PMPG      C33            -0.1356640225       -3.3659398751      -15.6765000083  MEMB      201             0.0000000000
     24999       201  PMPG      H3X            -0.7490923778       -3.8627637316      -14.8947118811  MEMB      201             0.0000000000
     25000       201  PMPG      H3Y            -0.6877731620       -2.4020641583      -15.6974740482  MEMB      201             0.0000000000
     25001       201  PMPG      C34             1.3302119556       -3.2151818518      -15.4964716753  MEMB      201             0.0000000000
     25002       201  PMPG      H4X             1.9714744007       -3.0686785125      -16.3918153439  MEMB      201             0.0000000000
     25003       201  PMPG      H4Y             1.6529926753       -4.1142867101      -14.9292470649  MEMB      201             0.0000000000
     25004       201  PMPG      C35             1.7290250421       -2.0630554131      -14.5095539138  MEMB      201             0.0000000000
     25005       201  PMPG      H5X             1.2751582667       -1.1202252975      -14.8829131378  MEMB      201             0.0000000000
     25006       201  PMPG      H5Y             2.8328720146       -1.9472760507      -14.5589302013  MEMB      201             0.0000000000
     25007       201  PMPG      C36             1.3256706687       -2.2846600626      -13.0353828522  MEMB      201             0.0000000000
     25008       201  PMPG      H6X             1.8140933280       -3.0916165534      -12.4483688805  MEMB      201             0.0000000000
     25009       201  PMPG      H6Y             0.2757365316       -2.6479050929      -13.0389061997  MEMB      201             0.0000000000
     25010       201  PMPG      C37             1.5065047077       -0.9461359517      -12.3672904145  MEMB      201             0.0000000000
     25011       201  PMPG      H7X             0.9907159997       -0.1468684966      -12.9412716122  MEMB      201             0.0000000000
     25012       201  PMPG      H7Y             2.5690086338       -0.6253365854      -12.4172318004  MEMB      201             0.0000000000
     25013       201  PMPG      C38             1.1160165166       -0.8316408211      -10.8766803248  MEMB      201             0.0000000000
     25014       201  PMPG      H8X             1.4465849931       -1.7378280768      -10.3254358915  MEMB      201             0.0000000000
     25015       201  PMPG      H8Y             0.0055183559       -0.8228194122      -10.9088833060  MEMB      201             0.0000000000
     25016       201  PMPG      C39             1.6585947874        0.4421216449      -10.1986599824  MEMB      201             0.0000000000
     25017       201  PMPG      H9X             1.1804634201        1.3107655577      -10.6998280058  MEMB      201             0.0000000000
     25018       201  PMPG      H9Y             2.7534435371        0.5207709004      -10.3702459169  MEMB      201             0.0000000000
     25019       201  PMPG      C310            1.1450176220        0.4400251124       -8.7440278450  MEMB      201             0.0000000000
     25020       201  PMPG      H10X            0.1052544138        0.0701833105       -8.8722084419  MEMB      201             0.0000000000
     25021       201  PMPG      H10Y            1.0854902913        1.5231799908       -8.5041250523  MEMB      201             0.0000000000
     25022       201  PMPG      C311            2.0770186530       -0.3119424902       -7.7431561023  MEMB      201             0.0000000000
     25023       201  PMPG      H11X            3.1397852313       -0.0192075381       -7.8815559733  MEMB      201             0.0000000000
     25024       201  PMPG      H11Y            1.9226593375       -1.3777979286       -8.0160052921  MEMB      201             0.0000000000
     25025       201  PMPG      C312            1.6714793475       -0.1534002035       -6.2853474834  MEMB      201             0.0000000000
     25026       201  PMPG      H12X            0.6390609520       -0.5504996837       -6.1816891664  MEMB      201             0.0000000000
     25027       201  PMPG      H12Y            1.6464976011        0.9284003546       -6.0335443819  MEMB      201             0.0000000000
     25028       201  PMPG      C313            2.6287114518       -0.9164174628       -5.4007002351  MEMB      201             0.0000000000
     25029       201  PMPG      H13X            3.6407569489       -0.4656745474       -5.4838597328  MEMB      201             0.0000000000
     25030       201  PMPG      H13Y            2.4519079036       -2.0038802555       -5.5438300137  MEMB      201             0.0000000000
     25031       201  PMPG      C314            2.4269486843       -0.6509124312       -3.8721862686  MEMB      201             0.0000000000
     25032       201  PMPG      H14X            2.7720441225        0.3936438024       -3.7168404689  MEMB      201             0.0000000000
     25033       201  PMPG      H14Y            3.1013191090       -1.4136840964       -3.4275241729  MEMB      201             0.0000000000
     25034       201  PMPG      C315            0.9517642070       -0.6817579627       -3.3228772424  MEMB      201             0.0000000000
     25035       201  PMPG      H15X            0.4410126521       -1.6344385308       -3.5794972797  MEMB      201             0.0000000000
     25036       201  PMPG      H15Y            0.3909343997        0.1190254593       -3.8506422905  MEMB      201             0.0000000000
     25037       201  PMPG      C316            0.8903572435       -0.5455649919       -1.7907781732  MEMB      201             0.0000000000
     25038       201  PMPG      H16X            1.1185016735       -1.5603705440       -1.4003405829  MEMB      201             0.0000000000
     25039       201  PMPG      H16Y           -0.0957223202       -0.3038946027       -1.3395974018  MEMB      201             0.0000000000
     25040       201  PMPG      H16Z            1.8083158840       -0.0342338326       -1.4299272029  MEMB      201             0.0000000000
     25041       202  OYPE      N               6.7371867787       -2.4884770181      -18.9654554704  MEMB      202             0.0000000000
     25042       202  OYPE      HN1             7.7287310002       -2.3898486293      -18.6676089368  MEMB      202             0.0000000000
     25043       202  OYPE      HN2             6.0844813524       -2.2855178052      -18.1816295086  MEMB      202             0.0000000000
     25044       202  OYPE      HN3             6.6056664862       -3.4608615199      -19.3100867366  MEMB      202             0.0000000000
     25045       202  OYPE      C12             6.6208033923       -1.5061991385      -20.1372063577  MEMB      202             0.0000000000
     25046       202  OYPE      H12A            5.6069524850       -1.0567284894      -20.0708493667  MEMB      202             0.0000000000
     25047       202  OYPE      H12B            6.5599873013       -2.2125076829      -20.9926306310  MEMB      202             0.0000000000
     25048       202  OYPE      C11             7.7306219154       -0.5146425543      -20.1699005098  MEMB      202             0.0000000000
     25049       202  OYPE      H11A            7.6911956760        0.0895347817      -21.1014241509  MEMB      202             0.0000000000
     25050       202  OYPE      H11B            8.7058680665       -1.0462724810      -20.1940980159  MEMB      202             0.0000000000
     25051       202  OYPE      P               8.8231614613        1.0700790168      -18.5786516095  MEMB      202             0.0000000000
     25052       202  OYPE      O13             9.4548167011        1.7300387254      -19.7522139823  MEMB      202             0.0000000000
     25053       202  OYPE      O14             9.6263853608        0.1577257632      -17.7424781918  MEMB      202             0.0000000000
     25054       202  OYPE      O11             8.1920718862        2.2294688352      -17.6718459829  MEMB      202             0.0000000000
     25055       202  OYPE      O12             7.6043516544        0.2496806009      -18.9822478572  MEMB      202             0.0000000000
     25056       202  OYPE      C1              6.9762557421        1.9302285737      -16.9355360284  MEMB      202             0.0000000000
     25057       202  OYPE      HA              6.9360214762        0.8940310941      -16.5367919638  MEMB      202             0.0000000000
     25058       202  OYPE      HB              6.0615543543        2.1876874659      -17.5111725690  MEMB      202             0.0000000000
     25059       202  OYPE      C2              7.0983150528        2.9026417334      -15.8304917082  MEMB      202             0.0000000000
     25060       202  OYPE      HS              7.3036895024        3.9113773845      -16.2483373217  MEMB      202             0.0000000000
     25061       202  OYPE      O21             8.2136082996        2.3913965603      -14.9961591356  MEMB      202             0.0000000000
     25062       202  OYPE      C21             8.8212137337        3.2568782755      -14.2264982583  MEMB      202             0.0000000000
     25063       202  OYPE      O22             8.6972628819        4.4918453570      -14.2557802832  MEMB      202             0.0000000000
     25064       202  OYPE      C22             9.5936077811        2.5386340306      -13.1556586116  MEMB      202             0.0000000000
     25065       202  OYPE      H2R             9.6039740389        3.0460147123      -12.1673376739  MEMB      202             0.0000000000
     25066       202  OYPE      H2S            10.6427394664        2.4395196278      -13.5075394181  MEMB      202             0.0000000000
     25067       202  OYPE      C3              5.8196424812        3.0463948293      -14.9222294866  MEMB      202             0.0000000000
     25068       202  OYPE      HX              4.9657290849        3.4097012192      -15.5330990824  MEMB      202             0.0000000000
     25069       202  OYPE      HY              5.9292224025        3.8509854411      -14.1639766502  MEMB      202             0.0000000000
     25070       202  OYPE      O31             5.4191326950        1.7842405807      -14.2981233047  MEMB      202             0.0000000000
     25071       202  OYPE      C31             4.1988277470        1.7270464893      -13.9481150839  MEMB      202             0.0000000000
     25072       202  OYPE      O32             3.3561350473        2.5963376429      -14.1147025030  MEMB      202             0.0000000000
     25073       202  OYPE      C32             3.9743793093        0.3952023870      -13.2245304023  MEMB      202             0.0000000000
     25074       202  OYPE      H2X             2.9627210249        0.1157492651      -13.5889135956  MEMB      202             0.0000000000
     25075       202  OYPE      H2Y             4.7750202236       -0.2957694292      -13.5649022622  MEMB      202             0.0000000000
     25076       202  OYPE      C23             9.0416428422        1.1572982546      -12.8234670678  MEMB      202             0.0000000000
     25077       202  OYPE      H3R             9.4093617381        0.3852753832      -13.5327511456  MEMB      202             0.0000000000
     25078       202  OYPE      H3S             7.9342615927        1.0750756059      -12.7878681062  MEMB      202             0.0000000000
     25079       202  OYPE      C24             9.6349611677        0.5579472912      -11.5570972798  MEMB      202             0.0000000000
     25080       202  OYPE      H4R            10.7383616098        0.6443162141      -11.4603039105  MEMB      202             0.0000000000
     25081       202  OYPE      H4S             9.3571915528       -0.5175148479      -11.5804670580  MEMB      202             0.0000000000
     25082       202  OYPE      C25             9.0944397531        1.1819125407      -10.2623451084  MEMB      202             0.0000000000
     25083       202  OYPE      H5R             7.9942171480        1.1125683919      -10.4002673931  MEMB      202             0.0000000000
     25084       202  OYPE      H5S             9.3561971022        2.2369851219      -10.0329425123  MEMB      202             0.0000000000
     25085       202  OYPE      C26             9.6040679892        0.3025901153       -9.0931577970  MEMB      202             0.0000000000
     25086       202  OYPE      H6R            10.7129578621        0.2356922659       -9.1076085925  MEMB      202             0.0000000000
     25087       202  OYPE      H6S             9.3935009070       -0.7404344280       -9.4126617600  MEMB      202             0.0000000000
     25088       202  OYPE      C27             9.0325828003        0.7029662512       -7.7457971438  MEMB      202             0.0000000000
     25089       202  OYPE      H7R             8.0098103239        1.1175791163       -7.8736783008  MEMB      202             0.0000000000
     25090       202  OYPE      H7S             9.5696912354        1.5220453024       -7.2214450092  MEMB      202             0.0000000000
     25091       202  OYPE      C28             8.8274068320       -0.4497323675       -6.7090303704  MEMB      202             0.0000000000
     25092       202  OYPE      H8R             8.6486572805        0.0316624742       -5.7238250647  MEMB      202             0.0000000000
     25093       202  OYPE      H8S             9.7497322206       -1.0682067277       -6.6754731157  MEMB      202             0.0000000000
     25094       202  OYPE      C29             7.8186774100       -1.3981732726       -7.2213020667  MEMB      202             0.0000000000
     25095       202  OYPE      H9R             7.9159737459       -1.5558263227       -8.3055887064  MEMB      202             0.0000000000
     25096       202  OYPE      C210            6.7417054422       -1.8511953678       -6.5791816678  MEMB      202             0.0000000000
     25097       202  OYPE      H10R            6.2403417786       -2.7431514500       -6.9829746169  MEMB      202             0.0000000000
     25098       202  OYPE      C211            6.3631780776       -1.4125592159       -5.1297987801  MEMB      202             0.0000000000
     25099       202  OYPE      H11R            7.2953460774       -1.2481088301       -4.5481291944  MEMB      202             0.0000000000
     25100       202  OYPE      H11S            5.8606190892       -2.1903686591       -4.5159844230  MEMB      202             0.0000000000
     25101       202  OYPE      C212            5.5441933470       -0.1217543652       -5.1061677683  MEMB      202             0.0000000000
     25102       202  OYPE      H12R            4.7662397169       -0.0895435751       -5.8986773462  MEMB      202             0.0000000000
     25103       202  OYPE      H12S            6.1649153455        0.7590873423       -5.3766170343  MEMB      202             0.0000000000
     25104       202  OYPE      C213            4.7191392628        0.0066004929       -3.8389093241  MEMB      202             0.0000000000
     25105       202  OYPE      H13R            4.6788516497       -1.0118893170       -3.3968949710  MEMB      202             0.0000000000
     25106       202  OYPE      H13S            3.7356757951        0.4437629270       -4.1146072171  MEMB      202             0.0000000000
     25107       202  OYPE      C214            5.0881505324        1.0710685846       -2.8374326747  MEMB      202             0.0000000000
     25108       202  OYPE      H14R            6.0303144925        0.7933897726       -2.3182575087  MEMB      202             0.0000000000
     25109       202  OYPE      H14S            4.3749206447        0.9580597321       -1.9931262061  MEMB      202             0.0000000000
     25110       202  OYPE      C215            5.2217131119        2.5143842180       -3.3879533893  MEMB      202             0.0000000000
     25111       202  OYPE      H15R            4.2419367065        2.8327680711       -3.8038748785  MEMB      202             0.0000000000
     25112       202  OYPE      H15S            5.9351795637        2.5623679663       -4.2382386253  MEMB      202             0.0000000000
     25113       202  OYPE      C216            5.6351227161        3.6028598481       -2.3242565674  MEMB      202             0.0000000000
     25114       202  OYPE      H16R            5.0015146182        3.5115794452       -1.4162197770  MEMB      202             0.0000000000
     25115       202  OYPE      H16S            5.4139063431        4.6098603818       -2.7381818542  MEMB      202             0.0000000000
     25116       202  OYPE      H16T            6.7023889430        3.5227675668       -2.0261818212  MEMB      202             0.0000000000
     25117       202  OYPE      C33             3.8752543949        0.4830209636      -11.7068536814  MEMB      202             0.0000000000
     25118       202  OYPE      H3X             3.1869325048       -0.3571085830      -11.4729377382  MEMB      202             0.0000000000
     25119       202  OYPE      H3Y             3.3140330986        1.3993121378      -11.4244308241  MEMB      202             0.0000000000
     25120       202  OYPE      C34             5.1141618646        0.2030869889      -10.8403631663  MEMB      202             0.0000000000
     25121       202  OYPE      H4X             5.3648959006       -0.8786171064      -10.8033553152  MEMB      202             0.0000000000
     25122       202  OYPE      H4Y             6.0660186524        0.5480422594      -11.2978512032  MEMB      202             0.0000000000
     25123       202  OYPE      C35             4.8919971489        0.7314345725       -9.3876216544  MEMB      202             0.0000000000
     25124       202  OYPE      H5X             5.6662813348        0.1788593613       -8.8136302916  MEMB      202             0.0000000000
     25125       202  OYPE      H5Y             3.9408922496        0.2833416992       -9.0285474075  MEMB      202             0.0000000000
     25126       202  OYPE      C36             5.0303960666        2.1759684979       -9.3292072650  MEMB      202             0.0000000000
     25127       202  OYPE      H6X             5.9837319223        2.4395549378       -9.8351664321  MEMB      202             0.0000000000
     25128       202  OYPE      H6Y             4.1285576885        2.5896158249       -9.8291115710  MEMB      202             0.0000000000
     25129       202  OYPE      C37             5.0213584156        2.7292395058       -7.9500164896  MEMB      202             0.0000000000
     25130       202  OYPE      H7X             4.1484254914        2.4204371144       -7.3360530688  MEMB      202             0.0000000000
     25131       202  OYPE      H7Y             5.9380772954        2.3242714094       -7.4704868873  MEMB      202             0.0000000000
     25132       202  OYPE      C38             5.1624590596        4.2758785953       -7.8279273988  MEMB      202             0.0000000000
     25133       202  OYPE      H8X             4.1833949920        4.7535273342       -8.0461163288  MEMB      202             0.0000000000
     25134       202  OYPE      H8Y             5.3981968002        4.4992960444       -6.7654614782  MEMB      202             0.0000000000
     25135       202  OYPE      C39             6.2278254835        4.9320707551       -8.6533097908  MEMB      202             0.0000000000
     25136       202  OYPE      H9X             6.0289163583        5.0141311610       -9.7320600905  MEMB      202             0.0000000000
     25137       202  OYPE      C310            7.3590798762        5.5142975138       -8.2167621490  MEMB      202             0.0000000000
     25138       202  OYPE      H10X            7.9921443826        6.0644966770       -8.9284571884  MEMB      202             0.0000000000
     25139       202  OYPE      C311            7.7597327928        5.6621961555       -6.7782217249  MEMB      202             0.0000000000
     25140       202  OYPE      H11X            8.2229406901        6.6683502446       -6.6921205114  MEMB      202             0.0000000000
     25141       202  OYPE      H11Y            6.8697716238        5.6358368963       -6.1136949856  MEMB      202             0.0000000000
     25142       202  OYPE      C312            8.8112420255        4.5313881119       -6.3934207116  MEMB      202             0.0000000000
     25143       202  OYPE      H12X            9.8008930758        4.9231295141       -6.7119336769  MEMB      202             0.0000000000
     25144       202  OYPE      H12Y            8.6401729850        3.6110172571       -6.9917295393  MEMB      202             0.0000000000
     25145       202  OYPE      C313            8.8198154112        4.1617304408       -4.9084106230  MEMB      202             0.0000000000
     25146       202  OYPE      H13X            8.8372316070        5.0608311322       -4.2560029253  MEMB      202             0.0000000000
     25147       202  OYPE      H13Y            7.8688331452        3.6019852012       -4.7794181666  MEMB      202             0.0000000000
     25148       202  OYPE      C314            9.9707069299        3.1435916685       -4.4868448945  MEMB      202             0.0000000000
     25149       202  OYPE      H14X           10.9404595953        3.6856194592       -4.4971541382  MEMB      202             0.0000000000
     25150       202  OYPE      H14Y            9.9670032792        2.2234717583       -5.1094895488  MEMB      202             0.0000000000
     25151       202  OYPE      C315            9.9118762646        2.7813639681       -3.0183262021  MEMB      202             0.0000000000
     25152       202  OYPE      H15X            9.4321034795        3.5596892955       -2.3871775817  MEMB      202             0.0000000000
     25153       202  OYPE      H15Y           10.9867442104        2.8347275273       -2.7424037579  MEMB      202             0.0000000000
     25154       202  OYPE      C316            8.9769670989        1.5339304266       -2.7229518577  MEMB      202             0.0000000000
     25155       202  OYPE      H16X            9.2362394044        0.5858806670       -3.2409305157  MEMB      202             0.0000000000
     25156       202  OYPE      H16Y            7.9036659144        1.7739019467       -2.8803031913  MEMB      202             0.0000000000
     25157       202  OYPE      C317            9.2643528451        0.9286513697       -1.3035133975  MEMB      202             0.0000000000
     25158       202  OYPE      H17X            8.6059590841        0.0597937303       -1.0892124280  MEMB      202             0.0000000000
     25159       202  OYPE      H17Y            8.9895094599        1.6626842720       -0.5161265441  MEMB      202             0.0000000000
     25160       202  OYPE      C318           10.7340341241        0.4149763789       -0.9981883476  MEMB      202             0.0000000000
     25161       202  OYPE      H18X           11.4949151718        1.2239219655       -1.0296206456  MEMB      202             0.0000000000
     25162       202  OYPE      H18Y           10.7440266774       -0.0326349066        0.0186037065  MEMB      202             0.0000000000
     25163       202  OYPE      H18Z           11.0228652271       -0.3799800638       -1.7185624651  MEMB      202             0.0000000000
     25164       203  PMPE      N              -7.7352698125       -4.2105069394      -19.1991880354  MEMB      203             0.0000000000
     25165       203  PMPE      HN1            -7.3191576900       -3.8070179582      -18.3356792374  MEMB      203             0.0000000000
     25166       203  PMPE      HN2            -8.0015878246       -5.1972151376      -19.0066217247  MEMB      203             0.0000000000
     25167       203  PMPE      HN3            -6.9843415872       -4.1686457554      -19.9174877895  MEMB      203             0.0000000000
     25168       203  PMPE      C12            -8.9872078035       -3.4633184960      -19.6129899523  MEMB      203             0.0000000000
     25169       203  PMPE      H12A           -9.7148383780       -3.5821379117      -18.7818722718  MEMB      203             0.0000000000
     25170       203  PMPE      H12B           -9.3981415571       -3.9888365552      -20.5014072246  MEMB      203             0.0000000000
     25171       203  PMPE      C11            -8.6571351108       -1.9717363066      -19.9075382858  MEMB      203             0.0000000000
     25172       203  PMPE      H11A           -9.7069374401       -1.6359945614      -20.0472294671  MEMB      203             0.0000000000
     25173       203  PMPE      H11B           -8.1895992418       -1.8172054386      -20.9034555579  MEMB      203             0.0000000000
     25174       203  PMPE      P              -8.0496292243        0.3047554239      -18.6691007686  MEMB      203             0.0000000000
     25175       203  PMPE      O13            -8.0433580804        1.0409963521      -19.9768757685  MEMB      203             0.0000000000
     25176       203  PMPE      O14            -7.0230250098        0.6716677226      -17.6753384931  MEMB      203             0.0000000000
     25177       203  PMPE      O11            -9.5214873052        0.3886923224      -18.0590143189  MEMB      203             0.0000000000
     25178       203  PMPE      O12            -7.9149839726       -1.2392263964      -18.8999543774  MEMB      203             0.0000000000
     25179       203  PMPE      C1            -10.1414394265       -0.5219305391      -17.2160530185  MEMB      203             0.0000000000
     25180       203  PMPE      HA             -9.6656940398       -1.5189686382      -17.3339609205  MEMB      203             0.0000000000
     25181       203  PMPE      HB            -11.2220746918       -0.7154462458      -17.3866404303  MEMB      203             0.0000000000
     25182       203  PMPE      C2            -10.1561788302       -0.0596999628      -15.7107927740  MEMB      203             0.0000000000
     25183       203  PMPE      HS            -11.0800643762        0.5572655531      -15.7212819676  MEMB      203             0.0000000000
     25184       203  PMPE      O21            -8.9846934349        0.6294982221      -15.3154473617  MEMB      203             0.0000000000
     25185       203  PMPE      C21            -9.0454414928        2.0281218503      -15.2381797556  MEMB      203             0.0000000000
     25186       203  PMPE      O22            -9.9493353022        2.6898649656      -15.6216669719  MEMB      203             0.0000000000
     25187       203  PMPE      C22            -7.7367495587        2.5878172282      -14.7353388768  MEMB      203             0.0000000000
     25188       203  PMPE      H2R            -7.4939562222        3.4228329693      -15.4268020867  MEMB      203             0.0000000000
     25189       203  PMPE      H2S            -6.9295592834        1.8349374220      -14.8615804790  MEMB      203             0.0000000000
     25190       203  PMPE      C3            -10.3616579417       -1.3306812214      -14.8136658852  MEMB      203             0.0000000000
     25191       203  PMPE      HX             -9.6423872864       -2.1650895048      -14.9576571416  MEMB      203             0.0000000000
     25192       203  PMPE      HY            -11.3421143286       -1.7694309642      -15.0974349037  MEMB      203             0.0000000000
     25193       203  PMPE      O31           -10.2480138833       -0.9005741114      -13.4435352663  MEMB      203             0.0000000000
     25194       203  PMPE      C31           -11.2965508203       -0.1958508674      -13.0146306502  MEMB      203             0.0000000000
     25195       203  PMPE      O32           -12.3442140291       -0.1760362692      -13.5889126177  MEMB      203             0.0000000000
     25196       203  PMPE      C32           -10.9729611190        0.5957503329      -11.8053991785  MEMB      203             0.0000000000
     25197       203  PMPE      H2X           -10.9237511814        1.6841820693      -12.0226914159  MEMB      203             0.0000000000
     25198       203  PMPE      H2Y            -9.9745053229        0.3632641150      -11.3771970347  MEMB      203             0.0000000000
     25199       203  PMPE      C23            -7.7702008894        3.0161251705      -13.2827178947  MEMB      203             0.0000000000
     25200       203  PMPE      H3R            -8.7636611513        3.3836867828      -12.9476712914  MEMB      203             0.0000000000
     25201       203  PMPE      H3S            -7.1240541538        3.8977106405      -13.0836648132  MEMB      203             0.0000000000
     25202       203  PMPE      C24            -7.4267242159        1.8956950476      -12.3229477008  MEMB      203             0.0000000000
     25203       203  PMPE      H4R            -8.1776741833        1.1283401539      -12.6085378724  MEMB      203             0.0000000000
     25204       203  PMPE      H4S            -7.6273626064        2.2727964103      -11.2973457532  MEMB      203             0.0000000000
     25205       203  PMPE      C25            -5.9338549999        1.3010345569      -12.4335176871  MEMB      203             0.0000000000
     25206       203  PMPE      H5R            -5.1906373151        2.1160852367      -12.5663353511  MEMB      203             0.0000000000
     25207       203  PMPE      H5S            -6.0529138845        0.5570422585      -13.2499863048  MEMB      203             0.0000000000
     25208       203  PMPE      C26            -5.6929230892        0.3862072873      -11.1673517896  MEMB      203             0.0000000000
     25209       203  PMPE      H6R            -5.5965782274        0.8922653188      -10.1830019962  MEMB      203             0.0000000000
     25210       203  PMPE      H6S            -4.7405115462       -0.1837866252      -11.2157277160  MEMB      203             0.0000000000
     25211       203  PMPE      C27            -6.8270432637       -0.5998586290      -10.9062103751  MEMB      203             0.0000000000
     25212       203  PMPE      H7R            -6.9172997077       -1.2181974597      -11.8248136664  MEMB      203             0.0000000000
     25213       203  PMPE      H7S            -7.7621978589       -0.0012382238      -10.8679944213  MEMB      203             0.0000000000
     25214       203  PMPE      C28            -6.7285219372       -1.4559023441       -9.6213180373  MEMB      203             0.0000000000
     25215       203  PMPE      H8R            -7.7203757804       -1.8459415138       -9.3076043703  MEMB      203             0.0000000000
     25216       203  PMPE      H8S            -6.3940952713       -0.7743872429       -8.8101351778  MEMB      203             0.0000000000
     25217       203  PMPE      C29            -5.6812220086       -2.5421593712       -9.7677890103  MEMB      203             0.0000000000
     25218       203  PMPE      H9R            -4.6933558205       -2.1630055669      -10.1064387964  MEMB      203             0.0000000000
     25219       203  PMPE      C217           -6.3035716240       -3.7302939821      -10.5259859560  MEMB      203             0.0000000000
     25220       203  PMPE      H17R           -5.6481594978       -4.1179649603      -11.2960734948  MEMB      203             0.0000000000
     25221       203  PMPE      H17S           -7.3852406752       -3.6873276420      -10.4938146874  MEMB      203             0.0000000000
     25222       203  PMPE      C210           -5.6884434948       -3.9686078425       -9.1900596539  MEMB      203             0.0000000000
     25223       203  PMPE      H10R           -4.7552358238       -4.5613934281       -9.2998298386  MEMB      203             0.0000000000
     25224       203  PMPE      C211           -6.5858540563       -4.2283958640       -7.9757492389  MEMB      203             0.0000000000
     25225       203  PMPE      H11R           -6.6921004129       -5.3109611770       -7.7497302940  MEMB      203             0.0000000000
     25226       203  PMPE      H11S           -7.6281443846       -3.8645852872       -8.1006250771  MEMB      203             0.0000000000
     25227       203  PMPE      C212           -6.0049367536       -3.4366362571       -6.7938013689  MEMB      203             0.0000000000
     25228       203  PMPE      H12R           -5.7982181093       -2.3800552918       -7.0680731317  MEMB      203             0.0000000000
     25229       203  PMPE      H12S           -4.9910837013       -3.8069661606       -6.5305933318  MEMB      203             0.0000000000
     25230       203  PMPE      C213           -6.8891872925       -3.6150374817       -5.5597843406  MEMB      203             0.0000000000
     25231       203  PMPE      H13R           -6.9570140079       -4.6811057825       -5.2544662319  MEMB      203             0.0000000000
     25232       203  PMPE      H13S           -7.9010596139       -3.1657606711       -5.6524424312  MEMB      203             0.0000000000
     25233       203  PMPE      C214           -6.1920591941       -2.7448330226       -4.4755389818  MEMB      203             0.0000000000
     25234       203  PMPE      H14R           -6.2558710713       -1.6894759708       -4.8168169836  MEMB      203             0.0000000000
     25235       203  PMPE      H14S           -5.1274404065       -3.0125327647       -4.3045279134  MEMB      203             0.0000000000
     25236       203  PMPE      C215           -6.9454636078       -2.7653465112       -3.1300994325  MEMB      203             0.0000000000
     25237       203  PMPE      H15R           -6.9337374233       -3.7881044973       -2.6963376244  MEMB      203             0.0000000000
     25238       203  PMPE      H15S           -8.0349194726       -2.6000973347       -3.2718725564  MEMB      203             0.0000000000
     25239       203  PMPE      C216           -6.4810169720       -1.7296892852       -2.1088784341  MEMB      203             0.0000000000
     25240       203  PMPE      H16R           -6.7806557956       -2.1033756992       -1.1064326624  MEMB      203             0.0000000000
     25241       203  PMPE      H16S           -5.3822078269       -1.5837369336       -2.0337967852  MEMB      203             0.0000000000
     25242       203  PMPE      H16T           -6.9245689993       -0.7364372883       -2.3347829602  MEMB      203             0.0000000000
     25243       203  PMPE      C33           -12.0018922333        0.2434980441      -10.7514112913  MEMB      203             0.0000000000
     25244       203  PMPE      H3X           -12.1270650070       -0.8600430919      -10.7222561450  MEMB      203             0.0000000000
     25245       203  PMPE      H3Y           -12.9759756707        0.7668291107      -10.8591460986  MEMB      203             0.0000000000
     25246       203  PMPE      C34           -11.4950101110        0.4942630893       -9.3039682242  MEMB      203             0.0000000000
     25247       203  PMPE      H4X           -12.1094180465       -0.2435510292       -8.7449922119  MEMB      203             0.0000000000
     25248       203  PMPE      H4Y           -11.7029411152        1.5578234998       -9.0591728709  MEMB      203             0.0000000000
     25249       203  PMPE      C35           -10.1443246391        0.2036744726       -8.9393197229  MEMB      203             0.0000000000
     25250       203  PMPE      H5X            -9.4485677907        0.9584416475       -9.3642549077  MEMB      203             0.0000000000
     25251       203  PMPE      H5Y            -9.7633263596       -0.7895457924       -9.2597487048  MEMB      203             0.0000000000
     25252       203  PMPE      C36            -9.8903940689        0.2073636948       -7.4300210797  MEMB      203             0.0000000000
     25253       203  PMPE      H6X            -8.8247392890       -0.0058085807       -7.1992430384  MEMB      203             0.0000000000
     25254       203  PMPE      H6Y           -10.4465949691       -0.6810352941       -7.0616345620  MEMB      203             0.0000000000
     25255       203  PMPE      C37           -10.3926607362        1.5282071983       -6.8034778602  MEMB      203             0.0000000000
     25256       203  PMPE      H7X           -11.5030195088        1.5585489607       -6.8259196136  MEMB      203             0.0000000000
     25257       203  PMPE      H7Y           -10.0728677987        2.4161929172       -7.3895960146  MEMB      203             0.0000000000
     25258       203  PMPE      C38           -10.0062599646        1.8772784226       -5.3943941225  MEMB      203             0.0000000000
     25259       203  PMPE      H8X           -10.5965381860        2.7407390413       -5.0197896469  MEMB      203             0.0000000000
     25260       203  PMPE      H8Y            -8.9185990995        2.0969731661       -5.3391781757  MEMB      203             0.0000000000
     25261       203  PMPE      C39           -10.2844881340        0.6975070278       -4.4319131612  MEMB      203             0.0000000000
     25262       203  PMPE      H9X            -9.6013006636       -0.0540450230       -4.8821855865  MEMB      203             0.0000000000
     25263       203  PMPE      H9Y           -11.3209284049        0.3336493578       -4.5984074331  MEMB      203             0.0000000000
     25264       203  PMPE      C310           -9.9271901526        0.8028366492       -2.9441249674  MEMB      203             0.0000000000
     25265       203  PMPE      H10X          -10.3128192469        1.7049503816       -2.4227782920  MEMB      203             0.0000000000
     25266       203  PMPE      H10Y           -8.8207731828        0.7644530582       -2.8509099858  MEMB      203             0.0000000000
     25267       203  PMPE      C311          -10.4525054802       -0.5027108365       -2.1764984565  MEMB      203             0.0000000000
     25268       203  PMPE      H11X          -10.0864269616       -0.2564714068       -1.1568558949  MEMB      203             0.0000000000
     25269       203  PMPE      H11Y           -9.9396444634       -1.4646965372       -2.3906912792  MEMB      203             0.0000000000
     25270       203  PMPE      C312          -11.9488392477       -0.7349811244       -2.2519110194  MEMB      203             0.0000000000
     25271       203  PMPE      H12X          -12.2734995970       -0.9694593708       -3.2882195032  MEMB      203             0.0000000000
     25272       203  PMPE      H12Y          -12.5035872420        0.1363645940       -1.8428468372  MEMB      203             0.0000000000
     25273       203  PMPE      C313          -12.3444760977       -1.9965419202       -1.3772036786  MEMB      203             0.0000000000
     25274       203  PMPE      H13X          -11.7545359482       -2.0966105898       -0.4411071586  MEMB      203             0.0000000000
     25275       203  PMPE      H13Y          -12.0673720639       -2.8959014252       -1.9677023771  MEMB      203             0.0000000000
     25276       203  PMPE      C314          -13.8182209121       -2.1410566911       -1.0042126577  MEMB      203             0.0000000000
     25277       203  PMPE      H14X          -13.9966349325       -3.1208943076       -0.5118631049  MEMB      203             0.0000000000
     25278       203  PMPE      H14Y          -14.3552989135       -2.0650228599       -1.9737941315  MEMB      203             0.0000000000
     25279       203  PMPE      C315          -14.4235288306       -0.9280340753       -0.2148683463  MEMB      203             0.0000000000
     25280       203  PMPE      H15X          -15.4368850509       -1.2878507962        0.0643476376  MEMB      203             0.0000000000
     25281       203  PMPE      H15Y          -14.4640103803       -0.1291293556       -0.9858645462  MEMB      203             0.0000000000
     25282       203  PMPE      C316          -13.7202952411       -0.4617559349        1.0736461126  MEMB      203             0.0000000000
     25283       203  PMPE      H16X          -12.6305738317       -0.3212195707        0.9090906792  MEMB      203             0.0000000000
     25284       203  PMPE      H16Y          -13.8732246453       -1.2336987127        1.8578888842  MEMB      203             0.0000000000
     25285       203  PMPE      H16Z          -14.2400185808        0.4588627092        1.4152147967  MEMB      203             0.0000000000
     25286       204  PMPE      N              -7.2337190292        7.0537292973      -20.7147005382  MEMB      204             0.0000000000
     25287       204  PMPE      HN1            -6.4372768062        6.4350192170      -20.9686254107  MEMB      204             0.0000000000
     25288       204  PMPE      HN2            -8.1442644360        6.5836944685      -20.8923922787  MEMB      204             0.0000000000
     25289       204  PMPE      HN3            -7.1440256583        7.9816700832      -21.1756570749  MEMB      204             0.0000000000
     25290       204  PMPE      C12            -7.2677694310        7.0795840103      -19.2388332331  MEMB      204             0.0000000000
     25291       204  PMPE      H12A           -7.3330570785        5.9910660979      -19.0262606403  MEMB      204             0.0000000000
     25292       204  PMPE      H12B           -8.1562100921        7.6353195044      -18.8698450598  MEMB      204             0.0000000000
     25293       204  PMPE      C11            -5.8756540279        7.4781897778      -18.6135625686  MEMB      204             0.0000000000
     25294       204  PMPE      H11A           -5.9056760896        7.1171089697      -17.5633053092  MEMB      204             0.0000000000
     25295       204  PMPE      H11B           -5.7048850495        8.5753022977      -18.6523336137  MEMB      204             0.0000000000
     25296       204  PMPE      P              -3.5017158030        6.7025396012      -18.6824213140  MEMB      204             0.0000000000
     25297       204  PMPE      O13            -3.4579896520        7.4519962405      -17.4082711619  MEMB      204             0.0000000000
     25298       204  PMPE      O14            -2.3985760458        6.6971680410      -19.6929274638  MEMB      204             0.0000000000
     25299       204  PMPE      O11            -3.6589919687        5.2059589593      -18.2438938572  MEMB      204             0.0000000000
     25300       204  PMPE      O12            -4.8273924550        6.9377030943      -19.4053898475  MEMB      204             0.0000000000
     25301       204  PMPE      C1             -4.3219755485        4.3200926276      -19.2076937666  MEMB      204             0.0000000000
     25302       204  PMPE      HA             -3.7359158371        4.1845367337      -20.1417599154  MEMB      204             0.0000000000
     25303       204  PMPE      HB             -5.3196543414        4.6862569375      -19.5315480775  MEMB      204             0.0000000000
     25304       204  PMPE      C2             -4.6680984000        2.9560039786      -18.4875926639  MEMB      204             0.0000000000
     25305       204  PMPE      HS             -5.3535848400        2.4017197621      -19.1637571541  MEMB      204             0.0000000000
     25306       204  PMPE      O21            -5.2031539792        3.2527159648      -17.1589450689  MEMB      204             0.0000000000
     25307       204  PMPE      C21            -6.4855081739        3.4733166883      -17.1380310162  MEMB      204             0.0000000000
     25308       204  PMPE      O22            -7.1902859457        3.6874224737      -18.1137536130  MEMB      204             0.0000000000
     25309       204  PMPE      C22            -7.0058030900        3.4033694087      -15.7301077325  MEMB      204             0.0000000000
     25310       204  PMPE      H2R            -6.3659759429        3.9047290240      -14.9727563325  MEMB      204             0.0000000000
     25311       204  PMPE      H2S            -6.9014356354        2.3518537575      -15.3869702228  MEMB      204             0.0000000000
     25312       204  PMPE      C3             -3.3271875236        2.0962024303      -18.4306435788  MEMB      204             0.0000000000
     25313       204  PMPE      HX             -2.9204715228        1.7135332208      -19.3910951162  MEMB      204             0.0000000000
     25314       204  PMPE      HY             -3.5564014323        1.1663754744      -17.8674350049  MEMB      204             0.0000000000
     25315       204  PMPE      O31            -2.2855112760        2.9255697630      -17.9174287964  MEMB      204             0.0000000000
     25316       204  PMPE      C31            -1.8836246860        2.6785649795      -16.6979417995  MEMB      204             0.0000000000
     25317       204  PMPE      O32            -2.4652160952        1.9258135927      -15.9307942127  MEMB      204             0.0000000000
     25318       204  PMPE      C32            -0.6301727942        3.5199088171      -16.4819802987  MEMB      204             0.0000000000
     25319       204  PMPE      H2X            -0.1100117304        3.6628755255      -17.4532239063  MEMB      204             0.0000000000
     25320       204  PMPE      H2Y             0.0628848780        2.9172661379      -15.8568293269  MEMB      204             0.0000000000
     25321       204  PMPE      C23            -8.4605361642        3.8483465597      -15.6522341609  MEMB      204             0.0000000000
     25322       204  PMPE      H3R            -9.1919106957        3.2464187321      -16.2328329959  MEMB      204             0.0000000000
     25323       204  PMPE      H3S            -8.5197569038        4.8984488771      -16.0101433994  MEMB      204             0.0000000000
     25324       204  PMPE      C24            -8.9710992997        3.8943924652      -14.1835600388  MEMB      204             0.0000000000
     25325       204  PMPE      H4R            -8.6861811322        2.9309425764      -13.7093170436  MEMB      204             0.0000000000
     25326       204  PMPE      H4S           -10.0682967523        4.0685274703      -14.1960291491  MEMB      204             0.0000000000
     25327       204  PMPE      C25            -8.3134761662        4.9461684017      -13.2527079450  MEMB      204             0.0000000000
     25328       204  PMPE      H5R            -7.2090990210        5.0167889929      -13.3511189935  MEMB      204             0.0000000000
     25329       204  PMPE      H5S            -8.4959064014        4.8724678279      -12.1592690144  MEMB      204             0.0000000000
     25330       204  PMPE      C26            -8.7661841709        6.3434077500      -13.6566265652  MEMB      204             0.0000000000
     25331       204  PMPE      H6R            -9.8768092982        6.3610708452      -13.6338143067  MEMB      204             0.0000000000
     25332       204  PMPE      H6S            -8.3903328372        6.7347403557      -14.6261190637  MEMB      204             0.0000000000
     25333       204  PMPE      C27            -8.4388802874        7.4967381095      -12.6749777081  MEMB      204             0.0000000000
     25334       204  PMPE      H7R            -8.8430378706        8.4069720074      -13.1673715897  MEMB      204             0.0000000000
     25335       204  PMPE      H7S            -7.3290055091        7.4764984510      -12.7206856922  MEMB      204             0.0000000000
     25336       204  PMPE      C28            -8.9116870353        7.2732476326      -11.1591282416  MEMB      204             0.0000000000
     25337       204  PMPE      H8R            -8.6783428365        6.2253253963      -10.8732423480  MEMB      204             0.0000000000
     25338       204  PMPE      H8S           -10.0146324021        7.4047319957      -11.1824657446  MEMB      204             0.0000000000
     25339       204  PMPE      C29            -8.2039906236        8.2977989746      -10.2261376279  MEMB      204             0.0000000000
     25340       204  PMPE      H9R            -7.9605898080        9.3111008643      -10.6112306947  MEMB      204             0.0000000000
     25341       204  PMPE      C217           -6.8110164663        7.7118583622       -9.7875977238  MEMB      204             0.0000000000
     25342       204  PMPE      H17R           -6.1043971289        8.5208900380       -9.6495908658  MEMB      204             0.0000000000
     25343       204  PMPE      H17S           -6.5813195073        6.7594698246      -10.2492083425  MEMB      204             0.0000000000
     25344       204  PMPE      C210           -8.0069369202        7.9049395930       -8.8253897554  MEMB      204             0.0000000000
     25345       204  PMPE      H10R           -8.0453383293        8.8308435120       -8.2125696110  MEMB      204             0.0000000000
     25346       204  PMPE      C211           -8.8529262493        6.6787123022       -8.2437329769  MEMB      204             0.0000000000
     25347       204  PMPE      H11R           -8.7812653164        5.8290232998       -8.9559226753  MEMB      204             0.0000000000
     25348       204  PMPE      H11S           -9.8756473934        7.1012143021       -8.3430029620  MEMB      204             0.0000000000
     25349       204  PMPE      C212           -8.2862690529        6.2578421552       -6.8990309127  MEMB      204             0.0000000000
     25350       204  PMPE      H12R           -8.2760217206        7.0944704421       -6.1680936782  MEMB      204             0.0000000000
     25351       204  PMPE      H12S           -7.1957032366        6.1198442734       -7.0601010518  MEMB      204             0.0000000000
     25352       204  PMPE      C213           -8.9233439736        5.0658095147       -6.2875236457  MEMB      204             0.0000000000
     25353       204  PMPE      H13R           -8.9170166918        4.3262224982       -7.1165540517  MEMB      204             0.0000000000
     25354       204  PMPE      H13S           -9.9765430290        5.3542395639       -6.0828256353  MEMB      204             0.0000000000
     25355       204  PMPE      C214           -8.2655433820        4.4802625591       -5.0607466981  MEMB      204             0.0000000000
     25356       204  PMPE      H14R           -7.2152593845        4.3292502184       -5.3900191083  MEMB      204             0.0000000000
     25357       204  PMPE      H14S           -8.5938147518        3.4252762565       -4.9442882472  MEMB      204             0.0000000000
     25358       204  PMPE      C215           -8.4601376665        5.3640138403       -3.7459055507  MEMB      204             0.0000000000
     25359       204  PMPE      H15R           -9.5592404995        5.5245457479       -3.7687937111  MEMB      204             0.0000000000
     25360       204  PMPE      H15S           -7.8662236504        6.2705026558       -3.9905790661  MEMB      204             0.0000000000
     25361       204  PMPE      C216           -7.8465131944        4.7470967156       -2.5077450288  MEMB      204             0.0000000000
     25362       204  PMPE      H16R           -7.7844135602        3.6379276189       -2.5221902962  MEMB      204             0.0000000000
     25363       204  PMPE      H16S           -6.7968850037        5.1047439390       -2.4392603731  MEMB      204             0.0000000000
     25364       204  PMPE      H16T           -8.3586233758        5.1955327448       -1.6296965842  MEMB      204             0.0000000000
     25365       204  PMPE      C33            -1.0041348322        4.9680997514      -15.8990378536  MEMB      204             0.0000000000
     25366       204  PMPE      H3X            -1.8832117562        5.4462653597      -16.3816373756  MEMB      204             0.0000000000
     25367       204  PMPE      H3Y            -0.1193733744        5.5952161199      -16.1403740541  MEMB      204             0.0000000000
     25368       204  PMPE      C34            -1.2287357338        4.8876536657      -14.3612292632  MEMB      204             0.0000000000
     25369       204  PMPE      H4X            -1.0008419267        5.9293385591      -14.0493353668  MEMB      204             0.0000000000
     25370       204  PMPE      H4Y            -0.4754538346        4.2706373669      -13.8262720506  MEMB      204             0.0000000000
     25371       204  PMPE      C35            -2.6319564759        4.6572760928      -13.8315030563  MEMB      204             0.0000000000
     25372       204  PMPE      H5X            -3.0318602784        3.7509162718      -14.3344040878  MEMB      204             0.0000000000
     25373       204  PMPE      H5Y            -3.2750750408        5.5418935259      -14.0268780094  MEMB      204             0.0000000000
     25374       204  PMPE      C36            -2.5935284749        4.4557904899      -12.2573893850  MEMB      204             0.0000000000
     25375       204  PMPE      H6X            -1.7622277465        5.0923619619      -11.8858558580  MEMB      204             0.0000000000
     25376       204  PMPE      H6Y            -2.3564636885        3.3770900798      -12.1368617820  MEMB      204             0.0000000000
     25377       204  PMPE      C37            -3.9566912178        4.7961831151      -11.6125946450  MEMB      204             0.0000000000
     25378       204  PMPE      H7X            -4.7030271669        4.8945864773      -12.4296749977  MEMB      204             0.0000000000
     25379       204  PMPE      H7Y            -3.8135732930        5.8113925599      -11.1845898597  MEMB      204             0.0000000000
     25380       204  PMPE      C38            -4.4177069541        3.9491979330      -10.3856143379  MEMB      204             0.0000000000
     25381       204  PMPE      H8X            -4.8226950766        2.9859738783      -10.7631127236  MEMB      204             0.0000000000
     25382       204  PMPE      H8Y            -5.3103547215        4.5083689368      -10.0323030525  MEMB      204             0.0000000000
     25383       204  PMPE      C39            -3.5414240752        3.7231130304       -9.0846551792  MEMB      204             0.0000000000
     25384       204  PMPE      H9X            -2.6086870286        3.1786142214       -9.3451224024  MEMB      204             0.0000000000
     25385       204  PMPE      H9Y            -4.1430543992        3.2853014893       -8.2596201365  MEMB      204             0.0000000000
     25386       204  PMPE      C310           -3.0259166407        5.0265002479       -8.3608058755  MEMB      204             0.0000000000
     25387       204  PMPE      H10X           -2.1673309398        5.4122363341       -8.9510258879  MEMB      204             0.0000000000
     25388       204  PMPE      H10Y           -2.5965660930        4.5088195925       -7.4765063483  MEMB      204             0.0000000000
     25389       204  PMPE      C311           -4.1101301334        6.0801237720       -7.9739727031  MEMB      204             0.0000000000
     25390       204  PMPE      H11X           -5.0784084725        5.6244979590       -7.6753699254  MEMB      204             0.0000000000
     25391       204  PMPE      H11Y           -4.2237116397        6.7119142218       -8.8807584163  MEMB      204             0.0000000000
     25392       204  PMPE      C312           -3.7043076544        7.0309030145       -6.7828462075  MEMB      204             0.0000000000
     25393       204  PMPE      H12X           -2.8462338177        7.5768190469       -7.2300666762  MEMB      204             0.0000000000
     25394       204  PMPE      H12Y           -3.3717538995        6.5100380794       -5.8595753202  MEMB      204             0.0000000000
     25395       204  PMPE      C313           -4.7957077725        8.0896130576       -6.4033061403  MEMB      204             0.0000000000
     25396       204  PMPE      H13X           -5.4933633051        7.4601915100       -5.8104935536  MEMB      204             0.0000000000
     25397       204  PMPE      H13Y           -5.3246826516        8.4808172412       -7.2985519977  MEMB      204             0.0000000000
     25398       204  PMPE      C314           -4.1273392981        9.2885663849       -5.6798958152  MEMB      204             0.0000000000
     25399       204  PMPE      H14X           -4.9562795467        9.9564270235       -5.3618688389  MEMB      204             0.0000000000
     25400       204  PMPE      H14Y           -3.5108063933        9.8136398770       -6.4404924874  MEMB      204             0.0000000000
     25401       204  PMPE      C315           -3.2007996937        8.9029144774       -4.4223137949  MEMB      204             0.0000000000
     25402       204  PMPE      H15X           -2.3527382231        9.6169901609       -4.3501420703  MEMB      204             0.0000000000
     25403       204  PMPE      H15Y           -2.7153172153        7.9124040100       -4.5546649313  MEMB      204             0.0000000000
     25404       204  PMPE      C316           -3.8899066074        8.8566824658       -3.0508624055  MEMB      204             0.0000000000
     25405       204  PMPE      H16X           -4.5292229460        7.9482884487       -3.0712544570  MEMB      204             0.0000000000
     25406       204  PMPE      H16Y           -4.4867673648        9.7780492799       -2.8800963678  MEMB      204             0.0000000000
     25407       204  PMPE      H16Z           -3.1946963030        8.8449976015       -2.1843382109  MEMB      204             0.0000000000
     25408       205  PMPG      C13             1.9256909670        6.2444459681      -21.2623419964  MEMB      205             0.0000000000
     25409       205  PMPG      H13A            2.4679252844        5.2777657987      -21.1859723509  MEMB      205             0.0000000000
     25410       205  PMPG      H13B            0.8815322058        6.1234258659      -21.6220748728  MEMB      205             0.0000000000
     25411       205  PMPG      OC3             2.3231467208        6.9358880166      -22.4424854233  MEMB      205             0.0000000000
     25412       205  PMPG      HO3             2.2727148067        6.2518476240      -23.1141591229  MEMB      205             0.0000000000
     25413       205  PMPG      C12             1.9264316301        7.1028908918      -19.9825705582  MEMB      205             0.0000000000
     25414       205  PMPG      H12A            1.2909476925        6.5784201123      -19.2316580423  MEMB      205             0.0000000000
     25415       205  PMPG      OC2             1.3377127038        8.3775285564      -20.2447722739  MEMB      205             0.0000000000
     25416       205  PMPG      HO2             1.5133105846        8.8764614209      -19.4171562874  MEMB      205             0.0000000000
     25417       205  PMPG      C11             3.4698527174        7.1951416341      -19.4633432456  MEMB      205             0.0000000000
     25418       205  PMPG      H11A            4.0743458909        7.7125101929      -20.2387391384  MEMB      205             0.0000000000
     25419       205  PMPG      H11B            3.9435583601        6.2060382261      -19.2855838852  MEMB      205             0.0000000000
     25420       205  PMPG      P               4.7181904939        8.0952830487      -17.3377638388  MEMB      205             0.0000000000
     25421       205  PMPG      O13             6.0042330031        8.2349322039      -18.0507463798  MEMB      205             0.0000000000
     25422       205  PMPG      O14             4.6226440989        7.1275325225      -16.2490302126  MEMB      205             0.0000000000
     25423       205  PMPG      O11             4.2606983513        9.4124206942      -16.7290289696  MEMB      205             0.0000000000
     25424       205  PMPG      O12             3.3977875159        7.8539764555      -18.2379171502  MEMB      205             0.0000000000
     25425       205  PMPG      C1              3.9927536689       10.6204972610      -17.5137396054  MEMB      205             0.0000000000
     25426       205  PMPG      HA              2.9664721728       10.6020778224      -17.9388609847  MEMB      205             0.0000000000
     25427       205  PMPG      HB              4.6552641066       10.7395460317      -18.3976108111  MEMB      205             0.0000000000
     25428       205  PMPG      C2              4.1699481651       11.7575110914      -16.5417406876  MEMB      205             0.0000000000
     25429       205  PMPG      HS              4.4016876304       12.6359539534      -17.1812370615  MEMB      205             0.0000000000
     25430       205  PMPG      O21             5.2515125063       11.4851195894      -15.5970743748  MEMB      205             0.0000000000
     25431       205  PMPG      C21             6.4820010922       11.1643547804      -16.0262052456  MEMB      205             0.0000000000
     25432       205  PMPG      O22             6.7897001883       11.2090652138      -17.1754124750  MEMB      205             0.0000000000
     25433       205  PMPG      C22             7.3981780645       11.0323220249      -14.8545834497  MEMB      205             0.0000000000
     25434       205  PMPG      H2R             7.9163537513       12.0147732162      -14.8300102312  MEMB      205             0.0000000000
     25435       205  PMPG      H2S             8.0385481696       10.1504034289      -15.0701451947  MEMB      205             0.0000000000
     25436       205  PMPG      C3              2.9049849441       12.0838655546      -15.6306391445  MEMB      205             0.0000000000
     25437       205  PMPG      HX              2.1127978803       12.5192251095      -16.2765669958  MEMB      205             0.0000000000
     25438       205  PMPG      HY              3.2811229470       12.8886123648      -14.9633883646  MEMB      205             0.0000000000
     25439       205  PMPG      O31             2.3640152133       10.9705195685      -14.9615498895  MEMB      205             0.0000000000
     25440       205  PMPG      C31             2.2107816335       11.0214005101      -13.6963210372  MEMB      205             0.0000000000
     25441       205  PMPG      O32             2.2085835118       12.0140143039      -13.0214109610  MEMB      205             0.0000000000
     25442       205  PMPG      C32             1.9172299138        9.5708784532      -13.1711225979  MEMB      205             0.0000000000
     25443       205  PMPG      H2X             1.0237317987        9.1931415154      -13.7126915794  MEMB      205             0.0000000000
     25444       205  PMPG      H2Y             1.6398319385        9.6141254290      -12.0961803406  MEMB      205             0.0000000000
     25445       205  PMPG      C23             6.5360455442       10.8398895110      -13.5978925580  MEMB      205             0.0000000000
     25446       205  PMPG      H3R             5.6855183071       10.1254116768      -13.6190091847  MEMB      205             0.0000000000
     25447       205  PMPG      H3S             5.9945566844       11.8072901696      -13.5254587025  MEMB      205             0.0000000000
     25448       205  PMPG      C24             7.4889925145       10.6890454111      -12.3586251920  MEMB      205             0.0000000000
     25449       205  PMPG      H4R             8.4003645388       11.3164167407      -12.4592590243  MEMB      205             0.0000000000
     25450       205  PMPG      H4S             7.8174120001        9.6369544503      -12.2187449875  MEMB      205             0.0000000000
     25451       205  PMPG      C25             6.7383196894       11.0037450672      -11.0492223907  MEMB      205             0.0000000000
     25452       205  PMPG      H5R             7.3838314535       10.7119950010      -10.1933501869  MEMB      205             0.0000000000
     25453       205  PMPG      H5S             5.8254058250       10.3768719321      -10.9601175602  MEMB      205             0.0000000000
     25454       205  PMPG      C26             6.2613294782       12.5369874887      -11.0386530589  MEMB      205             0.0000000000
     25455       205  PMPG      H6R             5.3871513749       12.4605751640      -11.7200448591  MEMB      205             0.0000000000
     25456       205  PMPG      H6S             7.0270043628       13.1856390434      -11.5154275760  MEMB      205             0.0000000000
     25457       205  PMPG      C27             5.7739830989       12.9295131067       -9.6851938068  MEMB      205             0.0000000000
     25458       205  PMPG      H7R             5.5470549280       14.0137421837       -9.7704695305  MEMB      205             0.0000000000
     25459       205  PMPG      H7S             6.5411584010       12.7485000073       -8.9022517522  MEMB      205             0.0000000000
     25460       205  PMPG      C28             4.4829900526       12.1550731741       -9.3088933930  MEMB      205             0.0000000000
     25461       205  PMPG      H8R             4.6957925158       11.1961662233       -8.7897270923  MEMB      205             0.0000000000
     25462       205  PMPG      H8S             3.7966787612       11.9720544679      -10.1631776531  MEMB      205             0.0000000000
     25463       205  PMPG      C29             3.6477625612       12.9465807074       -8.2699898521  MEMB      205             0.0000000000
     25464       205  PMPG      H9R             3.0306147850       13.8155501492       -8.5835847788  MEMB      205             0.0000000000
     25465       205  PMPG      C217            2.8464146520       12.1502792140       -7.2321859497  MEMB      205             0.0000000000
     25466       205  PMPG      H17R            1.8028281407       12.4265557027       -7.1456540031  MEMB      205             0.0000000000
     25467       205  PMPG      H17S            3.1298382465       11.1329523515       -7.4721983740  MEMB      205             0.0000000000
     25468       205  PMPG      C210            4.0693764574       13.0240284365       -6.7740719255  MEMB      205             0.0000000000
     25469       205  PMPG      H10R            3.7351619594       13.9671184389       -6.2911611856  MEMB      205             0.0000000000
     25470       205  PMPG      C211            5.3046166058       12.2849459009       -6.3125790898  MEMB      205             0.0000000000
     25471       205  PMPG      H11R            5.6605777185       11.5570346149       -7.0726821856  MEMB      205             0.0000000000
     25472       205  PMPG      H11S            6.1662491908       12.9798548499       -6.2176460650  MEMB      205             0.0000000000
     25473       205  PMPG      C212            5.0514128432       11.6212431172       -4.9539728771  MEMB      205             0.0000000000
     25474       205  PMPG      H12R            4.3762575318       10.7392984114       -4.9796553903  MEMB      205             0.0000000000
     25475       205  PMPG      H12S            4.5309200903       12.3359643703       -4.2812312586  MEMB      205             0.0000000000
     25476       205  PMPG      C213            6.1981568667       11.4009959604       -4.0605914316  MEMB      205             0.0000000000
     25477       205  PMPG      H13R            6.5404301382       12.3999350414       -3.7152070591  MEMB      205             0.0000000000
     25478       205  PMPG      H13S            7.0226226175       10.9787543394       -4.6740162910  MEMB      205             0.0000000000
     25479       205  PMPG      C214            5.8440362885       10.4457874419       -2.9281248185  MEMB      205             0.0000000000
     25480       205  PMPG      H14R            6.7793605752        9.9793743109       -2.5513654763  MEMB      205             0.0000000000
     25481       205  PMPG      H14S            5.2905256925        9.5369062023       -3.2473140365  MEMB      205             0.0000000000
     25482       205  PMPG      C215            4.8855990467       11.0208708769       -1.8794675189  MEMB      205             0.0000000000
     25483       205  PMPG      H15R            3.8870978088       11.1532201074       -2.3482964974  MEMB      205             0.0000000000
     25484       205  PMPG      H15S            5.2424874967       11.9615001753       -1.4081203488  MEMB      205             0.0000000000
     25485       205  PMPG      C216            4.7601250916       10.1600993970       -0.5660637783  MEMB      205             0.0000000000
     25486       205  PMPG      H16R            3.9566095774       10.4059491000        0.1607384688  MEMB      205             0.0000000000
     25487       205  PMPG      H16S            5.7546010009       10.0327156544       -0.0874072147  MEMB      205             0.0000000000
     25488       205  PMPG      H16T            4.4322343689        9.1719866530       -0.9539311850  MEMB      205             0.0000000000
     25489       205  PMPG      C33             3.0579388730        8.6092915023      -13.4958133388  MEMB      205             0.0000000000
     25490       205  PMPG      H3X             4.0456009568        8.8244434095      -13.0347770451  MEMB      205             0.0000000000
     25491       205  PMPG      H3Y             3.2907761971        8.5681212233      -14.5813601921  MEMB      205             0.0000000000
     25492       205  PMPG      C34             2.6186122963        7.1970154872      -13.0833404800  MEMB      205             0.0000000000
     25493       205  PMPG      H4X             3.3720468046        6.4346709343      -13.3757247221  MEMB      205             0.0000000000
     25494       205  PMPG      H4Y             1.7587777636        6.9157944419      -13.7282594875  MEMB      205             0.0000000000
     25495       205  PMPG      C35             2.1687987550        7.0435158283      -11.5741042611  MEMB      205             0.0000000000
     25496       205  PMPG      H5X             1.7631831982        6.0108269728      -11.5162205878  MEMB      205             0.0000000000
     25497       205  PMPG      H5Y             1.3208184160        7.7583779818      -11.5091238256  MEMB      205             0.0000000000
     25498       205  PMPG      C36             3.2234707791        7.4283403132      -10.6264434917  MEMB      205             0.0000000000
     25499       205  PMPG      H6X             3.5887311580        8.4609326824      -10.8126120991  MEMB      205             0.0000000000
     25500       205  PMPG      H6Y             4.0544084615        6.7043771065      -10.7669461395  MEMB      205             0.0000000000
     25501       205  PMPG      C37             2.9872482084        7.2583881833       -9.1425552869  MEMB      205             0.0000000000
     25502       205  PMPG      H7X             2.9845296294        6.2140791946       -8.7634346241  MEMB      205             0.0000000000
     25503       205  PMPG      H7Y             2.0315069400        7.7377076805       -8.8406727978  MEMB      205             0.0000000000
     25504       205  PMPG      C38             4.0927899523        7.9661207775       -8.2057413712  MEMB      205             0.0000000000
     25505       205  PMPG      H8X             4.3071552632        8.9461348812       -8.6831729771  MEMB      205             0.0000000000
     25506       205  PMPG      H8Y             5.0657689185        7.4313220191       -8.1654493346  MEMB      205             0.0000000000
     25507       205  PMPG      C39             3.7190887037        8.2335988289       -6.7365335738  MEMB      205             0.0000000000
     25508       205  PMPG      H9X             2.8385565844        8.9102765363       -6.7695755931  MEMB      205             0.0000000000
     25509       205  PMPG      H9Y             4.6446179591        8.6512388876       -6.2856524696  MEMB      205             0.0000000000
     25510       205  PMPG      C310            3.3891530982        6.9896750712       -5.9280247981  MEMB      205             0.0000000000
     25511       205  PMPG      H10X            4.1984652616        6.2287639780       -5.9467024058  MEMB      205             0.0000000000
     25512       205  PMPG      H10Y            2.4257147174        6.5065100837       -6.1975775055  MEMB      205             0.0000000000
     25513       205  PMPG      C311            3.1381157883        7.3489926716       -4.4231261864  MEMB      205             0.0000000000
     25514       205  PMPG      H11X            4.0315678871        7.7997451693       -3.9405430480  MEMB      205             0.0000000000
     25515       205  PMPG      H11Y            2.7651290053        6.3665940741       -4.0624394393  MEMB      205             0.0000000000
     25516       205  PMPG      C312            1.9852082809        8.3249211062       -4.2680589764  MEMB      205             0.0000000000
     25517       205  PMPG      H12X            1.0517640274        7.9722053011       -4.7565206603  MEMB      205             0.0000000000
     25518       205  PMPG      H12Y            2.2439881644        9.3092215368       -4.7135994685  MEMB      205             0.0000000000
     25519       205  PMPG      C313            1.6230625092        8.5801887051       -2.7823860811  MEMB      205             0.0000000000
     25520       205  PMPG      H13X            2.5332282252        8.8698103200       -2.2149009683  MEMB      205             0.0000000000
     25521       205  PMPG      H13Y            1.1223860791        7.6938438924       -2.3373725427  MEMB      205             0.0000000000
     25522       205  PMPG      C314            0.6557537553        9.8029425764       -2.6395410753  MEMB      205             0.0000000000
     25523       205  PMPG      H14X           -0.3949529700        9.5185721132       -2.8619590968  MEMB      205             0.0000000000
     25524       205  PMPG      H14Y            0.9870562012       10.5922845370       -3.3477068281  MEMB      205             0.0000000000
     25525       205  PMPG      C315            0.6969878399       10.4700209679       -1.2405490267  MEMB      205             0.0000000000
     25526       205  PMPG      H15X            1.7390946540       10.7207792120       -0.9482223348  MEMB      205             0.0000000000
     25527       205  PMPG      H15Y            0.3306555232        9.8092590241       -0.4259834188  MEMB      205             0.0000000000
     25528       205  PMPG      C316           -0.1504040262       11.7874258940       -1.0846639678  MEMB      205             0.0000000000
     25529       205  PMPG      H16X           -0.2284788023       12.0769911137       -0.0149083209  MEMB      205             0.0000000000
     25530       205  PMPG      H16Y           -1.1281511209       11.6397421167       -1.5911433093  MEMB      205             0.0000000000
     25531       205  PMPG      H16Z            0.2222034463       12.5989908827       -1.7456076725  MEMB      205             0.0000000000
     25532       206  PMPG      C13            -2.1933718649      -10.7584157538      -20.1604181407  MEMB      206             0.0000000000
     25533       206  PMPG      H13A           -2.0636194881      -11.0316730166      -21.2294436865  MEMB      206             0.0000000000
     25534       206  PMPG      H13B           -1.3244684511      -11.2172284597      -19.6419408438  MEMB      206             0.0000000000
     25535       206  PMPG      OC3            -3.3282924340      -11.3718676000      -19.6480750549  MEMB      206             0.0000000000
     25536       206  PMPG      HO3            -4.0143505548      -11.1861433650      -20.2933895327  MEMB      206             0.0000000000
     25537       206  PMPG      C12            -2.2352594209       -9.2308455522      -20.0296724180  MEMB      206             0.0000000000
     25538       206  PMPG      H12A           -3.2622421674       -8.9022994778      -20.3127677296  MEMB      206             0.0000000000
     25539       206  PMPG      OC2            -1.3139680289       -8.6334005584      -20.9430849974  MEMB      206             0.0000000000
     25540       206  PMPG      HO2            -1.3251607022       -7.6869336097      -20.6808029373  MEMB      206             0.0000000000
     25541       206  PMPG      C11            -1.9572183912       -8.7201508867      -18.5780325263  MEMB      206             0.0000000000
     25542       206  PMPG      H11A           -0.9675927710       -9.1149313665      -18.2632142397  MEMB      206             0.0000000000
     25543       206  PMPG      H11B           -2.7282270844       -9.2097505431      -17.9454514698  MEMB      206             0.0000000000
     25544       206  PMPG      P              -3.0630306565       -6.3089384283      -18.1874705236  MEMB      206             0.0000000000
     25545       206  PMPG      O13            -4.3530312461       -7.0072455010      -18.0834151958  MEMB      206             0.0000000000
     25546       206  PMPG      O14            -2.9001586932       -5.2643294308      -19.2375102531  MEMB      206             0.0000000000
     25547       206  PMPG      O11            -2.7465959258       -5.7403829712      -16.6694565542  MEMB      206             0.0000000000
     25548       206  PMPG      O12            -1.8674293816       -7.2821118553      -18.4628643033  MEMB      206             0.0000000000
     25549       206  PMPG      C1             -3.3604996118       -4.4941413519      -16.3099513096  MEMB      206             0.0000000000
     25550       206  PMPG      HA             -4.1576921684       -4.2360058564      -17.0394518813  MEMB      206             0.0000000000
     25551       206  PMPG      HB             -2.5474679365       -3.7391502542      -16.2526028157  MEMB      206             0.0000000000
     25552       206  PMPG      C2             -3.9378814425       -4.6308160027      -14.8738195237  MEMB      206             0.0000000000
     25553       206  PMPG      HS             -3.9777659744       -3.5714042635      -14.5415892400  MEMB      206             0.0000000000
     25554       206  PMPG      O21            -3.1817973864       -5.4743846956      -13.9293990459  MEMB      206             0.0000000000
     25555       206  PMPG      C21            -1.9980902687       -5.0835107802      -13.6446221267  MEMB      206             0.0000000000
     25556       206  PMPG      O22            -1.4544010966       -4.0896310825      -14.0401081916  MEMB      206             0.0000000000
     25557       206  PMPG      C22            -1.4083116750       -6.0816664440      -12.6257082504  MEMB      206             0.0000000000
     25558       206  PMPG      H2R            -1.7814503955       -7.1250884562      -12.7054537055  MEMB      206             0.0000000000
     25559       206  PMPG      H2S            -1.6627792173       -5.5828056767      -11.6661746466  MEMB      206             0.0000000000
     25560       206  PMPG      C3             -5.4041362604       -5.2965169539      -14.9077240685  MEMB      206             0.0000000000
     25561       206  PMPG      HX             -5.9817612505       -4.7051011344      -15.6499488584  MEMB      206             0.0000000000
     25562       206  PMPG      HY             -5.8106300863       -5.2620747351      -13.8743328675  MEMB      206             0.0000000000
     25563       206  PMPG      O31            -5.3735183238       -6.6278614992      -15.3359461316  MEMB      206             0.0000000000
     25564       206  PMPG      C31            -6.5421049069       -7.1982378393      -15.4808308065  MEMB      206             0.0000000000
     25565       206  PMPG      O32            -7.6575544488       -6.6213069978      -15.4474124618  MEMB      206             0.0000000000
     25566       206  PMPG      C32            -6.4115466088       -8.6732362567      -15.9620714767  MEMB      206             0.0000000000
     25567       206  PMPG      H2X            -6.2546102430       -8.6119604826      -17.0602233981  MEMB      206             0.0000000000
     25568       206  PMPG      H2Y            -7.3490348400       -9.2018675883      -15.6864174233  MEMB      206             0.0000000000
     25569       206  PMPG      C23             0.1494562740       -6.0849402904      -12.6259317211  MEMB      206             0.0000000000
     25570       206  PMPG      H3R             0.5117247080       -5.4863980444      -11.7628965013  MEMB      206             0.0000000000
     25571       206  PMPG      H3S             0.5159821033       -5.4702425517      -13.4757121239  MEMB      206             0.0000000000
     25572       206  PMPG      C24             0.8723534190       -7.4475456044      -12.6589548182  MEMB      206             0.0000000000
     25573       206  PMPG      H4R             1.9505890565       -7.3311846212      -12.9001795843  MEMB      206             0.0000000000
     25574       206  PMPG      H4S             0.4180875322       -8.0804746510      -13.4510185500  MEMB      206             0.0000000000
     25575       206  PMPG      C25             0.7852371514       -8.2531337356      -11.4183523565  MEMB      206             0.0000000000
     25576       206  PMPG      H5R             1.0557747570       -9.3275511052      -11.5005581132  MEMB      206             0.0000000000
     25577       206  PMPG      H5S            -0.3070407367       -8.1794976355      -11.2290705099  MEMB      206             0.0000000000
     25578       206  PMPG      C26             1.5448021557       -7.5895092587      -10.3236731836  MEMB      206             0.0000000000
     25579       206  PMPG      H6R             1.0372982790       -6.6275320477      -10.0970447744  MEMB      206             0.0000000000
     25580       206  PMPG      H6S             2.5550157063       -7.4603767805      -10.7676492229  MEMB      206             0.0000000000
     25581       206  PMPG      C27             1.5793271393       -8.4080440441       -8.9783796203  MEMB      206             0.0000000000
     25582       206  PMPG      H7R             2.3345070983       -7.9950353278       -8.2759206959  MEMB      206             0.0000000000
     25583       206  PMPG      H7S             1.9262681627       -9.4630612907       -9.0082375955  MEMB      206             0.0000000000
     25584       206  PMPG      C28             0.2775089180       -8.4084310874       -8.1002309415  MEMB      206             0.0000000000
     25585       206  PMPG      H8R             0.4055751042       -9.1511876977       -7.2840001682  MEMB      206             0.0000000000
     25586       206  PMPG      H8S            -0.6133804454       -8.6345266593       -8.7243447815  MEMB      206             0.0000000000
     25587       206  PMPG      C29            -0.1638029554       -7.0516315351       -7.5128971032  MEMB      206             0.0000000000
     25588       206  PMPG      H9R            -0.4349990241       -6.2206780057       -8.1986738213  MEMB      206             0.0000000000
     25589       206  PMPG      C217           -0.9220699368       -6.8488437446       -6.1289513971  MEMB      206             0.0000000000
     25590       206  PMPG      H17R           -1.5554672903       -5.9707729680       -6.1551945292  MEMB      206             0.0000000000
     25591       206  PMPG      H17S           -1.2799571475       -7.8127611568       -5.7888500731  MEMB      206             0.0000000000
     25592       206  PMPG      C210            0.5906145777       -6.5955254732       -6.3066487573  MEMB      206             0.0000000000
     25593       206  PMPG      H10R            0.8920688658       -5.5262752466       -6.3189189886  MEMB      206             0.0000000000
     25594       206  PMPG      C211            1.5485658113       -7.5586320921       -5.5370525495  MEMB      206             0.0000000000
     25595       206  PMPG      H11R            0.8845634796       -8.4433532437       -5.4336572329  MEMB      206             0.0000000000
     25596       206  PMPG      H11S            2.4438034931       -7.9096912666       -6.0934950538  MEMB      206             0.0000000000
     25597       206  PMPG      C212            1.7972740080       -7.1634463660       -4.0575522487  MEMB      206             0.0000000000
     25598       206  PMPG      H12R            2.3579942603       -6.2107743749       -4.1685950238  MEMB      206             0.0000000000
     25599       206  PMPG      H12S            2.4108754452       -8.0100738861       -3.6820045014  MEMB      206             0.0000000000
     25600       206  PMPG      C213            0.4604454257       -6.7803795556       -3.3044691203  MEMB      206             0.0000000000
     25601       206  PMPG      H13R           -0.3607026231       -7.5106172046       -3.4681445741  MEMB      206             0.0000000000
     25602       206  PMPG      H13S            0.0009945666       -5.8582180718       -3.7202142476  MEMB      206             0.0000000000
     25603       206  PMPG      C214            0.6939672297       -6.7280638917       -1.7661583674  MEMB      206             0.0000000000
     25604       206  PMPG      H14R            1.6604404203       -6.1841416538       -1.6998319254  MEMB      206             0.0000000000
     25605       206  PMPG      H14S            0.8249873794       -7.7909520271       -1.4704834507  MEMB      206             0.0000000000
     25606       206  PMPG      C215           -0.3343088739       -6.0335006240       -0.9487099809  MEMB      206             0.0000000000
     25607       206  PMPG      H15R           -0.5202749843       -5.0134633386       -1.3477876847  MEMB      206             0.0000000000
     25608       206  PMPG      H15S           -0.0384255841       -5.9751964401        0.1205769389  MEMB      206             0.0000000000
     25609       206  PMPG      C216           -1.6874394548       -6.7685260702       -1.0449284018  MEMB      206             0.0000000000
     25610       206  PMPG      H16R           -1.9999711036       -6.9660669076       -2.0926038926  MEMB      206             0.0000000000
     25611       206  PMPG      H16S           -2.4519587759       -6.3000711303       -0.3888946700  MEMB      206             0.0000000000
     25612       206  PMPG      H16T           -1.7245883366       -7.8061056670       -0.6494943013  MEMB      206             0.0000000000
     25613       206  PMPG      C33            -5.2259686574       -9.4069097449      -15.3802196292  MEMB      206             0.0000000000
     25614       206  PMPG      H3X            -4.3999643890       -8.6917712694      -15.1786878396  MEMB      206             0.0000000000
     25615       206  PMPG      H3Y            -4.8971507693      -10.1664983678      -16.1213167320  MEMB      206             0.0000000000
     25616       206  PMPG      C34            -5.4454157004      -10.2006143878      -14.0387353801  MEMB      206             0.0000000000
     25617       206  PMPG      H4X            -4.4746037956      -10.6635626291      -13.7603045209  MEMB      206             0.0000000000
     25618       206  PMPG      H4Y            -6.1670891081      -11.0452141081      -14.0513853128  MEMB      206             0.0000000000
     25619       206  PMPG      C35            -5.6426395618       -9.2264501123      -12.8743861883  MEMB      206             0.0000000000
     25620       206  PMPG      H5X            -6.7159830715       -8.9396969765      -12.8796708633  MEMB      206             0.0000000000
     25621       206  PMPG      H5Y            -4.9738877496       -8.3415207261      -12.9375674597  MEMB      206             0.0000000000
     25622       206  PMPG      C36            -5.2760993030       -9.9196929250      -11.4998076676  MEMB      206             0.0000000000
     25623       206  PMPG      H6X            -4.3224060715      -10.4893377502      -11.5169834853  MEMB      206             0.0000000000
     25624       206  PMPG      H6Y            -6.0341509675      -10.7200049688      -11.3613191370  MEMB      206             0.0000000000
     25625       206  PMPG      C37            -5.2536912743       -8.8764170473      -10.3737760050  MEMB      206             0.0000000000
     25626       206  PMPG      H7X            -6.1690667320       -8.2938178513      -10.1350560815  MEMB      206             0.0000000000
     25627       206  PMPG      H7Y            -4.3326882855       -8.2586356401      -10.4402636078  MEMB      206             0.0000000000
     25628       206  PMPG      C38            -5.1020103498       -9.5863995018       -8.9896325950  MEMB      206             0.0000000000
     25629       206  PMPG      H8X            -4.2042986734      -10.2360535307       -8.9097298872  MEMB      206             0.0000000000
     25630       206  PMPG      H8Y            -6.0030008071      -10.2358186908       -8.9614898364  MEMB      206             0.0000000000
     25631       206  PMPG      C39            -5.1062847569       -8.6957592019       -7.7035408666  MEMB      206             0.0000000000
     25632       206  PMPG      H9X            -6.1168367051       -8.2857667160       -7.4913814985  MEMB      206             0.0000000000
     25633       206  PMPG      H9Y            -4.4216000538       -7.8262795932       -7.8011764060  MEMB      206             0.0000000000
     25634       206  PMPG      C310           -4.6891481166       -9.4941046289       -6.4695233125  MEMB      206             0.0000000000
     25635       206  PMPG      H10X           -3.7163593673       -9.9815193070       -6.6940887289  MEMB      206             0.0000000000
     25636       206  PMPG      H10Y           -5.3544573244      -10.3302477090       -6.1653037255  MEMB      206             0.0000000000
     25637       206  PMPG      C311           -4.6621409573       -8.5800230354       -5.2736454826  MEMB      206             0.0000000000
     25638       206  PMPG      H11X           -5.7418413864       -8.3182133062       -5.2784960953  MEMB      206             0.0000000000
     25639       206  PMPG      H11Y           -4.0857974654       -7.6510532752       -5.4715444169  MEMB      206             0.0000000000
     25640       206  PMPG      C312           -4.2879886390       -9.1608631720       -3.9149001817  MEMB      206             0.0000000000
     25641       206  PMPG      H12X           -4.8592268955      -10.0898000881       -3.7025692060  MEMB      206             0.0000000000
     25642       206  PMPG      H12Y           -4.4911726832       -8.5548345222       -3.0061827700  MEMB      206             0.0000000000
     25643       206  PMPG      C313           -2.7951082963       -9.6259699842       -3.8608444728  MEMB      206             0.0000000000
     25644       206  PMPG      H13X           -2.5002996734       -9.4226413956       -2.8091472460  MEMB      206             0.0000000000
     25645       206  PMPG      H13Y           -2.1198183891       -9.0365800696       -4.5172925835  MEMB      206             0.0000000000
     25646       206  PMPG      C314           -2.6108042626      -11.1063896874       -4.0926526465  MEMB      206             0.0000000000
     25647       206  PMPG      H14X           -3.3667795523      -11.5363247564       -4.7840123357  MEMB      206             0.0000000000
     25648       206  PMPG      H14Y           -2.9084105854      -11.6142074854       -3.1503824593  MEMB      206             0.0000000000
     25649       206  PMPG      C315           -1.0710448428      -11.4178862801       -4.3473853446  MEMB      206             0.0000000000
     25650       206  PMPG      H15X           -0.5913008615      -10.8805644184       -5.1932289893  MEMB      206             0.0000000000
     25651       206  PMPG      H15Y           -1.1120467162      -12.5038923874       -4.5781032936  MEMB      206             0.0000000000
     25652       206  PMPG      C316           -0.2053290986      -11.1473294401       -3.1813690645  MEMB      206             0.0000000000
     25653       206  PMPG      H16X            0.7858250169      -11.6015070886       -3.3950435158  MEMB      206             0.0000000000
     25654       206  PMPG      H16Y           -0.4971320287      -11.6927491214       -2.2584973482  MEMB      206             0.0000000000
     25655       206  PMPG      H16Z            0.0436499048      -10.0666468462       -3.1146190104  MEMB      206             0.0000000000
     25656       207  PMPE      N               2.6490410664       -6.2196419944      -21.0631255788  MEMB      207             0.0000000000
     25657       207  PMPE      HN1             3.2819602799       -5.4102496970      -21.2240520429  MEMB      207             0.0000000000
     25658       207  PMPE      HN2             1.8119288400       -6.2064514907      -21.6801095559  MEMB      207             0.0000000000
     25659       207  PMPE      HN3             2.3436118305       -6.1033422037      -20.0758124214  MEMB      207             0.0000000000
     25660       207  PMPE      C12             3.3463890653       -7.5525479542      -21.0691732922  MEMB      207             0.0000000000
     25661       207  PMPE      H12A            3.6097569516       -7.5915033532      -22.1478025985  MEMB      207             0.0000000000
     25662       207  PMPE      H12B            2.6725652293       -8.3515040110      -20.6924085189  MEMB      207             0.0000000000
     25663       207  PMPE      C11             4.6333909229       -7.5832335145      -20.2667376025  MEMB      207             0.0000000000
     25664       207  PMPE      H11A            5.1827456636       -6.6285078381      -20.4117519052  MEMB      207             0.0000000000
     25665       207  PMPE      H11B            5.1951655335       -8.4484256622      -20.6792576517  MEMB      207             0.0000000000
     25666       207  PMPE      P               5.4967716006       -8.0193164690      -17.8658556484  MEMB      207             0.0000000000
     25667       207  PMPE      O13             6.7105582064       -8.1329906955      -18.7542409989  MEMB      207             0.0000000000
     25668       207  PMPE      O14             5.0073556776       -9.2060648641      -17.1229357089  MEMB      207             0.0000000000
     25669       207  PMPE      O11             5.5785968801       -6.6722045560      -16.9508922472  MEMB      207             0.0000000000
     25670       207  PMPE      O12             4.3980460983       -7.6627371581      -18.9070389244  MEMB      207             0.0000000000
     25671       207  PMPE      C1              5.4927106292       -5.3901088941      -17.6141158059  MEMB      207             0.0000000000
     25672       207  PMPE      HA              4.7621954917       -5.5225757892      -18.4406270578  MEMB      207             0.0000000000
     25673       207  PMPE      HB              6.4997746432       -5.1129061317      -17.9926679455  MEMB      207             0.0000000000
     25674       207  PMPE      C2              4.9466951856       -4.2106606890      -16.7637104224  MEMB      207             0.0000000000
     25675       207  PMPE      HS              5.2976528127       -3.2395994353      -17.1738200843  MEMB      207             0.0000000000
     25676       207  PMPE      O21             5.5658049854       -4.5328789094      -15.4683137901  MEMB      207             0.0000000000
     25677       207  PMPE      C21             5.1553317212       -3.7513224486      -14.4088779126  MEMB      207             0.0000000000
     25678       207  PMPE      O22             4.4957815025       -2.7251495166      -14.4507360080  MEMB      207             0.0000000000
     25679       207  PMPE      C22             5.8533796408       -4.2487634695      -13.1791697335  MEMB      207             0.0000000000
     25680       207  PMPE      H2R             6.6745621572       -3.5354343271      -12.9530238557  MEMB      207             0.0000000000
     25681       207  PMPE      H2S             6.2973913883       -5.2588301233      -13.3093236568  MEMB      207             0.0000000000
     25682       207  PMPE      C3              3.4190386918       -4.2200631435      -16.7566847144  MEMB      207             0.0000000000
     25683       207  PMPE      HX              3.0947902938       -3.9953884963      -17.7952920270  MEMB      207             0.0000000000
     25684       207  PMPE      HY              3.0043870601       -3.4166086711      -16.1110486257  MEMB      207             0.0000000000
     25685       207  PMPE      O31             2.9415753605       -5.4571281323      -16.3149944633  MEMB      207             0.0000000000
     25686       207  PMPE      C31             2.0158506628       -5.5546168015      -15.4157959876  MEMB      207             0.0000000000
     25687       207  PMPE      O32             1.6086458284       -4.6372790444      -14.7054866600  MEMB      207             0.0000000000
     25688       207  PMPE      C32             1.5393457300       -7.0289134733      -15.3759419972  MEMB      207             0.0000000000
     25689       207  PMPE      H2X             1.1512740258       -7.3812855934      -16.3555110557  MEMB      207             0.0000000000
     25690       207  PMPE      H2Y             0.5863534975       -7.1417076619      -14.8161167181  MEMB      207             0.0000000000
     25691       207  PMPE      C23             4.8700764864       -4.3316637234      -11.9740969925  MEMB      207             0.0000000000
     25692       207  PMPE      H3R             3.9926634854       -4.9687473865      -12.2161544384  MEMB      207             0.0000000000
     25693       207  PMPE      H3S             4.5260332146       -3.3179903364      -11.6767396225  MEMB      207             0.0000000000
     25694       207  PMPE      C24             5.6495773648       -4.9521843757      -10.8092772204  MEMB      207             0.0000000000
     25695       207  PMPE      H4R             6.3803308890       -5.7324195260      -11.1118547119  MEMB      207             0.0000000000
     25696       207  PMPE      H4S             4.9508335942       -5.2755122415      -10.0083166693  MEMB      207             0.0000000000
     25697       207  PMPE      C25             6.4502598701       -3.9567364121       -9.9321216709  MEMB      207             0.0000000000
     25698       207  PMPE      H5R             5.8078108105       -3.2389929152       -9.3785653425  MEMB      207             0.0000000000
     25699       207  PMPE      H5S             7.2493739574       -3.5722717899      -10.6013933653  MEMB      207             0.0000000000
     25700       207  PMPE      C26             7.1794226074       -4.7353124000       -8.7823231235  MEMB      207             0.0000000000
     25701       207  PMPE      H6R             7.8082672461       -5.5709413787       -9.1572890339  MEMB      207             0.0000000000
     25702       207  PMPE      H6S             6.4409631596       -5.1040208651       -8.0386482991  MEMB      207             0.0000000000
     25703       207  PMPE      C27             8.0822617780       -3.7657646138       -7.9967931428  MEMB      207             0.0000000000
     25704       207  PMPE      H7R             7.4318691523       -2.9230780972       -7.6786885217  MEMB      207             0.0000000000
     25705       207  PMPE      H7S             8.8854551729       -3.2908161321       -8.5998063591  MEMB      207             0.0000000000
     25706       207  PMPE      C28             8.7443061657       -4.3339760007       -6.7281874165  MEMB      207             0.0000000000
     25707       207  PMPE      H8R             7.8523080245       -4.8086403290       -6.2662843774  MEMB      207             0.0000000000
     25708       207  PMPE      H8S             9.0715463803       -3.4740719048       -6.1054510780  MEMB      207             0.0000000000
     25709       207  PMPE      C29             9.9318517848       -5.2883862063       -7.0493866868  MEMB      207             0.0000000000
     25710       207  PMPE      H9R            10.6777051253       -4.8893123267       -7.7696395864  MEMB      207             0.0000000000
     25711       207  PMPE      C217            9.5462926037       -6.7135825320       -7.4609253859  MEMB      207             0.0000000000
     25712       207  PMPE      H17R           10.2488510012       -7.1294545101       -8.1725094693  MEMB      207             0.0000000000
     25713       207  PMPE      H17S            8.5357258360       -7.0332532571       -7.2385422390  MEMB      207             0.0000000000
     25714       207  PMPE      C210           10.2177289182       -6.4297780127       -6.1298336329  MEMB      207             0.0000000000
     25715       207  PMPE      H10R           11.2989981985       -6.6743682608       -6.0566638961  MEMB      207             0.0000000000
     25716       207  PMPE      C211            9.4059927633       -6.5861419701       -4.9055471943  MEMB      207             0.0000000000
     25717       207  PMPE      H11R            8.3164375209       -6.6486079192       -5.1136062182  MEMB      207             0.0000000000
     25718       207  PMPE      H11S            9.6969591618       -5.7102414009       -4.2871153107  MEMB      207             0.0000000000
     25719       207  PMPE      C212           10.0335479784       -7.7739204938       -4.0585301427  MEMB      207             0.0000000000
     25720       207  PMPE      H12R           11.1076118857       -7.5006915285       -3.9807253413  MEMB      207             0.0000000000
     25721       207  PMPE      H12S            9.9026798357       -8.6995194981       -4.6589136450  MEMB      207             0.0000000000
     25722       207  PMPE      C213            9.5019585991       -8.1115769317       -2.6734426559  MEMB      207             0.0000000000
     25723       207  PMPE      H13R           10.1667804040       -8.8949231764       -2.2507120170  MEMB      207             0.0000000000
     25724       207  PMPE      H13S            8.4943947648       -8.5444163822       -2.8517274532  MEMB      207             0.0000000000
     25725       207  PMPE      C214            9.3914819029       -6.9750864923       -1.6489215894  MEMB      207             0.0000000000
     25726       207  PMPE      H14R            8.6919658580       -6.1862277667       -1.9992075002  MEMB      207             0.0000000000
     25727       207  PMPE      H14S           10.4422509947       -6.6754550689       -1.4478576650  MEMB      207             0.0000000000
     25728       207  PMPE      C215            8.9127917265       -7.3855737919       -0.2896088883  MEMB      207             0.0000000000
     25729       207  PMPE      H15R            8.9628428742       -6.4878926012        0.3630654899  MEMB      207             0.0000000000
     25730       207  PMPE      H15S            9.5914472684       -8.1578542385        0.1314970773  MEMB      207             0.0000000000
     25731       207  PMPE      C216            7.4445386133       -7.9726374576       -0.1862430617  MEMB      207             0.0000000000
     25732       207  PMPE      H16R            6.8470704357       -7.2145616153       -0.7364009160  MEMB      207             0.0000000000
     25733       207  PMPE      H16S            7.2271523204       -8.8936277394       -0.7683427728  MEMB      207             0.0000000000
     25734       207  PMPE      H16T            7.1107977161       -8.0102147234        0.8727781320  MEMB      207             0.0000000000
     25735       207  PMPE      C33             2.6445276261       -7.9150562608      -14.8284038757  MEMB      207             0.0000000000
     25736       207  PMPE      H3X             3.7054214062       -7.7210280738      -15.0951967115  MEMB      207             0.0000000000
     25737       207  PMPE      H3Y             2.3154045667       -8.9332878211      -15.1270738002  MEMB      207             0.0000000000
     25738       207  PMPE      C34             2.6637334929       -7.8152202328      -13.2986598198  MEMB      207             0.0000000000
     25739       207  PMPE      H4X             1.6826488113       -7.7857724746      -12.7781537539  MEMB      207             0.0000000000
     25740       207  PMPE      H4Y             3.0613173850       -6.8237510320      -12.9933126584  MEMB      207             0.0000000000
     25741       207  PMPE      C35             3.6082227136       -8.9074700829      -12.7558808507  MEMB      207             0.0000000000
     25742       207  PMPE      H5X             4.6457983896       -8.6908694726      -13.0888101496  MEMB      207             0.0000000000
     25743       207  PMPE      H5Y             3.2091646194       -9.8842854828      -13.1035952291  MEMB      207             0.0000000000
     25744       207  PMPE      C36             3.5943197028       -8.8975550389      -11.2434455431  MEMB      207             0.0000000000
     25745       207  PMPE      H6X             2.5692577224       -8.8973923887      -10.8149962920  MEMB      207             0.0000000000
     25746       207  PMPE      H6Y             4.1290543141       -7.9928917501      -10.8829403062  MEMB      207             0.0000000000
     25747       207  PMPE      C37             4.2405754255      -10.1035250094      -10.4813419434  MEMB      207             0.0000000000
     25748       207  PMPE      H7X             5.2996343627      -10.3201043494      -10.7378736004  MEMB      207             0.0000000000
     25749       207  PMPE      H7Y             3.5737889925      -10.9158826355      -10.8416070891  MEMB      207             0.0000000000
     25750       207  PMPE      C38             4.1935048663      -10.0560279309       -8.9496433313  MEMB      207             0.0000000000
     25751       207  PMPE      H8X             4.4834104381      -11.0917135100       -8.6710203550  MEMB      207             0.0000000000
     25752       207  PMPE      H8Y             3.1620990124       -9.9472947309       -8.5512716059  MEMB      207             0.0000000000
     25753       207  PMPE      C39             5.1705393847       -9.0955870134       -8.2689612199  MEMB      207             0.0000000000
     25754       207  PMPE      H9X             6.1215036545       -9.1166339376       -8.8430213055  MEMB      207             0.0000000000
     25755       207  PMPE      H9Y             5.2309135564       -9.4960303010       -7.2343987812  MEMB      207             0.0000000000
     25756       207  PMPE      C310            4.7625824469       -7.6090570961       -8.1211235168  MEMB      207             0.0000000000
     25757       207  PMPE      H10X            4.7211883031       -7.2054176175       -9.1553780791  MEMB      207             0.0000000000
     25758       207  PMPE      H10Y            5.5578954187       -7.1073725151       -7.5294218213  MEMB      207             0.0000000000
     25759       207  PMPE      C311            3.4197259119       -7.2771069472       -7.3228053321  MEMB      207             0.0000000000
     25760       207  PMPE      H11X            2.5871027448       -7.8418539210       -7.7941021026  MEMB      207             0.0000000000
     25761       207  PMPE      H11Y            3.1068337273       -6.2246578093       -7.4924241561  MEMB      207             0.0000000000
     25762       207  PMPE      C312            3.5041208416       -7.5749815600       -5.8145248104  MEMB      207             0.0000000000
     25763       207  PMPE      H12X            3.7640064373       -8.6323087534       -5.5935277035  MEMB      207             0.0000000000
     25764       207  PMPE      H12Y            2.5228791003       -7.3950072723       -5.3255510321  MEMB      207             0.0000000000
     25765       207  PMPE      C313            4.4231121002       -6.6244922248       -4.9858830932  MEMB      207             0.0000000000
     25766       207  PMPE      H13X            5.3282377858       -6.2673744408       -5.5221065441  MEMB      207             0.0000000000
     25767       207  PMPE      H13Y            4.8347816287       -7.2488746968       -4.1643026445  MEMB      207             0.0000000000
     25768       207  PMPE      C314            3.7878980853       -5.4049555120       -4.1963617317  MEMB      207             0.0000000000
     25769       207  PMPE      H14X            3.2027064594       -5.7687634220       -3.3248594252  MEMB      207             0.0000000000
     25770       207  PMPE      H14Y            3.0840811313       -4.8923788166       -4.8864543956  MEMB      207             0.0000000000
     25771       207  PMPE      C315            4.7609540029       -4.3016210882       -3.7952562419  MEMB      207             0.0000000000
     25772       207  PMPE      H15X            4.2917086976       -3.3457898541       -3.4782136996  MEMB      207             0.0000000000
     25773       207  PMPE      H15Y            5.4731267020       -4.0403337103       -4.6069585787  MEMB      207             0.0000000000
     25774       207  PMPE      C316            5.8113050343       -4.7347902029       -2.7487329144  MEMB      207             0.0000000000
     25775       207  PMPE      H16X            5.2727773865       -4.9203538379       -1.7948583573  MEMB      207             0.0000000000
     25776       207  PMPE      H16Y            6.6148900516       -3.9806591865       -2.6078111366  MEMB      207             0.0000000000
     25777       207  PMPE      H16Z            6.2954797580       -5.6773817492       -3.0825247231  MEMB      207             0.0000000000
     25778       208  PYPG      C13            11.8057932019        7.4285932305      -21.3836191630  MEMB      208             0.0000000000
     25779       208  PYPG      H13A           11.4904962591        7.0659726361      -22.3853254444  MEMB      208             0.0000000000
     25780       208  PYPG      H13B           11.1858697114        8.1963130464      -20.8731077206  MEMB      208             0.0000000000
     25781       208  PYPG      OC3            13.1109844040        7.8008959518      -21.6553169183  MEMB      208             0.0000000000
     25782       208  PYPG      HO3            13.5765517192        8.3678543255      -21.0361195532  MEMB      208             0.0000000000
     25783       208  PYPG      C12            11.8299455091        6.0998159921      -20.4193759025  MEMB      208             0.0000000000
     25784       208  PYPG      H12A           12.5909625411        5.4008396557      -20.8377826404  MEMB      208             0.0000000000
     25785       208  PYPG      OC2            10.5619887329        5.4432435920      -20.4545779974  MEMB      208             0.0000000000
     25786       208  PYPG      HO2            10.6469772489        4.7608688653      -19.7532517362  MEMB      208             0.0000000000
     25787       208  PYPG      C11            12.2346394314        6.4713288962      -18.9702039188  MEMB      208             0.0000000000
     25788       208  PYPG      H11A           13.2174836973        6.9869719881      -19.0197041993  MEMB      208             0.0000000000
     25789       208  PYPG      H11B           12.4465708545        5.5799383757      -18.3418497281  MEMB      208             0.0000000000
     25790       208  PYPG      P              11.6815109284        8.6039171476      -17.4279537333  MEMB      208             0.0000000000
     25791       208  PYPG      O13            11.8459671170        9.7396095224      -18.3332569626  MEMB      208             0.0000000000
     25792       208  PYPG      O14            12.8173764511        8.2368084298      -16.5094590640  MEMB      208             0.0000000000
     25793       208  PYPG      O11            10.3630714754        8.8816368216      -16.5480164717  MEMB      208             0.0000000000
     25794       208  PYPG      O12            11.2448397931        7.3158039322      -18.2982198555  MEMB      208             0.0000000000
     25795       208  PYPG      C1              9.7189115551        7.8145492819      -16.0024625239  MEMB      208             0.0000000000
     25796       208  PYPG      HA             10.4193407881        7.1095784226      -15.5057374598  MEMB      208             0.0000000000
     25797       208  PYPG      HB              9.0664063787        7.3030790219      -16.7420274916  MEMB      208             0.0000000000
     25798       208  PYPG      C2              8.7520201700        8.3189537462      -14.9112317608  MEMB      208             0.0000000000
     25799       208  PYPG      HS              7.8811753042        8.7008257354      -15.4857960113  MEMB      208             0.0000000000
     25800       208  PYPG      O21             9.3432891213        9.3717826719      -14.1083317140  MEMB      208             0.0000000000
     25801       208  PYPG      C21             9.0452435587       10.6122455099      -14.4968149874  MEMB      208             0.0000000000
     25802       208  PYPG      O22             8.1581251500       10.8870944296      -15.2811508108  MEMB      208             0.0000000000
     25803       208  PYPG      C22            10.0364844461       11.5743269622      -13.8950144018  MEMB      208             0.0000000000
     25804       208  PYPG      H2R             9.7925409106       11.7437712630      -12.8244533261  MEMB      208             0.0000000000
     25805       208  PYPG      H2S            10.1168189112       12.5177744239      -14.4761980942  MEMB      208             0.0000000000
     25806       208  PYPG      C3              8.2457041514        7.1930215270      -13.9880092393  MEMB      208             0.0000000000
     25807       208  PYPG      HX              7.9379301790        6.2468998617      -14.4824275440  MEMB      208             0.0000000000
     25808       208  PYPG      HY              7.4348806694        7.6423981267      -13.3756798628  MEMB      208             0.0000000000
     25809       208  PYPG      O31             9.3501591533        6.8570940226      -13.1308453590  MEMB      208             0.0000000000
     25810       208  PYPG      C31             9.0093401719        6.0402317632      -12.1246139797  MEMB      208             0.0000000000
     25811       208  PYPG      O32             7.8763134254        5.6350249422      -11.9769322766  MEMB      208             0.0000000000
     25812       208  PYPG      C32            10.2790716316        5.5417585072      -11.4388115579  MEMB      208             0.0000000000
     25813       208  PYPG      H2X            11.0372841692        6.3315323936      -11.2498895057  MEMB      208             0.0000000000
     25814       208  PYPG      H2Y            10.0319180742        5.2924384928      -10.3847361853  MEMB      208             0.0000000000
     25815       208  PYPG      C23            11.4631666933       11.0009364700      -13.9880473405  MEMB      208             0.0000000000
     25816       208  PYPG      H3R            11.7253671223       11.2404896942      -15.0407519798  MEMB      208             0.0000000000
     25817       208  PYPG      H3S            11.3874346072        9.8958236412      -13.9025402767  MEMB      208             0.0000000000
     25818       208  PYPG      C24            12.4760695281       11.5377788235      -12.9919186868  MEMB      208             0.0000000000
     25819       208  PYPG      H4R            12.5354155827       12.6341101757      -13.1617911852  MEMB      208             0.0000000000
     25820       208  PYPG      H4S            13.4375016587       11.2064603761      -13.4393530065  MEMB      208             0.0000000000
     25821       208  PYPG      C25            12.3596051519       11.0900888955      -11.5723207270  MEMB      208             0.0000000000
     25822       208  PYPG      H5R            11.9537481338       12.0171538957      -11.1138977647  MEMB      208             0.0000000000
     25823       208  PYPG      H5S            13.3671060805       11.0543135698      -11.1054337956  MEMB      208             0.0000000000
     25824       208  PYPG      C26            11.6039784588        9.7792883398      -11.4380391797  MEMB      208             0.0000000000
     25825       208  PYPG      H6R            12.2583464143        9.0990088529      -12.0239942532  MEMB      208             0.0000000000
     25826       208  PYPG      H6S            10.5463463832        9.8042417540      -11.7773222542  MEMB      208             0.0000000000
     25827       208  PYPG      C27            11.5209770363        9.2197157276       -9.9557102384  MEMB      208             0.0000000000
     25828       208  PYPG      H7R            12.1189110222        9.8762432780       -9.2880526452  MEMB      208             0.0000000000
     25829       208  PYPG      H7S            12.0877947779        8.2647901218       -9.9897081952  MEMB      208             0.0000000000
     25830       208  PYPG      C28            10.1013113201        9.0969642041       -9.3294974843  MEMB      208             0.0000000000
     25831       208  PYPG      H8R            10.2987673971        8.6705645641       -8.3227617679  MEMB      208             0.0000000000
     25832       208  PYPG      H8S             9.4093096186        8.3948744818       -9.8418690839  MEMB      208             0.0000000000
     25833       208  PYPG      C29             9.5317102973       10.5113563184       -9.0349150613  MEMB      208             0.0000000000
     25834       208  PYPG      H9R             8.7772615135       10.7542148219       -9.7976912785  MEMB      208             0.0000000000
     25835       208  PYPG      C210            9.8318195663       11.3122830727       -8.0018646477  MEMB      208             0.0000000000
     25836       208  PYPG      H10R            9.3925816900       12.3167240943       -7.9114850134  MEMB      208             0.0000000000
     25837       208  PYPG      C211           10.8216639143       11.0284342907       -6.8613642144  MEMB      208             0.0000000000
     25838       208  PYPG      H11R           11.7761173137       11.5547882310       -7.0765176045  MEMB      208             0.0000000000
     25839       208  PYPG      H11S           11.0410950642        9.9483285398       -6.7215693112  MEMB      208             0.0000000000
     25840       208  PYPG      C212           10.5004933703       11.5213510246       -5.4532779241  MEMB      208             0.0000000000
     25841       208  PYPG      H12R           10.4632364746       12.6297238600       -5.3866243589  MEMB      208             0.0000000000
     25842       208  PYPG      H12S           11.3935129238       11.4051933556       -4.8026285012  MEMB      208             0.0000000000
     25843       208  PYPG      C213            9.2528232321       11.0063268368       -4.6523992757  MEMB      208             0.0000000000
     25844       208  PYPG      H13R            8.2804427064       11.3121735676       -5.0942762743  MEMB      208             0.0000000000
     25845       208  PYPG      H13S            9.2926953063       11.4218220228       -3.6227901787  MEMB      208             0.0000000000
     25846       208  PYPG      C214            9.3223268236        9.4569980205       -4.5887455381  MEMB      208             0.0000000000
     25847       208  PYPG      H14R            9.2130162612        9.0533617972       -5.6180417349  MEMB      208             0.0000000000
     25848       208  PYPG      H14S           10.3558193933        9.2560917730       -4.2339908622  MEMB      208             0.0000000000
     25849       208  PYPG      C215            8.1728066225        8.7703389002       -3.8416639075  MEMB      208             0.0000000000
     25850       208  PYPG      H15R            8.3918590903        7.6812327554       -3.8280725033  MEMB      208             0.0000000000
     25851       208  PYPG      H15S            7.3002814516        8.9869242085       -4.4944358336  MEMB      208             0.0000000000
     25852       208  PYPG      C216            7.7340426004        9.3125175185       -2.4667543628  MEMB      208             0.0000000000
     25853       208  PYPG      H16R            6.8187186475        8.7231486764       -2.2450608566  MEMB      208             0.0000000000
     25854       208  PYPG      H16S            7.5478015348       10.4056115504       -2.5358962704  MEMB      208             0.0000000000
     25855       208  PYPG      H16T            8.5335781317        9.1229213690       -1.7190128563  MEMB      208             0.0000000000
     25856       208  PYPG      C33            10.8527684399        4.4276966296      -12.3440404583  MEMB      208             0.0000000000
     25857       208  PYPG      H3X            11.0116101425        4.8898268984      -13.3418007766  MEMB      208             0.0000000000
     25858       208  PYPG      H3Y            10.0401379987        3.6919697371      -12.5247565363  MEMB      208             0.0000000000
     25859       208  PYPG      C34            12.0730493684        3.7547113946      -11.7772880471  MEMB      208             0.0000000000
     25860       208  PYPG      H4X            11.8658704741        2.6667622555      -11.6891739993  MEMB      208             0.0000000000
     25861       208  PYPG      H4Y            12.3485813795        4.0936696548      -10.7557648305  MEMB      208             0.0000000000
     25862       208  PYPG      C35            13.4152465218        3.9589591075      -12.5575664823  MEMB      208             0.0000000000
     25863       208  PYPG      H5X            13.1886346206        3.6542375136      -13.6016511451  MEMB      208             0.0000000000
     25864       208  PYPG      H5Y            14.1833592804        3.3604595929      -12.0226626385  MEMB      208             0.0000000000
     25865       208  PYPG      C36            13.8547843325        5.4118954568      -12.7899332784  MEMB      208             0.0000000000
     25866       208  PYPG      H6X            12.9574097278        5.9652039369      -13.1404888842  MEMB      208             0.0000000000
     25867       208  PYPG      H6Y            14.7976518138        5.4494453993      -13.3763737013  MEMB      208             0.0000000000
     25868       208  PYPG      C37            14.3244622457        6.0520041762      -11.4835178251  MEMB      208             0.0000000000
     25869       208  PYPG      H7X            13.4755821160        6.1545758681      -10.7741501626  MEMB      208             0.0000000000
     25870       208  PYPG      H7Y            15.0915882037        5.3827568085      -11.0386060812  MEMB      208             0.0000000000
     25871       208  PYPG      C38            15.0149802069        7.4126813622      -11.6720825532  MEMB      208             0.0000000000
     25872       208  PYPG      H8X            14.2298784794        8.0575809124      -12.1215719929  MEMB      208             0.0000000000
     25873       208  PYPG      H8Y            15.7268963796        7.1629812545      -12.4876477408  MEMB      208             0.0000000000
     25874       208  PYPG      C39            15.7299055300        7.9808249523      -10.3785375542  MEMB      208             0.0000000000
     25875       208  PYPG      H9X            16.2499741292        8.9263393300      -10.6428329783  MEMB      208             0.0000000000
     25876       208  PYPG      H9Y            16.4801660479        7.1817192127      -10.1972647742  MEMB      208             0.0000000000
     25877       208  PYPG      C310           14.8426083897        7.9215531134       -9.1379656803  MEMB      208             0.0000000000
     25878       208  PYPG      H10X           14.1335654165        7.0740565379       -9.2534126472  MEMB      208             0.0000000000
     25879       208  PYPG      H10Y           14.2111442715        8.8342664077       -9.0876800014  MEMB      208             0.0000000000
     25880       208  PYPG      C311           15.5070548185        7.5850926344       -7.7356944549  MEMB      208             0.0000000000
     25881       208  PYPG      H11X           16.5157815220        8.0496385207       -7.7042526624  MEMB      208             0.0000000000
     25882       208  PYPG      H11Y           15.4482287195        6.5135149206       -7.4483236690  MEMB      208             0.0000000000
     25883       208  PYPG      C312           14.9403771262        8.4097071529       -6.5666085775  MEMB      208             0.0000000000
     25884       208  PYPG      H12X           13.8655124782        8.1335574183       -6.6188443154  MEMB      208             0.0000000000
     25885       208  PYPG      H12Y           15.4081902477        8.1625605693       -5.5896796406  MEMB      208             0.0000000000
     25886       208  PYPG      C313           15.2300444819        9.9379773194       -6.7675911366  MEMB      208             0.0000000000
     25887       208  PYPG      H13X           16.3015748282       10.2249608242       -6.7060767826  MEMB      208             0.0000000000
     25888       208  PYPG      H13Y           14.9112855412       10.3042636987       -7.7668648639  MEMB      208             0.0000000000
     25889       208  PYPG      C314           14.5752090496       10.7690721562       -5.6536451598  MEMB      208             0.0000000000
     25890       208  PYPG      H14X           14.7953856013       11.7754816679       -6.0695574325  MEMB      208             0.0000000000
     25891       208  PYPG      H14Y           13.4656696968       10.7160502206       -5.6328614735  MEMB      208             0.0000000000
     25892       208  PYPG      C315           15.0536665934       10.5396566065       -4.2235064005  MEMB      208             0.0000000000
     25893       208  PYPG      H15X           14.8265197039        9.4587494067       -4.1036528617  MEMB      208             0.0000000000
     25894       208  PYPG      H15Y           16.1545085624       10.4593284484       -4.0969562819  MEMB      208             0.0000000000
     25895       208  PYPG      C316           14.3639621639       11.4011913636       -3.1847470394  MEMB      208             0.0000000000
     25896       208  PYPG      H16X           14.2649231897       10.8668829749       -2.2157119545  MEMB      208             0.0000000000
     25897       208  PYPG      H16Y           13.3985030463       11.8685622537       -3.4741836517  MEMB      208             0.0000000000
     25898       208  PYPG      H16Z           15.0224371121       12.2688192961       -2.9657651330  MEMB      208             0.0000000000
     25899       209  PMPE      N             -12.7763454155        2.9998710479      -18.4760025757  MEMB      209             0.0000000000
     25900       209  PMPE      HN1           -12.8497045309        2.0597330754      -18.0374147978  MEMB      209             0.0000000000
     25901       209  PMPE      HN2           -11.8617933410        2.9245254029      -18.9654080398  MEMB      209             0.0000000000
     25902       209  PMPE      HN3           -12.6331422901        3.7470177583      -17.7668732003  MEMB      209             0.0000000000
     25903       209  PMPE      C12           -13.7112395427        3.5540932134      -19.4830789545  MEMB      209             0.0000000000
     25904       209  PMPE      H12A          -14.7421428689        3.4348633297      -19.0864133460  MEMB      209             0.0000000000
     25905       209  PMPE      H12B          -13.7058044429        2.9466275499      -20.4132815941  MEMB      209             0.0000000000
     25906       209  PMPE      C11           -13.4174190800        5.0780682795      -19.7866819066  MEMB      209             0.0000000000
     25907       209  PMPE      H11A          -14.1841581081        5.3795880667      -20.5320127253  MEMB      209             0.0000000000
     25908       209  PMPE      H11B          -12.4183860936        5.1027413264      -20.2721150691  MEMB      209             0.0000000000
     25909       209  PMPE      P             -13.1397001459        7.3895104923      -18.9100168172  MEMB      209             0.0000000000
     25910       209  PMPE      O13           -13.8485857222        7.7710506973      -20.1757035818  MEMB      209             0.0000000000
     25911       209  PMPE      O14           -11.6695158328        7.6351254527      -18.8769834697  MEMB      209             0.0000000000
     25912       209  PMPE      O11           -13.8263556230        7.9828394816      -17.6332070907  MEMB      209             0.0000000000
     25913       209  PMPE      O12           -13.3984562347        5.8745802149      -18.6583256057  MEMB      209             0.0000000000
     25914       209  PMPE      C1            -14.6796335273        7.2107249332      -16.7315171289  MEMB      209             0.0000000000
     25915       209  PMPE      HA            -15.2205978013        6.3248888538      -17.1277152805  MEMB      209             0.0000000000
     25916       209  PMPE      HB            -15.4279338378        7.9377087404      -16.3495981597  MEMB      209             0.0000000000
     25917       209  PMPE      C2            -13.9699468991        6.8515170052      -15.4373169785  MEMB      209             0.0000000000
     25918       209  PMPE      HS            -14.7540339404        6.7774683677      -14.6537066236  MEMB      209             0.0000000000
     25919       209  PMPE      O21           -12.9835263945        7.7571966616      -14.9712786356  MEMB      209             0.0000000000
     25920       209  PMPE      C21           -13.4254428511        8.8491480821      -14.4361665358  MEMB      209             0.0000000000
     25921       209  PMPE      O22           -14.6307427798        9.2412658531      -14.3921070026  MEMB      209             0.0000000000
     25922       209  PMPE      C22           -12.2627709720        9.6025832044      -13.9639731498  MEMB      209             0.0000000000
     25923       209  PMPE      H2R           -12.6170109799       10.4782678024      -13.3791556362  MEMB      209             0.0000000000
     25924       209  PMPE      H2S           -11.7602768526       10.0478854947      -14.8491434840  MEMB      209             0.0000000000
     25925       209  PMPE      C3            -13.2682495970        5.4451155109      -15.6880177490  MEMB      209             0.0000000000
     25926       209  PMPE      HX            -12.5299126151        5.5624012691      -16.5098594508  MEMB      209             0.0000000000
     25927       209  PMPE      HY            -13.8591039366        4.5749103149      -16.0457256108  MEMB      209             0.0000000000
     25928       209  PMPE      O31           -12.4085678896        5.1200236444      -14.5639508429  MEMB      209             0.0000000000
     25929       209  PMPE      C31           -13.0068394772        4.5560930860      -13.5712311124  MEMB      209             0.0000000000
     25930       209  PMPE      O32           -14.2193787992        4.3213549361      -13.4314575082  MEMB      209             0.0000000000
     25931       209  PMPE      C32           -11.9826893706        4.2349173162      -12.5050103544  MEMB      209             0.0000000000
     25932       209  PMPE      H2X           -11.5586920755        5.1514411200      -12.0418348687  MEMB      209             0.0000000000
     25933       209  PMPE      H2Y           -11.2243956080        3.6540972708      -13.0724247206  MEMB      209             0.0000000000
     25934       209  PMPE      C23           -11.3188337458        8.8678392839      -13.1375951648  MEMB      209             0.0000000000
     25935       209  PMPE      H3R           -10.5415148387        9.5192279001      -12.6839550701  MEMB      209             0.0000000000
     25936       209  PMPE      H3S           -10.8267890245        8.0797427767      -13.7467889890  MEMB      209             0.0000000000
     25937       209  PMPE      C24           -11.8924784150        8.1482865102      -11.8353642637  MEMB      209             0.0000000000
     25938       209  PMPE      H4R           -11.1087275163        7.6551055036      -11.2215013602  MEMB      209             0.0000000000
     25939       209  PMPE      H4S           -12.5653560695        7.3601110488      -12.2357839183  MEMB      209             0.0000000000
     25940       209  PMPE      C25           -12.9406625779        9.0023710500      -10.9611739581  MEMB      209             0.0000000000
     25941       209  PMPE      H5R           -13.9305615343        9.0395502663      -11.4642028028  MEMB      209             0.0000000000
     25942       209  PMPE      H5S           -12.5349724584       10.0358462778      -11.0019837206  MEMB      209             0.0000000000
     25943       209  PMPE      C26           -13.2363062346        8.4509082702       -9.5591039005  MEMB      209             0.0000000000
     25944       209  PMPE      H6R           -13.7348704177        9.1414649274       -8.8457406675  MEMB      209             0.0000000000
     25945       209  PMPE      H6S           -12.2973609532        8.1003218002       -9.0797368488  MEMB      209             0.0000000000
     25946       209  PMPE      C27           -14.2759442027        7.3386489847       -9.5811453922  MEMB      209             0.0000000000
     25947       209  PMPE      H7R           -13.9848760859        6.4712746305      -10.2114327475  MEMB      209             0.0000000000
     25948       209  PMPE      H7S           -15.1618048711        7.7321370922      -10.1240447388  MEMB      209             0.0000000000
     25949       209  PMPE      C28           -14.6238342253        6.9754486697       -8.2006018544  MEMB      209             0.0000000000
     25950       209  PMPE      H8R           -14.6146861196        7.9007756787       -7.5857790569  MEMB      209             0.0000000000
     25951       209  PMPE      H8S           -13.9493861539        6.2610284383       -7.6819072197  MEMB      209             0.0000000000
     25952       209  PMPE      C29           -16.0435965631        6.3213105781       -8.0892796997  MEMB      209             0.0000000000
     25953       209  PMPE      H9R           -16.5041510912        5.8717666314       -8.9948852012  MEMB      209             0.0000000000
     25954       209  PMPE      C217          -17.1149186188        6.9591449733       -7.2141738439  MEMB      209             0.0000000000
     25955       209  PMPE      H17R          -18.0185397045        6.8290675436       -7.7967873230  MEMB      209             0.0000000000
     25956       209  PMPE      H17S          -16.7673286646        7.8871227210       -6.7772204007  MEMB      209             0.0000000000
     25957       209  PMPE      C210          -16.3457359013        5.7731293466       -6.7178173330  MEMB      209             0.0000000000
     25958       209  PMPE      H10R          -17.1136143560        4.9865921285       -6.5564380752  MEMB      209             0.0000000000
     25959       209  PMPE      C211          -15.4302927432        6.1065504953       -5.4910689752  MEMB      209             0.0000000000
     25960       209  PMPE      H11R          -15.4416484089        7.2100913441       -5.3630454506  MEMB      209             0.0000000000
     25961       209  PMPE      H11S          -14.3380115739        5.9098894384       -5.5417388242  MEMB      209             0.0000000000
     25962       209  PMPE      C212          -16.0451085933        5.3038448765       -4.2608380477  MEMB      209             0.0000000000
     25963       209  PMPE      H12R          -15.8082692650        4.2243134984       -4.3741510191  MEMB      209             0.0000000000
     25964       209  PMPE      H12S          -17.1517964454        5.3725343897       -4.3304423914  MEMB      209             0.0000000000
     25965       209  PMPE      C213          -15.8248473844        5.8091655810       -2.8876448658  MEMB      209             0.0000000000
     25966       209  PMPE      H13R          -16.1309513760        4.9877441890       -2.2050848908  MEMB      209             0.0000000000
     25967       209  PMPE      H13S          -16.5077146241        6.6361580798       -2.5976506940  MEMB      209             0.0000000000
     25968       209  PMPE      C214          -14.3758496256        6.2473424875       -2.6050494723  MEMB      209             0.0000000000
     25969       209  PMPE      H14R          -14.0661741200        7.0882847515       -3.2617364693  MEMB      209             0.0000000000
     25970       209  PMPE      H14S          -13.7756367342        5.3129810671       -2.6372080388  MEMB      209             0.0000000000
     25971       209  PMPE      C215          -14.2128913459        6.7284294043       -1.1593363633  MEMB      209             0.0000000000
     25972       209  PMPE      H15R          -14.6698621265        5.9076303873       -0.5662184834  MEMB      209             0.0000000000
     25973       209  PMPE      H15S          -14.7891280541        7.6781993998       -1.1448861869  MEMB      209             0.0000000000
     25974       209  PMPE      C216          -12.7338216622        6.9256601489       -0.6733456074  MEMB      209             0.0000000000
     25975       209  PMPE      H16R          -12.1657538666        5.9712968461       -0.7018203606  MEMB      209             0.0000000000
     25976       209  PMPE      H16S          -12.2172572203        7.7136440487       -1.2620417860  MEMB      209             0.0000000000
     25977       209  PMPE      H16T          -12.5182864668        7.3306231882        0.3385198874  MEMB      209             0.0000000000
     25978       209  PMPE      C33           -12.7037420375        3.5365188027      -11.3055460117  MEMB      209             0.0000000000
     25979       209  PMPE      H3X           -13.0604155881        2.5269952399      -11.6021393054  MEMB      209             0.0000000000
     25980       209  PMPE      H3Y           -13.6954515633        4.0079680499      -11.1365225225  MEMB      209             0.0000000000
     25981       209  PMPE      C34           -11.8207025767        3.4964492313      -10.0741009585  MEMB      209             0.0000000000
     25982       209  PMPE      H4X           -11.7248598270        4.5599386891       -9.7673030005  MEMB      209             0.0000000000
     25983       209  PMPE      H4Y           -10.7678698711        3.1937582710      -10.2591483635  MEMB      209             0.0000000000
     25984       209  PMPE      C35           -12.3379171671        2.6167353970       -8.8492342489  MEMB      209             0.0000000000
     25985       209  PMPE      H5X           -12.3549373690        1.5458635069       -9.1446399076  MEMB      209             0.0000000000
     25986       209  PMPE      H5Y           -13.4014638454        2.9216107953       -8.7480384805  MEMB      209             0.0000000000
     25987       209  PMPE      C36           -11.5996560662        2.8291875100       -7.5050440416  MEMB      209             0.0000000000
     25988       209  PMPE      H6X           -10.5151135904        2.7290880493       -7.7242889113  MEMB      209             0.0000000000
     25989       209  PMPE      H6Y           -12.1265810177        2.1685300014       -6.7837929770  MEMB      209             0.0000000000
     25990       209  PMPE      C37           -11.8037364954        4.3044488543       -7.0270508439  MEMB      209             0.0000000000
     25991       209  PMPE      H7X           -12.8521264766        4.3113950336       -6.6594213613  MEMB      209             0.0000000000
     25992       209  PMPE      H7Y           -11.6525017608        5.0814149654       -7.8066488826  MEMB      209             0.0000000000
     25993       209  PMPE      C38           -10.9191053879        4.6842342054       -5.7707364790  MEMB      209             0.0000000000
     25994       209  PMPE      H8X            -9.8535525399        4.6114160323       -6.0767025851  MEMB      209             0.0000000000
     25995       209  PMPE      H8Y           -11.2030780252        3.8891062549       -5.0486198144  MEMB      209             0.0000000000
     25996       209  PMPE      C39           -11.1182021968        6.0911623148       -5.1041532434  MEMB      209             0.0000000000
     25997       209  PMPE      H9X           -11.0290414936        5.9580997588       -4.0047606272  MEMB      209             0.0000000000
     25998       209  PMPE      H9Y           -12.1863444581        6.3643089887       -5.2412089235  MEMB      209             0.0000000000
     25999       209  PMPE      C310          -10.0675094915        7.1615075394       -5.5542335224  MEMB      209             0.0000000000
     26000       209  PMPE      H10X          -10.2953573518        7.1933212100       -6.6411531959  MEMB      209             0.0000000000
     26001       209  PMPE      H10Y           -9.0331094720        6.8633754788       -5.2795442800  MEMB      209             0.0000000000
     26002       209  PMPE      C311          -10.3676385978        8.6032567321       -5.0070770397  MEMB      209             0.0000000000
     26003       209  PMPE      H11X           -9.5700582331        9.2614952028       -5.4131670230  MEMB      209             0.0000000000
     26004       209  PMPE      H11Y          -10.2674919938        8.6285104689       -3.9008883792  MEMB      209             0.0000000000
     26005       209  PMPE      C312          -11.7470812339        9.1482619369       -5.5375618564  MEMB      209             0.0000000000
     26006       209  PMPE      H12X          -12.4932633970        8.4633551575       -5.0810139682  MEMB      209             0.0000000000
     26007       209  PMPE      H12Y          -11.5398783475        9.0898335370       -6.6275042519  MEMB      209             0.0000000000
     26008       209  PMPE      C313          -11.9810974516       10.5578359083       -5.1055656730  MEMB      209             0.0000000000
     26009       209  PMPE      H13X          -12.8227343390       10.9155953985       -5.7364195442  MEMB      209             0.0000000000
     26010       209  PMPE      H13Y          -11.1254456733       11.2536390712       -5.2398745199  MEMB      209             0.0000000000
     26011       209  PMPE      C314          -12.6529731580       10.6367214477       -3.6897461116  MEMB      209             0.0000000000
     26012       209  PMPE      H14X          -11.9166315602       10.2039466150       -2.9792346680  MEMB      209             0.0000000000
     26013       209  PMPE      H14Y          -13.5893776195       10.0542853675       -3.8247862826  MEMB      209             0.0000000000
     26014       209  PMPE      C315          -12.9375135555       12.0543184196       -3.0673519670  MEMB      209             0.0000000000
     26015       209  PMPE      H15X          -13.8471248677       12.5047595111       -3.5190500495  MEMB      209             0.0000000000
     26016       209  PMPE      H15Y          -12.0173399529       12.6615639239       -3.2046636541  MEMB      209             0.0000000000
     26017       209  PMPE      C316          -13.2379515878       12.0107989546       -1.6240225618  MEMB      209             0.0000000000
     26018       209  PMPE      H16X          -14.2631618854       11.7111565605       -1.3182781655  MEMB      209             0.0000000000
     26019       209  PMPE      H16Y          -13.0940638189       13.0187090519       -1.1793494688  MEMB      209             0.0000000000
     26020       209  PMPE      H16Z          -12.5742978695       11.3682674853       -1.0067398057  MEMB      209             0.0000000000
     26021       210  OYPE      N              14.5773777712       -5.7612971737      -21.1960368073  MEMB      210             0.0000000000
     26022       210  OYPE      HN1            14.5867581712       -6.0404981360      -22.1978147767  MEMB      210             0.0000000000
     26023       210  OYPE      HN2            13.6504977229       -5.3530194048      -20.9598110546  MEMB      210             0.0000000000
     26024       210  OYPE      HN3            15.4005144087       -5.1605587579      -20.9882886239  MEMB      210             0.0000000000
     26025       210  OYPE      C12            14.7217946337       -7.0380406860      -20.4162228734  MEMB      210             0.0000000000
     26026       210  OYPE      H12A           15.8032735459       -7.2910593606      -20.4427946312  MEMB      210             0.0000000000
     26027       210  OYPE      H12B           14.0337233507       -7.7713155837      -20.8886494020  MEMB      210             0.0000000000
     26028       210  OYPE      C11            14.3642297908       -6.8982306244      -18.8736600077  MEMB      210             0.0000000000
     26029       210  OYPE      H11A           15.1409458221       -6.1970371274      -18.5003496319  MEMB      210             0.0000000000
     26030       210  OYPE      H11B           14.4486606808       -7.9066817105      -18.4151637827  MEMB      210             0.0000000000
     26031       210  OYPE      P              11.8825442118       -7.1554248370      -18.3225308400  MEMB      210             0.0000000000
     26032       210  OYPE      O13            11.8092431242       -8.2536884100      -19.3414950489  MEMB      210             0.0000000000
     26033       210  OYPE      O14            10.6783013525       -6.3035830517      -18.1408577907  MEMB      210             0.0000000000
     26034       210  OYPE      O11            12.2738979841       -7.7271984138      -16.9566212652  MEMB      210             0.0000000000
     26035       210  OYPE      O12            13.1093127329       -6.1831512845      -18.7525753644  MEMB      210             0.0000000000
     26036       210  OYPE      C1             12.9373045836       -6.9437126052      -15.9699622597  MEMB      210             0.0000000000
     26037       210  OYPE      HA             12.3776489875       -5.9914509333      -15.8503612375  MEMB      210             0.0000000000
     26038       210  OYPE      HB             13.9507868904       -6.7606760854      -16.3867024543  MEMB      210             0.0000000000
     26039       210  OYPE      C2             12.8627818726       -7.6480634353      -14.6220724633  MEMB      210             0.0000000000
     26040       210  OYPE      HS             12.5836832578       -8.7219356611      -14.6788465619  MEMB      210             0.0000000000
     26041       210  OYPE      O21            11.9695859162       -7.0492645648      -13.6926890780  MEMB      210             0.0000000000
     26042       210  OYPE      C21            10.6952082126       -7.3272826319      -13.7305199560  MEMB      210             0.0000000000
     26043       210  OYPE      O22            10.1483113821       -7.9828140098      -14.5356557375  MEMB      210             0.0000000000
     26044       210  OYPE      C22             9.9765109318       -6.6507423164      -12.5651274646  MEMB      210             0.0000000000
     26045       210  OYPE      H2R             8.9713645253       -6.3256110703      -12.9090631233  MEMB      210             0.0000000000
     26046       210  OYPE      H2S            10.6456323818       -5.8088477006      -12.2861814030  MEMB      210             0.0000000000
     26047       210  OYPE      C3             14.2237253309       -7.6465018992      -13.8509213366  MEMB      210             0.0000000000
     26048       210  OYPE      HX             14.6233699535       -6.6300371288      -13.6474401975  MEMB      210             0.0000000000
     26049       210  OYPE      HY             14.9935533294       -8.0846113580      -14.5215523960  MEMB      210             0.0000000000
     26050       210  OYPE      O31            14.1114772308       -8.3992154691      -12.5852023494  MEMB      210             0.0000000000
     26051       210  OYPE      C31            14.3098077761       -9.7884516406      -12.6584233406  MEMB      210             0.0000000000
     26052       210  OYPE      O32            14.3332594211      -10.4468596543      -13.6379500033  MEMB      210             0.0000000000
     26053       210  OYPE      C32            14.3076020901      -10.3484301694      -11.1944515770  MEMB      210             0.0000000000
     26054       210  OYPE      H2X            15.3447256275      -10.6575226864      -10.9431392589  MEMB      210             0.0000000000
     26055       210  OYPE      H2Y            14.1556279495       -9.5243418506      -10.4649972871  MEMB      210             0.0000000000
     26056       210  OYPE      C23             9.8727971752       -7.5818368423      -11.3631533815  MEMB      210             0.0000000000
     26057       210  OYPE      H3R             9.4462153176       -8.5367319527      -11.7380188229  MEMB      210             0.0000000000
     26058       210  OYPE      H3S             9.1800743421       -7.0758882502      -10.6571279959  MEMB      210             0.0000000000
     26059       210  OYPE      C24            11.1992098787       -7.9330057042      -10.7104945571  MEMB      210             0.0000000000
     26060       210  OYPE      H4R            12.0809310247       -8.2296528222      -11.3178572472  MEMB      210             0.0000000000
     26061       210  OYPE      H4S            11.0907543708       -8.8025956542      -10.0275809459  MEMB      210             0.0000000000
     26062       210  OYPE      C25            11.7468854377       -6.7845491672       -9.8727003524  MEMB      210             0.0000000000
     26063       210  OYPE      H5R            11.2180033325       -6.7210132707       -8.8977295216  MEMB      210             0.0000000000
     26064       210  OYPE      H5S            11.5724213374       -5.8249065918      -10.4046490615  MEMB      210             0.0000000000
     26065       210  OYPE      C26            13.2886492519       -6.9689239990       -9.4127442540  MEMB      210             0.0000000000
     26066       210  OYPE      H6R            13.8305109390       -6.7825721572      -10.3645741830  MEMB      210             0.0000000000
     26067       210  OYPE      H6S            13.4047071726       -7.9912713052       -8.9936290312  MEMB      210             0.0000000000
     26068       210  OYPE      C27            13.6959489941       -5.9710231097       -8.3735722636  MEMB      210             0.0000000000
     26069       210  OYPE      H7R            13.2568717089       -6.2121092107       -7.3819024779  MEMB      210             0.0000000000
     26070       210  OYPE      H7S            13.3462081107       -4.9543704648       -8.6536081390  MEMB      210             0.0000000000
     26071       210  OYPE      C28            15.2486166559       -6.0452556848       -8.0297520648  MEMB      210             0.0000000000
     26072       210  OYPE      H8R            15.8673929026       -5.5805647097       -8.8269338771  MEMB      210             0.0000000000
     26073       210  OYPE      H8S            15.4417711443       -7.1241095694       -7.8478552343  MEMB      210             0.0000000000
     26074       210  OYPE      C29            15.6631559932       -5.2483127545       -6.8403805141  MEMB      210             0.0000000000
     26075       210  OYPE      H9R            16.2551359083       -4.3567787989       -7.0947959241  MEMB      210             0.0000000000
     26076       210  OYPE      C210           15.4212472942       -5.6874550827       -5.5996663904  MEMB      210             0.0000000000
     26077       210  OYPE      H10R           16.0273735071       -5.1867305221       -4.8303255024  MEMB      210             0.0000000000
     26078       210  OYPE      C211           14.7757983360       -6.9523846290       -5.0787518592  MEMB      210             0.0000000000
     26079       210  OYPE      H11R           14.6532864390       -7.6885318683       -5.9017946827  MEMB      210             0.0000000000
     26080       210  OYPE      H11S           13.7575431757       -6.7125042511       -4.7046734738  MEMB      210             0.0000000000
     26081       210  OYPE      C212           15.6664797824       -7.4934664683       -3.9278970882  MEMB      210             0.0000000000
     26082       210  OYPE      H12R           16.7273389977       -7.5752256131       -4.2476060188  MEMB      210             0.0000000000
     26083       210  OYPE      H12S           15.3385644606       -8.5042846028       -3.6037987843  MEMB      210             0.0000000000
     26084       210  OYPE      C213           15.7530553450       -6.5595492120       -2.6975034159  MEMB      210             0.0000000000
     26085       210  OYPE      H13R           14.7206523691       -6.3034930748       -2.3767219346  MEMB      210             0.0000000000
     26086       210  OYPE      H13S           16.2391127053       -5.6145986637       -3.0217520155  MEMB      210             0.0000000000
     26087       210  OYPE      C214           16.6086369152       -7.2151652338       -1.6024032057  MEMB      210             0.0000000000
     26088       210  OYPE      H14R           17.5980469597       -7.3879050659       -2.0773233844  MEMB      210             0.0000000000
     26089       210  OYPE      H14S           16.1570750929       -8.1719357192       -1.2632826166  MEMB      210             0.0000000000
     26090       210  OYPE      C215           16.7854541387       -6.2801304441       -0.3980560441  MEMB      210             0.0000000000
     26091       210  OYPE      H15R           15.7909334381       -6.0624045503        0.0467419389  MEMB      210             0.0000000000
     26092       210  OYPE      H15S           17.1443139660       -5.3125972570       -0.8096630655  MEMB      210             0.0000000000
     26093       210  OYPE      C216           17.7522555032       -6.7860381406        0.7105488202  MEMB      210             0.0000000000
     26094       210  OYPE      H16R           17.4204308672       -7.7414352560        1.1703634805  MEMB      210             0.0000000000
     26095       210  OYPE      H16S           17.8555252010       -6.0375007116        1.5250116175  MEMB      210             0.0000000000
     26096       210  OYPE      H16T           18.8118912296       -6.9330490249        0.4107466444  MEMB      210             0.0000000000
     26097       210  OYPE      C33            13.3419071970      -11.4997918688      -11.1322160890  MEMB      210             0.0000000000
     26098       210  OYPE      H3X            13.3817977492      -12.2297351928      -11.9688244799  MEMB      210             0.0000000000
     26099       210  OYPE      H3Y            12.2870733454      -11.1725573781      -11.2528984900  MEMB      210             0.0000000000
     26100       210  OYPE      C34            13.3285109814      -12.2100851802       -9.7879830240  MEMB      210             0.0000000000
     26101       210  OYPE      H4X            12.4388662262      -12.8670592243       -9.8939946822  MEMB      210             0.0000000000
     26102       210  OYPE      H4Y            14.1972613436      -12.8895786071       -9.6542552570  MEMB      210             0.0000000000
     26103       210  OYPE      C35            13.2571948943      -11.3033292019       -8.5646557997  MEMB      210             0.0000000000
     26104       210  OYPE      H5X            12.4686866510      -10.5429085643       -8.7499574190  MEMB      210             0.0000000000
     26105       210  OYPE      H5Y            14.2610445758      -10.8347195688       -8.4809201746  MEMB      210             0.0000000000
     26106       210  OYPE      C36            12.8933991436      -12.0133616607       -7.3502009202  MEMB      210             0.0000000000
     26107       210  OYPE      H6X            11.8414000971      -12.3411070854       -7.4923325952  MEMB      210             0.0000000000
     26108       210  OYPE      H6Y            13.5714909285      -12.8729759714       -7.1615862918  MEMB      210             0.0000000000
     26109       210  OYPE      C37            12.9002084753      -11.0552257117       -6.0747789365  MEMB      210             0.0000000000
     26110       210  OYPE      H7X            13.9331614346      -10.6864072750       -5.8978540709  MEMB      210             0.0000000000
     26111       210  OYPE      H7Y            12.2371781507      -10.2296702539       -6.4111860631  MEMB      210             0.0000000000
     26112       210  OYPE      C38            12.4061078873      -11.6222144934       -4.7584113030  MEMB      210             0.0000000000
     26113       210  OYPE      H8X            12.2520241678      -10.7353796005       -4.1071794940  MEMB      210             0.0000000000
     26114       210  OYPE      H8Y            11.4393401262      -12.1302424759       -4.9623446368  MEMB      210             0.0000000000
     26115       210  OYPE      C39            13.3275572079      -12.5545255679       -4.0716556481  MEMB      210             0.0000000000
     26116       210  OYPE      H9X            13.8967654970      -13.2637478231       -4.6905302086  MEMB      210             0.0000000000
     26117       210  OYPE      C310           13.7209898980      -12.5583576169       -2.8081187927  MEMB      210             0.0000000000
     26118       210  OYPE      H10X           14.4564328802      -13.3305509311       -2.5382286332  MEMB      210             0.0000000000
     26119       210  OYPE      C311           13.3141297849      -11.5934212311       -1.7287942762  MEMB      210             0.0000000000
     26120       210  OYPE      H11X           12.3317341338      -11.1304768251       -1.9631090236  MEMB      210             0.0000000000
     26121       210  OYPE      H11Y           13.0859156715      -12.2337740340       -0.8500523074  MEMB      210             0.0000000000
     26122       210  OYPE      C312           14.3177550966      -10.5609264720       -1.3795284533  MEMB      210             0.0000000000
     26123       210  OYPE      H12X           14.3367148006       -9.9238542561       -2.2895306224  MEMB      210             0.0000000000
     26124       210  OYPE      H12Y           15.3067125594      -11.0658335738       -1.3427493140  MEMB      210             0.0000000000
     26125       210  OYPE      C313           13.9041504745       -9.7437249522       -0.1347088160  MEMB      210             0.0000000000
     26126       210  OYPE      H13X           14.1350850711      -10.3358961677        0.7765129896  MEMB      210             0.0000000000
     26127       210  OYPE      H13Y           14.4820152130       -8.7948440611       -0.1389846182  MEMB      210             0.0000000000
     26128       210  OYPE      C314           12.4172778082       -9.1798037271       -0.0020678414  MEMB      210             0.0000000000
     26129       210  OYPE      H14X           12.4262124091       -8.5181264166        0.8903568033  MEMB      210             0.0000000000
     26130       210  OYPE      H14Y           11.6602597883       -9.9911855135       -0.0559586508  MEMB      210             0.0000000000
     26131       210  OYPE      C315           11.9483618172       -8.3113783306       -1.2315656626  MEMB      210             0.0000000000
     26132       210  OYPE      H15X           11.6321654975       -9.0151836679       -2.0309391784  MEMB      210             0.0000000000
     26133       210  OYPE      H15Y           12.7323291763       -7.7007353204       -1.7283869358  MEMB      210             0.0000000000
     26134       210  OYPE      C316           10.6955078419       -7.4528985141       -1.0005979149  MEMB      210             0.0000000000
     26135       210  OYPE      H16X           10.0766635875       -8.0253965021       -0.2769966758  MEMB      210             0.0000000000
     26136       210  OYPE      H16Y           10.0960394483       -7.2360265179       -1.9105021446  MEMB      210             0.0000000000
     26137       210  OYPE      C317           10.9634066641       -6.0295907094       -0.4386080366  MEMB      210             0.0000000000
     26138       210  OYPE      H17X           11.4733633353       -6.3026472780        0.5099198352  MEMB      210             0.0000000000
     26139       210  OYPE      H17Y            9.9910559922       -5.5158028711       -0.2808820608  MEMB      210             0.0000000000
     26140       210  OYPE      C318           11.7755783466       -5.0226566365       -1.2542948506  MEMB      210             0.0000000000
     26141       210  OYPE      H18X           12.1034718872       -4.1193145351       -0.6968190458  MEMB      210             0.0000000000
     26142       210  OYPE      H18Y           12.7177910983       -5.4977637620       -1.6019000588  MEMB      210             0.0000000000
     26143       210  OYPE      H18Z           11.1835289692       -4.7937936710       -2.1661174538  MEMB      210             0.0000000000
     26144       211  QMPE      N              -0.7086910823       12.3693254205      -19.0681957879  MEMB      211             0.0000000000
     26145       211  QMPE      HN1            -1.0275482951       12.4212493365      -20.0567471290  MEMB      211             0.0000000000
     26146       211  QMPE      HN2            -0.2351376253       11.4470879672      -18.9855802176  MEMB      211             0.0000000000
     26147       211  QMPE      HN3            -1.5076644608       12.3052993334      -18.4055176817  MEMB      211             0.0000000000
     26148       211  QMPE      C12             0.2025582435       13.4681659825      -18.7582905826  MEMB      211             0.0000000000
     26149       211  QMPE      H12A            0.7727710014       13.7392682181      -19.6724470595  MEMB      211             0.0000000000
     26150       211  QMPE      H12B            0.8969896439       13.2356220305      -17.9228210893  MEMB      211             0.0000000000
     26151       211  QMPE      C11            -0.5019014493       14.7855382219      -18.2253073023  MEMB      211             0.0000000000
     26152       211  QMPE      H11A            0.3108374881       15.4871525899      -17.9398010009  MEMB      211             0.0000000000
     26153       211  QMPE      H11B           -1.0305921129       14.6143422237      -17.2632786499  MEMB      211             0.0000000000
     26154       211  QMPE      P              -2.7944711815       15.4627042870      -19.2612179938  MEMB      211             0.0000000000
     26155       211  QMPE      O13            -3.2432082542       14.1147920367      -19.7263999696  MEMB      211             0.0000000000
     26156       211  QMPE      O14            -3.2688311457       16.6227487831      -20.0284513393  MEMB      211             0.0000000000
     26157       211  QMPE      O11            -3.2180891097       15.6386388485      -17.7398972937  MEMB      211             0.0000000000
     26158       211  QMPE      O12            -1.2705558571       15.3195088547      -19.1922397319  MEMB      211             0.0000000000
     26159       211  QMPE      C1             -4.5235463163       15.4803847845      -17.3950808118  MEMB      211             0.0000000000
     26160       211  QMPE      HA             -4.8503446283       14.4636890989      -17.7014361429  MEMB      211             0.0000000000
     26161       211  QMPE      HB             -5.1358512851       16.2153669439      -17.9600629301  MEMB      211             0.0000000000
     26162       211  QMPE      C2             -4.7232094487       15.4802775478      -15.7872474625  MEMB      211             0.0000000000
     26163       211  QMPE      HS             -5.8096843250       15.6166347648      -15.5993642706  MEMB      211             0.0000000000
     26164       211  QMPE      O21            -3.9219909342       16.4203492606      -15.1661628591  MEMB      211             0.0000000000
     26165       211  QMPE      C21            -4.3570184660       17.7212893807      -15.1756106231  MEMB      211             0.0000000000
     26166       211  QMPE      O22            -5.3796008960       18.0971557723      -15.6471517106  MEMB      211             0.0000000000
     26167       211  QMPE      C22            -3.4213060866       18.4732858268      -14.2329467155  MEMB      211             0.0000000000
     26168       211  QMPE      H2R            -2.4864620291       18.7005803360      -14.7885765430  MEMB      211             0.0000000000
     26169       211  QMPE      H2S            -3.1171542142       17.9012934271      -13.3303740500  MEMB      211             0.0000000000
     26170       211  QMPE      C3             -4.3328908152       14.0921755195      -15.2233543482  MEMB      211             0.0000000000
     26171       211  QMPE      HX             -3.3128323124       13.6801044812      -15.3782704099  MEMB      211             0.0000000000
     26172       211  QMPE      HY             -5.1369336818       13.4302282829      -15.6102158059  MEMB      211             0.0000000000
     26173       211  QMPE      O31            -4.5549497828       14.2040214855      -13.7745824547  MEMB      211             0.0000000000
     26174       211  QMPE      C31            -3.7078401688       14.7287976732      -12.9528105218  MEMB      211             0.0000000000
     26175       211  QMPE      O32            -2.5614037178       15.0537815113      -13.1040245796  MEMB      211             0.0000000000
     26176       211  QMPE      C32            -4.4675349196       15.0483175507      -11.6625920707  MEMB      211             0.0000000000
     26177       211  QMPE      H2X            -5.3863794802       15.5550350635      -12.0276718395  MEMB      211             0.0000000000
     26178       211  QMPE      H2Y            -4.8329405341       14.1862406267      -11.0645764127  MEMB      211             0.0000000000
     26179       211  QMPE      C23            -3.7691403876       19.9694951056      -13.8773237589  MEMB      211             0.0000000000
     26180       211  QMPE      H3R            -3.7762653346       20.4852734487      -14.8613168362  MEMB      211             0.0000000000
     26181       211  QMPE      H3S            -3.0141090017       20.3949824559      -13.1821910868  MEMB      211             0.0000000000
     26182       211  QMPE      C24            -5.0616770691       20.1243093490      -13.2380352060  MEMB      211             0.0000000000
     26183       211  QMPE      H4R            -5.9504725341       20.0735935771      -13.9027088864  MEMB      211             0.0000000000
     26184       211  QMPE      H4S            -5.1123368854       21.1862259097      -12.9154087708  MEMB      211             0.0000000000
     26185       211  QMPE      C25            -5.3911481242       19.3953198887      -11.9084047382  MEMB      211             0.0000000000
     26186       211  QMPE      H5R            -5.3951556035       18.3018498531      -12.1049448831  MEMB      211             0.0000000000
     26187       211  QMPE      H5S            -6.4309241387       19.7611284146      -11.7692250817  MEMB      211             0.0000000000
     26188       211  QMPE      C26            -4.4451557183       19.8413793684      -10.7057786994  MEMB      211             0.0000000000
     26189       211  QMPE      H6R            -4.2188092294       20.9115689607      -10.9001547380  MEMB      211             0.0000000000
     26190       211  QMPE      H6S            -3.5912648850       19.1499231892      -10.8703391285  MEMB      211             0.0000000000
     26191       211  QMPE      C27            -5.1450814875       19.6013607050       -9.3909584537  MEMB      211             0.0000000000
     26192       211  QMPE      H7R            -5.5951213297       18.5862204734       -9.3552486607  MEMB      211             0.0000000000
     26193       211  QMPE      H7S            -5.8889322784       20.4234679247       -9.3192191300  MEMB      211             0.0000000000
     26194       211  QMPE      C28            -4.1522751907       19.6730395234       -8.2538821826  MEMB      211             0.0000000000
     26195       211  QMPE      H8R            -3.4541771426       18.8092344816       -8.2252260922  MEMB      211             0.0000000000
     26196       211  QMPE      H8S            -4.7296338546       19.5571553915       -7.3117842260  MEMB      211             0.0000000000
     26197       211  QMPE      C29            -3.3941096392       21.0476166586       -8.2268725521  MEMB      211             0.0000000000
     26198       211  QMPE      H9R            -4.0834955263       21.9119239560       -8.3366021594  MEMB      211             0.0000000000
     26199       211  QMPE      C217           -1.9724165149       21.1141039139       -8.7830478409  MEMB      211             0.0000000000
     26200       211  QMPE      H17R           -1.4698491404       20.1970974107       -9.0648528756  MEMB      211             0.0000000000
     26201       211  QMPE      H17S           -1.7553187367       22.0934904965       -9.1911642897  MEMB      211             0.0000000000
     26202       211  QMPE      C210           -2.2268448465       21.0941477403       -7.2780077816  MEMB      211             0.0000000000
     26203       211  QMPE      H10R           -2.4027327015       22.0392878905       -6.7211460557  MEMB      211             0.0000000000
     26204       211  QMPE      C211           -1.8836852442       19.8471168854       -6.4711854838  MEMB      211             0.0000000000
     26205       211  QMPE      H11R           -2.6853481471       19.5725562102       -5.7526632169  MEMB      211             0.0000000000
     26206       211  QMPE      H11S           -1.8398180775       18.9407012829       -7.1121286764  MEMB      211             0.0000000000
     26207       211  QMPE      C212           -0.4846058836       20.1454058392       -5.7406932603  MEMB      211             0.0000000000
     26208       211  QMPE      H12R           -0.7182784635       20.9285303254       -4.9880742159  MEMB      211             0.0000000000
     26209       211  QMPE      H12S            0.2507490464       20.4458895120       -6.5174061613  MEMB      211             0.0000000000
     26210       211  QMPE      C213           -0.0604512771       18.9441553683       -4.8162752989  MEMB      211             0.0000000000
     26211       211  QMPE      H13R            0.2309724574       18.1105516660       -5.4904401571  MEMB      211             0.0000000000
     26212       211  QMPE      H13S           -0.9458002881       18.5680941266       -4.2603469629  MEMB      211             0.0000000000
     26213       211  QMPE      C214            1.0882035749       19.1241513730       -3.8832891836  MEMB      211             0.0000000000
     26214       211  QMPE      H14R            0.8902271984       19.8376447663       -3.0550066832  MEMB      211             0.0000000000
     26215       211  QMPE      H14S            1.9660732922       19.4657870490       -4.4723142004  MEMB      211             0.0000000000
     26216       211  QMPE      C215            1.4810632966       17.8380020247       -3.0832345071  MEMB      211             0.0000000000
     26217       211  QMPE      H15R            2.5030459156       17.9476774130       -2.6615191727  MEMB      211             0.0000000000
     26218       211  QMPE      H15S            1.4781214441       17.0031013456       -3.8162098429  MEMB      211             0.0000000000
     26219       211  QMPE      C216            0.6092245066       17.4514020208       -1.9478295832  MEMB      211             0.0000000000
     26220       211  QMPE      H16R            0.8968424048       16.5196927015       -1.4153687615  MEMB      211             0.0000000000
     26221       211  QMPE      H16S           -0.3481562964       17.1614229847       -2.4312092472  MEMB      211             0.0000000000
     26222       211  QMPE      H16T            0.5529541298       18.2904056772       -1.2217255227  MEMB      211             0.0000000000
     26223       211  QMPE      C33            -3.6550010696       15.9001967705      -10.6609539597  MEMB      211             0.0000000000
     26224       211  QMPE      H3X            -4.2267543408       16.2391301645       -9.7707049131  MEMB      211             0.0000000000
     26225       211  QMPE      H3Y            -3.3477434103       16.8430753778      -11.1618465473  MEMB      211             0.0000000000
     26226       211  QMPE      C34            -2.5150812203       15.1823730310      -10.0703808968  MEMB      211             0.0000000000
     26227       211  QMPE      H4X            -1.6339893305       15.4983463635      -10.6688446795  MEMB      211             0.0000000000
     26228       211  QMPE      H4Y            -2.7030333680       14.0889389735      -10.1286649058  MEMB      211             0.0000000000
     26229       211  QMPE      C35            -2.1717672142       15.6442772391       -8.5910771680  MEMB      211             0.0000000000
     26230       211  QMPE      H5X            -3.1750226511       15.6247809623       -8.1141922395  MEMB      211             0.0000000000
     26231       211  QMPE      H5Y            -1.6867658372       16.6434065448       -8.6199765687  MEMB      211             0.0000000000
     26232       211  QMPE      C36            -1.1802865523       14.6429536271       -7.9375589568  MEMB      211             0.0000000000
     26233       211  QMPE      H6X            -0.1775108489       14.7172829119       -8.4100384254  MEMB      211             0.0000000000
     26234       211  QMPE      H6Y            -1.6715527648       13.6623749116       -8.1148833226  MEMB      211             0.0000000000
     26235       211  QMPE      C37            -1.0632512953       14.7678086220       -6.4204258502  MEMB      211             0.0000000000
     26236       211  QMPE      H7X            -0.4632034768       13.8787350261       -6.1309235685  MEMB      211             0.0000000000
     26237       211  QMPE      H7Y            -0.3505052237       15.5979177226       -6.2274670125  MEMB      211             0.0000000000
     26238       211  QMPE      C38            -2.4043374188       14.7129803553       -5.6262782086  MEMB      211             0.0000000000
     26239       211  QMPE      H8X            -2.9991195659       15.6507565560       -5.6599091473  MEMB      211             0.0000000000
     26240       211  QMPE      H8Y            -3.0382885998       13.8765407103       -5.9906893181  MEMB      211             0.0000000000
     26241       211  QMPE      C39            -2.1220157225       14.4633410678       -4.1457564164  MEMB      211             0.0000000000
     26242       211  QMPE      H9X            -1.7135646368       15.4252592732       -3.7686597302  MEMB      211             0.0000000000
     26243       211  QMPE      H9Y            -1.1896442064       13.8717444420       -4.0232087878  MEMB      211             0.0000000000
     26244       211  QMPE      C310           -3.1956823265       13.8553712462       -3.2397901627  MEMB      211             0.0000000000
     26245       211  QMPE      H10X           -2.8707828907       13.7331544208       -2.1844106040  MEMB      211             0.0000000000
     26246       211  QMPE      H10Y           -3.1418164820       12.8545280689       -3.7190931997  MEMB      211             0.0000000000
     26247       211  QMPE      C311           -4.6086918014       14.5620999190       -3.1394648451  MEMB      211             0.0000000000
     26248       211  QMPE      H11X           -5.1828395400       14.0487056687       -2.3387759234  MEMB      211             0.0000000000
     26249       211  QMPE      H11Y           -5.0365000672       14.5056559258       -4.1632400207  MEMB      211             0.0000000000
     26250       211  QMPE      C312           -4.5398507479       16.0249248565       -2.6381136617  MEMB      211             0.0000000000
     26251       211  QMPE      H12X           -3.8200081315       16.5333505017       -3.3146138675  MEMB      211             0.0000000000
     26252       211  QMPE      H12Y           -4.1067485590       16.0451928359       -1.6152102618  MEMB      211             0.0000000000
     26253       211  QMPE      C313           -5.8696832390       16.8569393299       -2.6954323384  MEMB      211             0.0000000000
     26254       211  QMPE      H13X           -6.3859565667       16.6899291759       -3.6649123533  MEMB      211             0.0000000000
     26255       211  QMPE      H13Y           -6.5386773037       16.5195177564       -1.8751187420  MEMB      211             0.0000000000
     26256       211  QMPE      C314           -5.6252500117       18.4448001763       -2.6843329209  MEMB      211             0.0000000000
     26257       211  QMPE      H14X           -6.5729486991       19.0211879698       -2.7473055036  MEMB      211             0.0000000000
     26258       211  QMPE      H14Y           -4.9282281226       18.7100527343       -3.5078154381  MEMB      211             0.0000000000
     26259       211  QMPE      C315           -4.9738817906       18.8710519806       -1.4098214521  MEMB      211             0.0000000000
     26260       211  QMPE      H15X           -5.6808728083       18.6838547391       -0.5734950674  MEMB      211             0.0000000000
     26261       211  QMPE      H15Y           -3.9937632979       18.3498573192       -1.3646003925  MEMB      211             0.0000000000
     26262       211  QMPE      H15Z           -4.8578813664       19.9742210286       -1.3475104889  MEMB      211             0.0000000000
     26263       212  PMPG      C13           -14.8279844639      -10.2316504954      -18.5765548720  MEMB      212             0.0000000000
     26264       212  PMPG      H13A          -15.7790195174       -9.9921466245      -19.0985623097  MEMB      212             0.0000000000
     26265       212  PMPG      H13B          -14.7541410281      -11.3146307614      -18.3398658029  MEMB      212             0.0000000000
     26266       212  PMPG      OC3           -14.7425691223       -9.5750188988      -17.2676571369  MEMB      212             0.0000000000
     26267       212  PMPG      HO3           -14.6681563085       -8.6306068586      -17.4230557624  MEMB      212             0.0000000000
     26268       212  PMPG      C12           -13.6034270324       -9.8171012708      -19.4121857273  MEMB      212             0.0000000000
     26269       212  PMPG      H12A          -13.6705503760       -8.7162150808      -19.5744296594  MEMB      212             0.0000000000
     26270       212  PMPG      OC2           -13.6413231634      -10.4539979009      -20.6900618777  MEMB      212             0.0000000000
     26271       212  PMPG      HO2           -12.7649581735      -10.2316640386      -21.0738181781  MEMB      212             0.0000000000
     26272       212  PMPG      C11           -12.2944748769      -10.1147291217      -18.7014952111  MEMB      212             0.0000000000
     26273       212  PMPG      H11A          -12.2824321414      -11.1003889151      -18.1890006371  MEMB      212             0.0000000000
     26274       212  PMPG      H11B          -12.1616248734       -9.3198844254      -17.9367117862  MEMB      212             0.0000000000
     26275       212  PMPG      P              -9.7990688378       -9.6454796818      -19.1114061908  MEMB      212             0.0000000000
     26276       212  PMPG      O13            -9.8047897783       -8.1617862902      -18.9514321206  MEMB      212             0.0000000000
     26277       212  PMPG      O14            -8.7868758844      -10.2431052110      -19.9688422755  MEMB      212             0.0000000000
     26278       212  PMPG      O11            -9.8422545832      -10.3186912032      -17.6727619445  MEMB      212             0.0000000000
     26279       212  PMPG      O12           -11.1808291934      -10.0533826699      -19.6476026430  MEMB      212             0.0000000000
     26280       212  PMPG      C1             -9.2589145077      -11.6858985260      -17.4955230049  MEMB      212             0.0000000000
     26281       212  PMPG      HA             -8.1593084976      -11.6433431226      -17.6484181055  MEMB      212             0.0000000000
     26282       212  PMPG      HB             -9.6592528849      -12.4011587698      -18.2454915463  MEMB      212             0.0000000000
     26283       212  PMPG      C2             -9.5961031190      -12.2462524437      -16.0664087338  MEMB      212             0.0000000000
     26284       212  PMPG      HS             -9.2833045704      -13.3019516218      -15.9181603580  MEMB      212             0.0000000000
     26285       212  PMPG      O21           -11.0461316012      -12.1034764616      -15.8999658872  MEMB      212             0.0000000000
     26286       212  PMPG      C21           -11.6683252402      -12.7653569995      -14.8952024261  MEMB      212             0.0000000000
     26287       212  PMPG      O22           -11.0479341456      -13.4695322763      -14.0905016284  MEMB      212             0.0000000000
     26288       212  PMPG      C22           -13.0703549543      -12.3559954685      -14.7334616835  MEMB      212             0.0000000000
     26289       212  PMPG      H2R           -13.7241944513      -13.0767641628      -15.2694724308  MEMB      212             0.0000000000
     26290       212  PMPG      H2S           -13.2190732500      -11.2988956251      -15.0412664077  MEMB      212             0.0000000000
     26291       212  PMPG      C3             -8.8026629797      -11.4155396015      -15.0489511099  MEMB      212             0.0000000000
     26292       212  PMPG      HX             -7.8304964652      -11.1724139548      -15.5286421113  MEMB      212             0.0000000000
     26293       212  PMPG      HY             -8.7257175771      -12.0569689715      -14.1450879287  MEMB      212             0.0000000000
     26294       212  PMPG      O31            -9.5870056783      -10.2745077562      -14.7996193566  MEMB      212             0.0000000000
     26295       212  PMPG      C31            -9.0807122713       -9.3900925905      -13.8235913797  MEMB      212             0.0000000000
     26296       212  PMPG      O32            -8.0214500816       -9.5559219268      -13.2998815406  MEMB      212             0.0000000000
     26297       212  PMPG      C32           -10.1634433390       -8.3628550004      -13.4898105076  MEMB      212             0.0000000000
     26298       212  PMPG      H2X           -10.5293371795       -7.9847545322      -14.4683209656  MEMB      212             0.0000000000
     26299       212  PMPG      H2Y            -9.6995041330       -7.5270517741      -12.9236705639  MEMB      212             0.0000000000
     26300       212  PMPG      C23           -13.5815334161      -12.4987448314      -13.2396507959  MEMB      212             0.0000000000
     26301       212  PMPG      H3R           -14.4713047195      -11.8577429488      -13.0614808655  MEMB      212             0.0000000000
     26302       212  PMPG      H3S           -12.7949489191      -12.1496800560      -12.5369705345  MEMB      212             0.0000000000
     26303       212  PMPG      C24           -13.9184296266      -13.9397909621      -12.7414965770  MEMB      212             0.0000000000
     26304       212  PMPG      H4R           -12.9946767232      -14.5465394287      -12.8548890081  MEMB      212             0.0000000000
     26305       212  PMPG      H4S           -14.6802023966      -14.3200412038      -13.4552421932  MEMB      212             0.0000000000
     26306       212  PMPG      C25           -14.5639736974      -14.0815482919      -11.3695783593  MEMB      212             0.0000000000
     26307       212  PMPG      H5R           -14.8485611080      -15.1539283299      -11.3118559650  MEMB      212             0.0000000000
     26308       212  PMPG      H5S           -15.5032793632      -13.5158694089      -11.1905998920  MEMB      212             0.0000000000
     26309       212  PMPG      C26           -13.5575625865      -13.7820918201      -10.2477899164  MEMB      212             0.0000000000
     26310       212  PMPG      H6R           -13.1392487956      -12.7536759895      -10.2066158483  MEMB      212             0.0000000000
     26311       212  PMPG      H6S           -12.7000843112      -14.4767672214      -10.3761565980  MEMB      212             0.0000000000
     26312       212  PMPG      C27           -14.3426062726      -14.1665901926       -9.0050962320  MEMB      212             0.0000000000
     26313       212  PMPG      H7R           -13.7163481790      -14.7787460067       -8.3214388413  MEMB      212             0.0000000000
     26314       212  PMPG      H7S           -15.2253835186      -14.7097743337       -9.4050664873  MEMB      212             0.0000000000
     26315       212  PMPG      C28           -14.7952287682      -13.0069732870       -8.1140715010  MEMB      212             0.0000000000
     26316       212  PMPG      H8R           -15.3769479749      -13.4553460132       -7.2804740198  MEMB      212             0.0000000000
     26317       212  PMPG      H8S           -15.4318894554      -12.3035421658       -8.6921453854  MEMB      212             0.0000000000
     26318       212  PMPG      C29           -13.5942626711      -12.1842402566       -7.6019514434  MEMB      212             0.0000000000
     26319       212  PMPG      H9R           -12.5877523031      -12.5157994448       -7.9356076096  MEMB      212             0.0000000000
     26320       212  PMPG      C217          -13.7488730197      -10.6857519514       -7.2936917994  MEMB      212             0.0000000000
     26321       212  PMPG      H17R          -12.8230267771      -10.1628759475       -7.4993572662  MEMB      212             0.0000000000
     26322       212  PMPG      H17S          -14.6684846839      -10.3413483658       -7.7504076344  MEMB      212             0.0000000000
     26323       212  PMPG      C210          -13.6121761002      -11.6733388116       -6.1594427159  MEMB      212             0.0000000000
     26324       212  PMPG      H10R          -12.6635502970      -11.5674783824       -5.5909154092  MEMB      212             0.0000000000
     26325       212  PMPG      C211          -14.8594543079      -11.9165013133       -5.2817454886  MEMB      212             0.0000000000
     26326       212  PMPG      H11R          -15.8468046333      -11.8669065382       -5.7886976146  MEMB      212             0.0000000000
     26327       212  PMPG      H11S          -14.6325844476      -12.9949669685       -5.1411648151  MEMB      212             0.0000000000
     26328       212  PMPG      C212          -14.9101828337      -11.0603386227       -3.9536914227  MEMB      212             0.0000000000
     26329       212  PMPG      H12R          -15.1584393564      -10.0038890875       -4.1916065956  MEMB      212             0.0000000000
     26330       212  PMPG      H12S          -13.8874874059      -10.8651840935       -3.5659671533  MEMB      212             0.0000000000
     26331       212  PMPG      C213          -15.9532588451      -11.5769030929       -2.8944851146  MEMB      212             0.0000000000
     26332       212  PMPG      H13R          -16.9301221017      -11.6526109251       -3.4182483662  MEMB      212             0.0000000000
     26333       212  PMPG      H13S          -16.0682804703      -10.6345308093       -2.3174006174  MEMB      212             0.0000000000
     26334       212  PMPG      C214          -15.4925525242      -12.7670376606       -2.0929507400  MEMB      212             0.0000000000
     26335       212  PMPG      H14R          -14.5006289402      -12.4835853953       -1.6805639272  MEMB      212             0.0000000000
     26336       212  PMPG      H14S          -15.3805699641      -13.5106640333       -2.9107547256  MEMB      212             0.0000000000
     26337       212  PMPG      C215          -16.4459448984      -13.1793936783       -0.9984908622  MEMB      212             0.0000000000
     26338       212  PMPG      H15R          -17.3761257892      -13.6911429821       -1.3259013148  MEMB      212             0.0000000000
     26339       212  PMPG      H15S          -16.8879796420      -12.3584105433       -0.3944117802  MEMB      212             0.0000000000
     26340       212  PMPG      C216          -15.9187450654      -14.2425006004        0.0255108853  MEMB      212             0.0000000000
     26341       212  PMPG      H16R          -16.3765575107      -14.2993790699        1.0361991477  MEMB      212             0.0000000000
     26342       212  PMPG      H16S          -14.8936786183      -13.8761420092        0.2476394863  MEMB      212             0.0000000000
     26343       212  PMPG      H16T          -15.7996367065      -15.2533418513       -0.4198380967  MEMB      212             0.0000000000
     26344       212  PMPG      C33           -11.3207481216       -8.9480853178      -12.5540065197  MEMB      212             0.0000000000
     26345       212  PMPG      H3X           -11.7864699690       -9.7611285026      -13.1509864123  MEMB      212             0.0000000000
     26346       212  PMPG      H3Y           -12.0619937918       -8.1825035798      -12.2397441508  MEMB      212             0.0000000000
     26347       212  PMPG      C34           -10.8908557048       -9.4990930443      -11.1420566950  MEMB      212             0.0000000000
     26348       212  PMPG      H4X            -9.9980349768      -10.1601265140      -11.1571141401  MEMB      212             0.0000000000
     26349       212  PMPG      H4Y           -11.8350620134      -10.0108720284      -10.8576669137  MEMB      212             0.0000000000
     26350       212  PMPG      C35           -10.3560619929       -8.3920367208      -10.1040064818  MEMB      212             0.0000000000
     26351       212  PMPG      H5X           -11.0959635640       -7.5634671710      -10.0855829972  MEMB      212             0.0000000000
     26352       212  PMPG      H5Y            -9.3876226577       -8.0351680092      -10.5152125320  MEMB      212             0.0000000000
     26353       212  PMPG      C36           -10.1330933922       -8.9518806378       -8.6734992676  MEMB      212             0.0000000000
     26354       212  PMPG      H6X            -9.1701711452       -9.5029454932       -8.6149373146  MEMB      212             0.0000000000
     26355       212  PMPG      H6Y           -10.8964549097       -9.7084616195       -8.3921009323  MEMB      212             0.0000000000
     26356       212  PMPG      C37           -10.1035132748       -7.8728597117       -7.5976752213  MEMB      212             0.0000000000
     26357       212  PMPG      H7X           -10.9390507894       -7.1434330989       -7.6619796006  MEMB      212             0.0000000000
     26358       212  PMPG      H7Y            -9.2264099911       -7.2016281280       -7.7179202837  MEMB      212             0.0000000000
     26359       212  PMPG      C38           -10.1544060278       -8.3511347890       -6.1257220776  MEMB      212             0.0000000000
     26360       212  PMPG      H8X            -9.2825438556       -8.9403360731       -5.7693244228  MEMB      212             0.0000000000
     26361       212  PMPG      H8Y           -11.0117589529       -9.0542141429       -6.0553899551  MEMB      212             0.0000000000
     26362       212  PMPG      C39           -10.2759374946       -7.1826392722       -5.0736819530  MEMB      212             0.0000000000
     26363       212  PMPG      H9X           -11.1320585337       -6.5499465804       -5.3916097240  MEMB      212             0.0000000000
     26364       212  PMPG      H9Y            -9.3836974456       -6.5626981051       -5.3058489080  MEMB      212             0.0000000000
     26365       212  PMPG      C310          -10.3162039591       -7.5512896386       -3.6800051011  MEMB      212             0.0000000000
     26366       212  PMPG      H10X          -10.1513473304       -6.5742533871       -3.1774681617  MEMB      212             0.0000000000
     26367       212  PMPG      H10Y           -9.5025251908       -8.2048743365       -3.2991179716  MEMB      212             0.0000000000
     26368       212  PMPG      C311          -11.6503399371       -8.0746366506       -3.0661358920  MEMB      212             0.0000000000
     26369       212  PMPG      H11X          -11.8844317316       -9.0514937367       -3.5407639988  MEMB      212             0.0000000000
     26370       212  PMPG      H11Y          -12.4404073430       -7.3150127766       -3.2480316106  MEMB      212             0.0000000000
     26371       212  PMPG      C312          -11.5134574100       -8.2518822593       -1.5913022709  MEMB      212             0.0000000000
     26372       212  PMPG      H12X          -11.2316831819       -7.3711648266       -0.9754614968  MEMB      212             0.0000000000
     26373       212  PMPG      H12Y          -10.5388043198       -8.7695021821       -1.4630762360  MEMB      212             0.0000000000
     26374       212  PMPG      C313          -12.4915812079       -9.2583969076       -0.8968023838  MEMB      212             0.0000000000
     26375       212  PMPG      H13X          -12.6381684765      -10.1093897217       -1.5958335634  MEMB      212             0.0000000000
     26376       212  PMPG      H13Y          -13.5026202224       -8.8406012718       -0.7029769535  MEMB      212             0.0000000000
     26377       212  PMPG      C314          -11.8623881846       -9.9162768167        0.3018107454  MEMB      212             0.0000000000
     26378       212  PMPG      H14X          -11.7827694393       -9.1885925374        1.1375494633  MEMB      212             0.0000000000
     26379       212  PMPG      H14Y          -10.9303795148      -10.3924847634       -0.0708899521  MEMB      212             0.0000000000
     26380       212  PMPG      C315          -12.8062245509      -11.0843159423        0.7935301848  MEMB      212             0.0000000000
     26381       212  PMPG      H15X          -12.1916428514      -11.6462213186        1.5289701562  MEMB      212             0.0000000000
     26382       212  PMPG      H15Y          -13.0593577288      -11.8573599579        0.0367941804  MEMB      212             0.0000000000
     26383       212  PMPG      C316          -14.0633296944      -10.5985458742        1.5390011993  MEMB      212             0.0000000000
     26384       212  PMPG      H16X          -13.7912203896       -9.9036605191        2.3620518779  MEMB      212             0.0000000000
     26385       212  PMPG      H16Y          -14.5461297599      -11.4054956097        2.1306568769  MEMB      212             0.0000000000
     26386       212  PMPG      H16Z          -14.8883149311      -10.1346366139        0.9571871108  MEMB      212             0.0000000000
     26387       213  PMPE      N              -1.2066864114      -15.6477797290      -16.5507343647  MEMB      213             0.0000000000
     26388       213  PMPE      HN1            -1.9861942172      -16.1729039775      -16.9959445296  MEMB      213             0.0000000000
     26389       213  PMPE      HN2            -1.3085043173      -15.6452514971      -15.5157334945  MEMB      213             0.0000000000
     26390       213  PMPE      HN3            -1.1174415462      -14.7252185968      -17.0224506959  MEMB      213             0.0000000000
     26391       213  PMPE      C12             0.1235360288      -16.3412990203      -16.9615826133  MEMB      213             0.0000000000
     26392       213  PMPE      H12A            0.1248648618      -17.4242328828      -16.7134421468  MEMB      213             0.0000000000
     26393       213  PMPE      H12B            0.9936925722      -15.8443036003      -16.4818492156  MEMB      213             0.0000000000
     26394       213  PMPE      C11             0.4718813734      -16.2632635920      -18.4791720839  MEMB      213             0.0000000000
     26395       213  PMPE      H11A           -0.3181241666      -16.7960832294      -19.0504124467  MEMB      213             0.0000000000
     26396       213  PMPE      H11B            1.4169452701      -16.8462266796      -18.5156325853  MEMB      213             0.0000000000
     26397       213  PMPE      P               1.6887943787      -14.6567040770      -20.0678340189  MEMB      213             0.0000000000
     26398       213  PMPE      O13             1.7047645185      -13.2012590747      -20.3463201584  MEMB      213             0.0000000000
     26399       213  PMPE      O14             1.3698410806      -15.5682467682      -21.2648078884  MEMB      213             0.0000000000
     26400       213  PMPE      O11             3.0756847947      -15.1426342047      -19.4478817384  MEMB      213             0.0000000000
     26401       213  PMPE      O12             0.6903030561      -14.9030287319      -18.8816671345  MEMB      213             0.0000000000
     26402       213  PMPE      C1              3.6322947939      -14.2967543716      -18.4971044018  MEMB      213             0.0000000000
     26403       213  PMPE      HA              2.8921174452      -13.7730567508      -17.8550767946  MEMB      213             0.0000000000
     26404       213  PMPE      HB              4.2782479966      -13.5610742918      -19.0223090746  MEMB      213             0.0000000000
     26405       213  PMPE      C2              4.4083532646      -15.0917365348      -17.4111617889  MEMB      213             0.0000000000
     26406       213  PMPE      HS              5.1638655863      -15.7066881465      -17.9453498911  MEMB      213             0.0000000000
     26407       213  PMPE      O21             3.5110251643      -15.9643951356      -16.7041006553  MEMB      213             0.0000000000
     26408       213  PMPE      C21             4.0415991069      -16.9907278620      -16.0250097022  MEMB      213             0.0000000000
     26409       213  PMPE      O22             5.1490567228      -17.4381518091      -16.1333533804  MEMB      213             0.0000000000
     26410       213  PMPE      C22             2.9108470206      -17.6476030432      -15.0897447205  MEMB      213             0.0000000000
     26411       213  PMPE      H2R             2.3632998805      -18.4881074472      -15.5673066570  MEMB      213             0.0000000000
     26412       213  PMPE      H2S             2.1338803517      -16.8635153886      -14.9638479248  MEMB      213             0.0000000000
     26413       213  PMPE      C3              5.1861955506      -14.1393287385      -16.4316638403  MEMB      213             0.0000000000
     26414       213  PMPE      HX              5.5079252265      -13.3143640116      -17.1026662296  MEMB      213             0.0000000000
     26415       213  PMPE      HY              6.0647603189      -14.7123381806      -16.0654604362  MEMB      213             0.0000000000
     26416       213  PMPE      O31             4.2580686471      -13.7207325544      -15.4562261263  MEMB      213             0.0000000000
     26417       213  PMPE      C31             4.5619016304      -13.7393351260      -14.1777712807  MEMB      213             0.0000000000
     26418       213  PMPE      O32             5.6451451259      -14.0480008655      -13.7326903491  MEMB      213             0.0000000000
     26419       213  PMPE      C32             3.2850900888      -13.5337996517      -13.4291925095  MEMB      213             0.0000000000
     26420       213  PMPE      H2X             3.4953132976      -13.8114690805      -12.3741913539  MEMB      213             0.0000000000
     26421       213  PMPE      H2Y             2.3835340020      -14.0375666334      -13.8387484578  MEMB      213             0.0000000000
     26422       213  PMPE      C23             3.5982551958      -17.8498396991      -13.6430092693  MEMB      213             0.0000000000
     26423       213  PMPE      H3R             4.4565175138      -17.1464576326      -13.5885980606  MEMB      213             0.0000000000
     26424       213  PMPE      H3S             4.1495940237      -18.8130230215      -13.5917796563  MEMB      213             0.0000000000
     26425       213  PMPE      C24             2.7525397104      -17.5274614518      -12.4234100027  MEMB      213             0.0000000000
     26426       213  PMPE      H4R             2.3434143530      -16.4957842920      -12.4742002615  MEMB      213             0.0000000000
     26427       213  PMPE      H4S             3.4709635109      -17.4223563175      -11.5824930422  MEMB      213             0.0000000000
     26428       213  PMPE      C25             1.6877970821      -18.5490281722      -11.9320172562  MEMB      213             0.0000000000
     26429       213  PMPE      H5R             2.2278832494      -19.4493403650      -11.5686085956  MEMB      213             0.0000000000
     26430       213  PMPE      H5S             1.1694844402      -18.8459478941      -12.8687732533  MEMB      213             0.0000000000
     26431       213  PMPE      C26             0.7150876091      -17.9826718994      -10.9466830019  MEMB      213             0.0000000000
     26432       213  PMPE      H6R            -0.0564974405      -18.7602978065      -10.7615456556  MEMB      213             0.0000000000
     26433       213  PMPE      H6S             0.1976026859      -17.1137955869      -11.4066660741  MEMB      213             0.0000000000
     26434       213  PMPE      C27             1.3520226215      -17.5166751321       -9.6258711327  MEMB      213             0.0000000000
     26435       213  PMPE      H7R             1.8951461830      -16.5761935234       -9.8600347755  MEMB      213             0.0000000000
     26436       213  PMPE      H7S             2.0919421590      -18.1982315544       -9.1543625918  MEMB      213             0.0000000000
     26437       213  PMPE      C28             0.3827708724      -17.1809066922       -8.5080607339  MEMB      213             0.0000000000
     26438       213  PMPE      H8R            -0.2200824949      -16.2713481849       -8.7168478002  MEMB      213             0.0000000000
     26439       213  PMPE      H8S             0.9233815913      -16.7284134438       -7.6493923153  MEMB      213             0.0000000000
     26440       213  PMPE      C29            -0.4382117736      -18.3515005139       -8.0697317500  MEMB      213             0.0000000000
     26441       213  PMPE      H9R             0.0634771591      -19.3423403101       -8.0991530757  MEMB      213             0.0000000000
     26442       213  PMPE      C217           -1.7827102040      -18.3531533541       -8.8540893231  MEMB      213             0.0000000000
     26443       213  PMPE      H17R           -2.1247321865      -19.2896428429       -9.2770525743  MEMB      213             0.0000000000
     26444       213  PMPE      H17S           -2.1092059260      -17.3925268235       -9.2328850801  MEMB      213             0.0000000000
     26445       213  PMPE      C210           -1.7243953993      -18.2637540051       -7.2939551212  MEMB      213             0.0000000000
     26446       213  PMPE      H10R           -2.1743942090      -19.1989538431       -6.8974423287  MEMB      213             0.0000000000
     26447       213  PMPE      C211           -2.0082655795      -16.8666441535       -6.7039110329  MEMB      213             0.0000000000
     26448       213  PMPE      H11R           -3.0860654451      -16.9106244126       -6.4379517006  MEMB      213             0.0000000000
     26449       213  PMPE      H11S           -1.9875091489      -16.1193075019       -7.5257247750  MEMB      213             0.0000000000
     26450       213  PMPE      C212           -1.1169467244      -16.4137400357       -5.6118952046  MEMB      213             0.0000000000
     26451       213  PMPE      H12R           -0.0584423076      -16.3620756258       -5.9453919315  MEMB      213             0.0000000000
     26452       213  PMPE      H12S           -1.0420487257      -17.2450179788       -4.8786223941  MEMB      213             0.0000000000
     26453       213  PMPE      C213           -1.5312412324      -15.0381183005       -4.8775799688  MEMB      213             0.0000000000
     26454       213  PMPE      H13R           -2.3864021719      -14.5924636799       -5.4293158558  MEMB      213             0.0000000000
     26455       213  PMPE      H13S           -0.6612777281      -14.3766562286       -5.0774604025  MEMB      213             0.0000000000
     26456       213  PMPE      C214           -2.0230810643      -15.4306584043       -3.4870953503  MEMB      213             0.0000000000
     26457       213  PMPE      H14R           -1.3357987113      -16.2300452811       -3.1364618553  MEMB      213             0.0000000000
     26458       213  PMPE      H14S           -3.0104344694      -15.8966694272       -3.6927358834  MEMB      213             0.0000000000
     26459       213  PMPE      C215           -2.2174979328      -14.3709559487       -2.3954773599  MEMB      213             0.0000000000
     26460       213  PMPE      H15R           -1.2241137395      -14.0544590363       -2.0116303591  MEMB      213             0.0000000000
     26461       213  PMPE      H15S           -2.7295311076      -14.7767816361       -1.4968964692  MEMB      213             0.0000000000
     26462       213  PMPE      C216           -3.1294150034      -13.2480455675       -2.7862110743  MEMB      213             0.0000000000
     26463       213  PMPE      H16R           -3.3238873460      -12.5962460711       -1.9077706849  MEMB      213             0.0000000000
     26464       213  PMPE      H16S           -2.8164894044      -12.7812707771       -3.7446061520  MEMB      213             0.0000000000
     26465       213  PMPE      H16T           -4.1158881000      -13.6715576354       -3.0722705567  MEMB      213             0.0000000000
     26466       213  PMPE      C33             2.8272819530      -12.0629480751      -13.3836333836  MEMB      213             0.0000000000
     26467       213  PMPE      H3X             2.5934271822      -11.8290912022      -14.4442672389  MEMB      213             0.0000000000
     26468       213  PMPE      H3Y             3.4902742871      -11.2669888050      -12.9821227829  MEMB      213             0.0000000000
     26469       213  PMPE      C34             1.5685414243      -11.7915665588      -12.5329339103  MEMB      213             0.0000000000
     26470       213  PMPE      H4X             0.6649076741      -12.0700939022      -13.1161914227  MEMB      213             0.0000000000
     26471       213  PMPE      H4Y             1.5672949293      -10.6849145664      -12.4347460966  MEMB      213             0.0000000000
     26472       213  PMPE      C35             1.6328753206      -12.5638707858      -11.1716401055  MEMB      213             0.0000000000
     26473       213  PMPE      H5X             1.6501560975      -13.6456808075      -11.4240471944  MEMB      213             0.0000000000
     26474       213  PMPE      H5Y             0.7614109016      -12.3657109141      -10.5116371953  MEMB      213             0.0000000000
     26475       213  PMPE      C36             2.7784021243      -12.0998333095      -10.2420656523  MEMB      213             0.0000000000
     26476       213  PMPE      H6X             2.9407770736      -11.0039047885      -10.3251095828  MEMB      213             0.0000000000
     26477       213  PMPE      H6Y             3.6960129705      -12.5576893731      -10.6694751891  MEMB      213             0.0000000000
     26478       213  PMPE      C37             2.6149999328      -12.6132756690       -8.7361938056  MEMB      213             0.0000000000
     26479       213  PMPE      H7X             2.3781980614      -13.6941011690       -8.8365023667  MEMB      213             0.0000000000
     26480       213  PMPE      H7Y             1.7979933169      -12.0110293116       -8.2843967503  MEMB      213             0.0000000000
     26481       213  PMPE      C38             3.9202561629      -12.5000799299       -7.9357330925  MEMB      213             0.0000000000
     26482       213  PMPE      H8X             4.2056141167      -11.5148453411       -7.5088785349  MEMB      213             0.0000000000
     26483       213  PMPE      H8Y             4.8336844613      -12.8787500665       -8.4422692203  MEMB      213             0.0000000000
     26484       213  PMPE      C39             3.8707674128      -13.1763011396       -6.4594857086  MEMB      213             0.0000000000
     26485       213  PMPE      H9X             4.6927270739      -12.7457080877       -5.8485090836  MEMB      213             0.0000000000
     26486       213  PMPE      H9Y             3.9466104879      -14.2828109480       -6.5243305071  MEMB      213             0.0000000000
     26487       213  PMPE      C310            2.5604153783      -12.7686744953       -5.6477004520  MEMB      213             0.0000000000
     26488       213  PMPE      H10X            1.6559200897      -13.0002428938       -6.2498509340  MEMB      213             0.0000000000
     26489       213  PMPE      H10Y            2.6947607985      -11.6667269247       -5.6031577808  MEMB      213             0.0000000000
     26490       213  PMPE      C311            2.4029529123      -13.3626829958       -4.3401845458  MEMB      213             0.0000000000
     26491       213  PMPE      H11X            1.5641295735      -12.7906901640       -3.8890515745  MEMB      213             0.0000000000
     26492       213  PMPE      H11Y            3.3557828005      -13.1991250222       -3.7927492286  MEMB      213             0.0000000000
     26493       213  PMPE      C312            2.2205737705      -14.8673876898       -4.3503645246  MEMB      213             0.0000000000
     26494       213  PMPE      H12X            3.0533689975      -15.2517645596       -4.9772835560  MEMB      213             0.0000000000
     26495       213  PMPE      H12Y            1.3323789726      -15.2008495051       -4.9284946360  MEMB      213             0.0000000000
     26496       213  PMPE      C313            2.2368308923      -15.5103025462       -2.9041898446  MEMB      213             0.0000000000
     26497       213  PMPE      H13X            1.5629176683      -15.0475582119       -2.1518409913  MEMB      213             0.0000000000
     26498       213  PMPE      H13Y            3.2213630776      -15.1693111465       -2.5185179838  MEMB      213             0.0000000000
     26499       213  PMPE      C314            1.9702108418      -16.9925402863       -3.1313452838  MEMB      213             0.0000000000
     26500       213  PMPE      H14X            2.3193116977      -17.2185048081       -4.1615821823  MEMB      213             0.0000000000
     26501       213  PMPE      H14Y            0.8875843439      -17.2417695319       -3.1201322615  MEMB      213             0.0000000000
     26502       213  PMPE      C315            2.6983021899      -17.9237856424       -2.1158799297  MEMB      213             0.0000000000
     26503       213  PMPE      H15X            2.3972898552      -17.6053766852       -1.0949348795  MEMB      213             0.0000000000
     26504       213  PMPE      H15Y            3.7950808108      -17.7754598574       -2.2128202110  MEMB      213             0.0000000000
     26505       213  PMPE      C316            2.5132859087      -19.4249571387       -2.2478347969  MEMB      213             0.0000000000
     26506       213  PMPE      H16X            2.5095938041      -19.8434528850       -3.2769926612  MEMB      213             0.0000000000
     26507       213  PMPE      H16Y            1.6110241352      -19.7909251870       -1.7127533996  MEMB      213             0.0000000000
     26508       213  PMPE      H16Z            3.3214604219      -20.0274482449       -1.7807372745  MEMB      213             0.0000000000
     26509       214  PYPG      C13           -13.3797255564       -1.9688292824      -19.3093332145  MEMB      214             0.0000000000
     26510       214  PYPG      H13A          -13.1170236997       -1.9954549878      -18.2301669022  MEMB      214             0.0000000000
     26511       214  PYPG      H13B          -12.6281899300       -2.4391262978      -19.9789121391  MEMB      214             0.0000000000
     26512       214  PYPG      OC3           -13.4612589469       -0.5335554138      -19.5484320307  MEMB      214             0.0000000000
     26513       214  PYPG      HO3           -12.7443381724       -0.2974310570      -20.1416182267  MEMB      214             0.0000000000
     26514       214  PYPG      C12           -14.7694241805       -2.6412156185      -19.5796104436  MEMB      214             0.0000000000
     26515       214  PYPG      H12A          -14.6805653395       -3.7137009548      -19.2886493640  MEMB      214             0.0000000000
     26516       214  PYPG      OC2           -15.0797065167       -2.5867979966      -20.9727380344  MEMB      214             0.0000000000
     26517       214  PYPG      HO2           -16.0087671488       -2.9038784367      -21.0047251648  MEMB      214             0.0000000000
     26518       214  PYPG      C11           -15.9165150441       -2.0430325658      -18.7727653211  MEMB      214             0.0000000000
     26519       214  PYPG      H11A          -15.8726524109       -0.9461654056      -18.9438779949  MEMB      214             0.0000000000
     26520       214  PYPG      H11B          -15.7072307296       -2.0710534181      -17.6820151554  MEMB      214             0.0000000000
     26521       214  PYPG      P             -18.4217629874       -1.9722927740      -18.3761236571  MEMB      214             0.0000000000
     26522       214  PYPG      O13           -19.6273888133       -2.5464084641      -19.0755464370  MEMB      214             0.0000000000
     26523       214  PYPG      O14           -18.3764513721       -0.5105728577      -18.2240448588  MEMB      214             0.0000000000
     26524       214  PYPG      O11           -18.1512515141       -2.5532263941      -16.9726775337  MEMB      214             0.0000000000
     26525       214  PYPG      O12           -17.2208170406       -2.5105918971      -19.1687284689  MEMB      214             0.0000000000
     26526       214  PYPG      C1            -18.9055218205       -3.6886057470      -16.6190325340  MEMB      214             0.0000000000
     26527       214  PYPG      HA            -18.2920829542       -4.5523166298      -16.9537223779  MEMB      214             0.0000000000
     26528       214  PYPG      HB            -19.9175597511       -3.8114572415      -17.0606293039  MEMB      214             0.0000000000
     26529       214  PYPG      C2            -18.9983927386       -3.8321300075      -15.0314604669  MEMB      214             0.0000000000
     26530       214  PYPG      HS            -19.7833651024       -4.5647886882      -14.7462410191  MEMB      214             0.0000000000
     26531       214  PYPG      O21           -19.2379030903       -2.6208703709      -14.3321443921  MEMB      214             0.0000000000
     26532       214  PYPG      C21           -20.3850128080       -1.9663105722      -14.5485862812  MEMB      214             0.0000000000
     26533       214  PYPG      O22           -21.3377103547       -2.3839350240      -15.1873859536  MEMB      214             0.0000000000
     26534       214  PYPG      C22           -20.4299981037       -0.7072828500      -13.7435361052  MEMB      214             0.0000000000
     26535       214  PYPG      H2R           -19.9609473020        0.1255660819      -14.3098177932  MEMB      214             0.0000000000
     26536       214  PYPG      H2S           -19.7265184237       -0.9135243756      -12.9087297012  MEMB      214             0.0000000000
     26537       214  PYPG      C3            -17.6322447879       -4.3645587822      -14.4511431007  MEMB      214             0.0000000000
     26538       214  PYPG      HX            -17.3403482877       -5.3420496918      -14.8911761016  MEMB      214             0.0000000000
     26539       214  PYPG      HY            -17.9286858215       -4.5956150780      -13.4056497774  MEMB      214             0.0000000000
     26540       214  PYPG      O31           -16.5980615026       -3.3655654337      -14.4043299088  MEMB      214             0.0000000000
     26541       214  PYPG      C31           -15.5223758806       -3.9112230874      -13.9245001647  MEMB      214             0.0000000000
     26542       214  PYPG      O32           -15.3055877271       -5.0624491768      -13.9746539724  MEMB      214             0.0000000000
     26543       214  PYPG      C32           -14.5004619279       -2.8827134984      -13.3512047097  MEMB      214             0.0000000000
     26544       214  PYPG      H2X           -13.7674475908       -3.5581102569      -12.8604398474  MEMB      214             0.0000000000
     26545       214  PYPG      H2Y           -13.9837417538       -2.3535319750      -14.1802331849  MEMB      214             0.0000000000
     26546       214  PYPG      C23           -21.8746795805       -0.4034805122      -13.2439316840  MEMB      214             0.0000000000
     26547       214  PYPG      H3R           -22.5068924161       -1.3170588404      -13.2423796216  MEMB      214             0.0000000000
     26548       214  PYPG      H3S           -22.4003125056        0.2772820668      -13.9472052335  MEMB      214             0.0000000000
     26549       214  PYPG      C24           -21.7698090632        0.1703140455      -11.8421791962  MEMB      214             0.0000000000
     26550       214  PYPG      H4R           -22.7364517815        0.5671300614      -11.4647409113  MEMB      214             0.0000000000
     26551       214  PYPG      H4S           -21.0792519818        1.0405816679      -11.8329024569  MEMB      214             0.0000000000
     26552       214  PYPG      C25           -21.5422268389       -0.8420296654      -10.7628675495  MEMB      214             0.0000000000
     26553       214  PYPG      H5R           -20.8227496538       -1.6355934051      -11.0577071550  MEMB      214             0.0000000000
     26554       214  PYPG      H5S           -22.4289924075       -1.4132039258      -10.4139721114  MEMB      214             0.0000000000
     26555       214  PYPG      C26           -20.8954706024       -0.0869387008       -9.5674149219  MEMB      214             0.0000000000
     26556       214  PYPG      H6R           -21.1981200997       -0.6174683377       -8.6393726961  MEMB      214             0.0000000000
     26557       214  PYPG      H6S           -21.1564703705        0.9835593311       -9.4251689298  MEMB      214             0.0000000000
     26558       214  PYPG      C27           -19.3243275975       -0.1647657605       -9.6588654302  MEMB      214             0.0000000000
     26559       214  PYPG      H7R           -18.9526511380        0.6051080107      -10.3684234699  MEMB      214             0.0000000000
     26560       214  PYPG      H7S           -19.0629887576       -1.0807023703      -10.2307781013  MEMB      214             0.0000000000
     26561       214  PYPG      C28           -18.6197627959       -0.1182733309       -8.3096215331  MEMB      214             0.0000000000
     26562       214  PYPG      H8R           -17.5238298245        0.0415088046       -8.3974929145  MEMB      214             0.0000000000
     26563       214  PYPG      H8S           -18.7980183306       -1.0510121347       -7.7329549499  MEMB      214             0.0000000000
     26564       214  PYPG      C29           -19.1771175868        0.9982959429       -7.4211187384  MEMB      214             0.0000000000
     26565       214  PYPG      H9R           -19.0755493494        2.0366602081       -7.7696638653  MEMB      214             0.0000000000
     26566       214  PYPG      C210          -19.8680253550        0.8029508693       -6.2716076517  MEMB      214             0.0000000000
     26567       214  PYPG      H10R          -20.2112118545        1.6687960895       -5.6863426540  MEMB      214             0.0000000000
     26568       214  PYPG      C211          -20.3012156443       -0.4559957403       -5.5829799906  MEMB      214             0.0000000000
     26569       214  PYPG      H11R          -20.1775365627       -1.3885043151       -6.1741255469  MEMB      214             0.0000000000
     26570       214  PYPG      H11S          -21.4042444670       -0.4010595351       -5.4620260166  MEMB      214             0.0000000000
     26571       214  PYPG      C212          -19.5854460806       -0.8288298472       -4.2029239896  MEMB      214             0.0000000000
     26572       214  PYPG      H12R          -18.5681868431       -1.2598894507       -4.3199374689  MEMB      214             0.0000000000
     26573       214  PYPG      H12S          -20.2862768119       -1.5809213674       -3.7815981827  MEMB      214             0.0000000000
     26574       214  PYPG      C213          -19.6099187062        0.4161990456       -3.2862397726  MEMB      214             0.0000000000
     26575       214  PYPG      H13R          -20.5892842756        0.9365042528       -3.2195586420  MEMB      214             0.0000000000
     26576       214  PYPG      H13S          -18.9122824190        1.2058611148       -3.6384594760  MEMB      214             0.0000000000
     26577       214  PYPG      C214          -19.1235710287        0.1021368669       -1.8572959382  MEMB      214             0.0000000000
     26578       214  PYPG      H14R          -19.9181491547       -0.4915409129       -1.3567840643  MEMB      214             0.0000000000
     26579       214  PYPG      H14S          -18.2204323790       -0.5443660209       -1.8836682904  MEMB      214             0.0000000000
     26580       214  PYPG      C215          -18.8759128599        1.3331621737       -0.9868031903  MEMB      214             0.0000000000
     26581       214  PYPG      H15R          -19.6956211269        2.0619540588       -1.1636128134  MEMB      214             0.0000000000
     26582       214  PYPG      H15S          -17.9282372994        1.8443531133       -1.2605097952  MEMB      214             0.0000000000
     26583       214  PYPG      C216          -18.8618640873        0.9463339009        0.5114499119  MEMB      214             0.0000000000
     26584       214  PYPG      H16R          -18.6440255800        1.8682145241        1.0919712896  MEMB      214             0.0000000000
     26585       214  PYPG      H16S          -18.0690741295        0.1948701685        0.7141995724  MEMB      214             0.0000000000
     26586       214  PYPG      H16T          -19.8248028523        0.4891321374        0.8245582878  MEMB      214             0.0000000000
     26587       214  PYPG      C33           -15.1985714333       -1.8453049644      -12.4186676169  MEMB      214             0.0000000000
     26588       214  PYPG      H3X           -16.0266849417       -2.2841308701      -11.8220262925  MEMB      214             0.0000000000
     26589       214  PYPG      H3Y           -15.6906042987       -1.0582624549      -13.0292320969  MEMB      214             0.0000000000
     26590       214  PYPG      C34           -14.1513132380       -1.2226063460      -11.5295733895  MEMB      214             0.0000000000
     26591       214  PYPG      H4X           -14.6145239335       -0.2425748969      -11.2860675822  MEMB      214             0.0000000000
     26592       214  PYPG      H4Y           -13.1976503283       -1.0145852717      -12.0602105194  MEMB      214             0.0000000000
     26593       214  PYPG      C35           -13.8461347070       -2.0186617042      -10.2209204821  MEMB      214             0.0000000000
     26594       214  PYPG      H5X           -13.2651664138       -2.9245306015      -10.4969611012  MEMB      214             0.0000000000
     26595       214  PYPG      H5Y           -14.7988404402       -2.4450636543       -9.8403228876  MEMB      214             0.0000000000
     26596       214  PYPG      C36           -13.0632796708       -1.2539623773       -9.1745732117  MEMB      214             0.0000000000
     26597       214  PYPG      H6X           -13.3142446298       -0.1784994257       -9.2958876541  MEMB      214             0.0000000000
     26598       214  PYPG      H6Y           -11.9809664938       -1.2175593714       -9.4227542400  MEMB      214             0.0000000000
     26599       214  PYPG      C37           -13.5014128657       -1.6967295698       -7.7027944608  MEMB      214             0.0000000000
     26600       214  PYPG      H7X           -13.2931786414       -2.7651756727       -7.4805722582  MEMB      214             0.0000000000
     26601       214  PYPG      H7Y           -12.9737351249       -0.9577236872       -7.0626798528  MEMB      214             0.0000000000
     26602       214  PYPG      C38           -14.9263274900       -1.4895946179       -7.3083359530  MEMB      214             0.0000000000
     26603       214  PYPG      H8X           -15.6044726583       -2.0823701621       -7.9587649807  MEMB      214             0.0000000000
     26604       214  PYPG      H8Y           -15.2504904802       -0.4378698501       -7.4603711507  MEMB      214             0.0000000000
     26605       214  PYPG      C39           -15.1713046501       -2.0262652822       -5.8624848918  MEMB      214             0.0000000000
     26606       214  PYPG      H9X           -14.5580490039       -2.9384985529       -5.7010262783  MEMB      214             0.0000000000
     26607       214  PYPG      H9Y           -16.2323840761       -2.3542498598       -5.8332000982  MEMB      214             0.0000000000
     26608       214  PYPG      C310          -14.9218152986       -0.9621115004       -4.7243584663  MEMB      214             0.0000000000
     26609       214  PYPG      H10X          -15.7537015511       -0.2360486137       -4.6014001025  MEMB      214             0.0000000000
     26610       214  PYPG      H10Y          -14.1152373692       -0.2471346942       -4.9937304188  MEMB      214             0.0000000000
     26611       214  PYPG      C311          -14.6846719091       -1.7441452973       -3.4333634663  MEMB      214             0.0000000000
     26612       214  PYPG      H11X          -13.8725743673       -2.4853661104       -3.5927675618  MEMB      214             0.0000000000
     26613       214  PYPG      H11Y          -15.5263991578       -2.4007289983       -3.1256069934  MEMB      214             0.0000000000
     26614       214  PYPG      C312          -14.0455232406       -0.9708803049       -2.3189823443  MEMB      214             0.0000000000
     26615       214  PYPG      H12X          -13.6966027667       -1.6237343170       -1.4905156493  MEMB      214             0.0000000000
     26616       214  PYPG      H12Y          -13.1701567666       -0.4083623021       -2.7083766668  MEMB      214             0.0000000000
     26617       214  PYPG      C313          -15.0575253510        0.0219061378       -1.6860370861  MEMB      214             0.0000000000
     26618       214  PYPG      H13X          -15.6433882917        0.5766672503       -2.4497954929  MEMB      214             0.0000000000
     26619       214  PYPG      H13Y          -15.6657766948       -0.6770888145       -1.0730474517  MEMB      214             0.0000000000
     26620       214  PYPG      C314          -14.4897444874        1.2107211591       -0.8437665790  MEMB      214             0.0000000000
     26621       214  PYPG      H14X          -15.3068882893        1.7880151045       -0.3607263860  MEMB      214             0.0000000000
     26622       214  PYPG      H14Y          -13.8089708387        0.9312237676       -0.0114510063  MEMB      214             0.0000000000
     26623       214  PYPG      C315          -13.5839531395        2.2940646309       -1.5260206358  MEMB      214             0.0000000000
     26624       214  PYPG      H15X          -13.0419627267        2.8655271584       -0.7424391497  MEMB      214             0.0000000000
     26625       214  PYPG      H15Y          -12.8003492542        1.7278331522       -2.0734390811  MEMB      214             0.0000000000
     26626       214  PYPG      C316          -14.3035730841        3.2375657678       -2.4307561930  MEMB      214             0.0000000000
     26627       214  PYPG      H16X          -13.5568942634        4.0044656825       -2.7285081128  MEMB      214             0.0000000000
     26628       214  PYPG      H16Y          -15.0953423577        3.7376688512       -1.8329950777  MEMB      214             0.0000000000
     26629       214  PYPG      H16Z          -14.7890531304        2.7557953645       -3.3062717478  MEMB      214             0.0000000000
     26630       215  PMPE      N              15.6705027689        3.0058101255      -19.6546903052  MEMB      215             0.0000000000
     26631       215  PMPE      HN1            16.3072899442        2.5290835684      -20.3246410517  MEMB      215             0.0000000000
     26632       215  PMPE      HN2            14.7139374116        2.8339035671      -20.0248670501  MEMB      215             0.0000000000
     26633       215  PMPE      HN3            15.8924132095        4.0143085476      -19.5310511721  MEMB      215             0.0000000000
     26634       215  PMPE      C12            15.8907194466        2.5117624670      -18.2883624855  MEMB      215             0.0000000000
     26635       215  PMPE      H12A           15.3200390460        3.0963722990      -17.5354505449  MEMB      215             0.0000000000
     26636       215  PMPE      H12B           16.9703028892        2.6566009674      -18.0696339305  MEMB      215             0.0000000000
     26637       215  PMPE      C11            15.6321530894        0.9987577167      -18.0765955998  MEMB      215             0.0000000000
     26638       215  PMPE      H11A           14.5610960122        0.8240630936      -17.8386055200  MEMB      215             0.0000000000
     26639       215  PMPE      H11B           16.1347273393        0.6773652403      -17.1393405806  MEMB      215             0.0000000000
     26640       215  PMPE      P              17.6101021532       -0.3250966517      -19.2694055892  MEMB      215             0.0000000000
     26641       215  PMPE      O13            18.5434305124        0.8468956414      -19.4307212927  MEMB      215             0.0000000000
     26642       215  PMPE      O14            17.6434016519       -1.3870869961      -20.3173124843  MEMB      215             0.0000000000
     26643       215  PMPE      O11            17.9558371540       -0.9500783737      -17.8300158296  MEMB      215             0.0000000000
     26644       215  PMPE      O12            16.0872724102        0.1098246913      -19.1328964140  MEMB      215             0.0000000000
     26645       215  PMPE      C1             17.3679015905       -2.2371703270      -17.5717118625  MEMB      215             0.0000000000
     26646       215  PMPE      HA             17.9312768086       -3.0566499101      -18.0670726150  MEMB      215             0.0000000000
     26647       215  PMPE      HB             16.3303101193       -2.3789848368      -17.9426751217  MEMB      215             0.0000000000
     26648       215  PMPE      C2             17.2538446798       -2.4101818650      -15.9793445390  MEMB      215             0.0000000000
     26649       215  PMPE      HS             16.4770359803       -1.7402494597      -15.5526365526  MEMB      215             0.0000000000
     26650       215  PMPE      O21            18.5967117916       -2.2562207604      -15.4944612542  MEMB      215             0.0000000000
     26651       215  PMPE      C21            18.6329531081       -1.5901748345      -14.3634313711  MEMB      215             0.0000000000
     26652       215  PMPE      O22            17.7228462666       -0.9581251793      -13.8742598936  MEMB      215             0.0000000000
     26653       215  PMPE      C22            20.0847930442       -1.5986022018      -13.7703220994  MEMB      215             0.0000000000
     26654       215  PMPE      H2R            20.5748079966       -0.8071366908      -14.3767779614  MEMB      215             0.0000000000
     26655       215  PMPE      H2S            20.7117484454       -2.4803934044      -14.0226947230  MEMB      215             0.0000000000
     26656       215  PMPE      C3             16.8111105169       -3.8053233813      -15.4360393804  MEMB      215             0.0000000000
     26657       215  PMPE      HX             17.6784481934       -4.4833386190      -15.5855114206  MEMB      215             0.0000000000
     26658       215  PMPE      HY             15.9229072339       -4.0067245153      -16.0723203873  MEMB      215             0.0000000000
     26659       215  PMPE      O31            16.3158097755       -3.8437748767      -14.1387451551  MEMB      215             0.0000000000
     26660       215  PMPE      C31            15.0667425048       -3.5524892554      -13.7517266200  MEMB      215             0.0000000000
     26661       215  PMPE      O32            14.1529170204       -3.1511998236      -14.4273710304  MEMB      215             0.0000000000
     26662       215  PMPE      C32            15.0085811204       -3.9916907766      -12.2156530663  MEMB      215             0.0000000000
     26663       215  PMPE      H2X            15.9166798682       -4.6033426340      -12.0270804580  MEMB      215             0.0000000000
     26664       215  PMPE      H2Y            14.0915401382       -4.5601315429      -11.9506402403  MEMB      215             0.0000000000
     26665       215  PMPE      C23            20.2233743264       -1.4364307527      -12.2663873745  MEMB      215             0.0000000000
     26666       215  PMPE      H3R            21.2985928664       -1.3879794704      -11.9909274214  MEMB      215             0.0000000000
     26667       215  PMPE      H3S            19.8730513310       -2.3499868360      -11.7400700326  MEMB      215             0.0000000000
     26668       215  PMPE      C24            19.3522954110       -0.3532094201      -11.6327491043  MEMB      215             0.0000000000
     26669       215  PMPE      H4R            18.3454544591       -0.7997072033      -11.4870372346  MEMB      215             0.0000000000
     26670       215  PMPE      H4S            19.3156490757        0.4630570267      -12.3855352952  MEMB      215             0.0000000000
     26671       215  PMPE      C25            19.7931540495        0.2793677344      -10.2895610215  MEMB      215             0.0000000000
     26672       215  PMPE      H5R            19.1072490895        1.0873428341       -9.9563474076  MEMB      215             0.0000000000
     26673       215  PMPE      H5S            20.7781264018        0.7578087150      -10.4772963716  MEMB      215             0.0000000000
     26674       215  PMPE      C26            20.0555026883       -0.7450013872       -9.1932887252  MEMB      215             0.0000000000
     26675       215  PMPE      H6R            20.5767706064       -1.6394845137       -9.5964027943  MEMB      215             0.0000000000
     26676       215  PMPE      H6S            19.0502633362       -1.0013997325       -8.7957025551  MEMB      215             0.0000000000
     26677       215  PMPE      C27            20.7959045919       -0.1328989981       -7.9823551354  MEMB      215             0.0000000000
     26678       215  PMPE      H7R            20.6955941870        0.9663943137       -7.8566048630  MEMB      215             0.0000000000
     26679       215  PMPE      H7S            21.8601548253       -0.3756721466       -8.1891241203  MEMB      215             0.0000000000
     26680       215  PMPE      C28            20.3713790904       -0.8301682701       -6.6799668810  MEMB      215             0.0000000000
     26681       215  PMPE      H8R            19.2854697098       -1.0573131975       -6.6205790440  MEMB      215             0.0000000000
     26682       215  PMPE      H8S            20.6581650092       -0.1651878946       -5.8374255732  MEMB      215             0.0000000000
     26683       215  PMPE      C29            21.1008614200       -2.1630882284       -6.5694405831  MEMB      215             0.0000000000
     26684       215  PMPE      H9R            22.2053805733       -2.1372909964       -6.4524252289  MEMB      215             0.0000000000
     26685       215  PMPE      C217           20.5446435016       -3.4379051544       -7.2979790654  MEMB      215             0.0000000000
     26686       215  PMPE      H17R           21.3455534483       -3.8943137891       -7.8664185499  MEMB      215             0.0000000000
     26687       215  PMPE      H17S           19.5402810168       -3.2211792933       -7.6402874244  MEMB      215             0.0000000000
     26688       215  PMPE      C210           20.6251875934       -3.2541744292       -5.7257075602  MEMB      215             0.0000000000
     26689       215  PMPE      H10R           21.4480476542       -3.8043345848       -5.2211818185  MEMB      215             0.0000000000
     26690       215  PMPE      C211           19.2525754850       -3.2198473653       -5.0267741149  MEMB      215             0.0000000000
     26691       215  PMPE      H11R           18.9611339299       -4.2540498636       -4.7442717025  MEMB      215             0.0000000000
     26692       215  PMPE      H11S           18.4938712575       -2.9660291690       -5.7976605377  MEMB      215             0.0000000000
     26693       215  PMPE      C212           19.1055831626       -2.2949648550       -3.7573166610  MEMB      215             0.0000000000
     26694       215  PMPE      H12R           18.0145626762       -2.3552403364       -3.5564128749  MEMB      215             0.0000000000
     26695       215  PMPE      H12S           19.3876974154       -1.2339657316       -3.9276500242  MEMB      215             0.0000000000
     26696       215  PMPE      C213           19.9183319782       -2.9953267431       -2.6147998040  MEMB      215             0.0000000000
     26697       215  PMPE      H13R           20.9859002440       -3.0533340445       -2.9168829289  MEMB      215             0.0000000000
     26698       215  PMPE      H13S           19.4835663889       -3.9964398910       -2.4072619905  MEMB      215             0.0000000000
     26699       215  PMPE      C214           19.8943897036       -2.1690953631       -1.3411669926  MEMB      215             0.0000000000
     26700       215  PMPE      H14R           18.8509988372       -1.9652941859       -1.0184888475  MEMB      215             0.0000000000
     26701       215  PMPE      H14S           20.4630505295       -1.2146753258       -1.3464813646  MEMB      215             0.0000000000
     26702       215  PMPE      C215           20.4947536267       -3.0029466078       -0.2248694168  MEMB      215             0.0000000000
     26703       215  PMPE      H15R           21.3674765144       -3.5970108900       -0.5709373204  MEMB      215             0.0000000000
     26704       215  PMPE      H15S           19.7616959651       -3.6815702198        0.2613586918  MEMB      215             0.0000000000
     26705       215  PMPE      C216           20.7888047208       -2.1883804321        1.0349538162  MEMB      215             0.0000000000
     26706       215  PMPE      H16R           19.9961864867       -1.5297895269        1.4500859486  MEMB      215             0.0000000000
     26707       215  PMPE      H16S           21.1527164865       -2.8110468482        1.8800429225  MEMB      215             0.0000000000
     26708       215  PMPE      H16T           21.6862209227       -1.5602790222        0.8493356474  MEMB      215             0.0000000000
     26709       215  PMPE      C33            15.0729651413       -2.6995404699      -11.3756153912  MEMB      215             0.0000000000
     26710       215  PMPE      H3X            15.9238806793       -1.9880125195      -11.4387956913  MEMB      215             0.0000000000
     26711       215  PMPE      H3Y            14.9520925130       -3.1055692858      -10.3485560121  MEMB      215             0.0000000000
     26712       215  PMPE      C34            13.7912488510       -1.7755974563      -11.5564292779  MEMB      215             0.0000000000
     26713       215  PMPE      H4X            12.9147287953       -2.2940868514      -11.1123548324  MEMB      215             0.0000000000
     26714       215  PMPE      H4Y            13.6027482947       -1.6114711851      -12.6389503055  MEMB      215             0.0000000000
     26715       215  PMPE      C35            14.0224094317       -0.4140994548      -10.9130574313  MEMB      215             0.0000000000
     26716       215  PMPE      H5X            12.9844016474       -0.0289086496      -10.8209205838  MEMB      215             0.0000000000
     26717       215  PMPE      H5Y            14.5721492334        0.3530153518      -11.4992669933  MEMB      215             0.0000000000
     26718       215  PMPE      C36            14.5452714612       -0.5447470956       -9.4634468222  MEMB      215             0.0000000000
     26719       215  PMPE      H6X            15.5818398337       -0.9422852547       -9.5059933673  MEMB      215             0.0000000000
     26720       215  PMPE      H6Y            13.8779179108       -1.2209170812       -8.8874661200  MEMB      215             0.0000000000
     26721       215  PMPE      C37            14.6591771283        0.8331073884       -8.6623208778  MEMB      215             0.0000000000
     26722       215  PMPE      H7X            13.6579624669        1.3036983333       -8.7644747795  MEMB      215             0.0000000000
     26723       215  PMPE      H7Y            15.4240050837        1.4904869889       -9.1283800143  MEMB      215             0.0000000000
     26724       215  PMPE      C38            14.9703732910        0.7465132140       -7.1897158773  MEMB      215             0.0000000000
     26725       215  PMPE      H8X            14.2555792543        0.0010593621       -6.7802175069  MEMB      215             0.0000000000
     26726       215  PMPE      H8Y            14.7837689948        1.7201220227       -6.6881331249  MEMB      215             0.0000000000
     26727       215  PMPE      C39            16.3332744134        0.3251023305       -6.7945183529  MEMB      215             0.0000000000
     26728       215  PMPE      H9X            17.0577526995        1.1029403028       -7.1176597102  MEMB      215             0.0000000000
     26729       215  PMPE      H9Y            16.5870341827       -0.5949167092       -7.3632814583  MEMB      215             0.0000000000
     26730       215  PMPE      C310           16.3060753432        0.0474009560       -5.2059314951  MEMB      215             0.0000000000
     26731       215  PMPE      H10X           17.1152984507       -0.6701695938       -4.9518227009  MEMB      215             0.0000000000
     26732       215  PMPE      H10Y           15.4964248883       -0.7084232068       -5.1192303241  MEMB      215             0.0000000000
     26733       215  PMPE      C311           16.0283492602        1.1912587253       -4.2524705090  MEMB      215             0.0000000000
     26734       215  PMPE      H11X           15.8659620387        0.8868890104       -3.1963877306  MEMB      215             0.0000000000
     26735       215  PMPE      H11Y           15.1105404190        1.7093313037       -4.6039645861  MEMB      215             0.0000000000
     26736       215  PMPE      C312           17.1134258765        2.3018746466       -4.2234630401  MEMB      215             0.0000000000
     26737       215  PMPE      H12X           16.7235513102        3.2627560272       -3.8246825129  MEMB      215             0.0000000000
     26738       215  PMPE      H12Y           17.4702665928        2.4347549814       -5.2671722530  MEMB      215             0.0000000000
     26739       215  PMPE      C313           18.4814729236        1.9766044231       -3.4334594963  MEMB      215             0.0000000000
     26740       215  PMPE      H13X           19.3854593266        1.9509134221       -4.0788043807  MEMB      215             0.0000000000
     26741       215  PMPE      H13Y           18.3737208246        0.9308864475       -3.0740375050  MEMB      215             0.0000000000
     26742       215  PMPE      C314           18.7878380393        2.9254348922       -2.1828183729  MEMB      215             0.0000000000
     26743       215  PMPE      H14X           17.8251881101        3.0044397266       -1.6338349591  MEMB      215             0.0000000000
     26744       215  PMPE      H14Y           19.1591317537        3.8971026227       -2.5731068817  MEMB      215             0.0000000000
     26745       215  PMPE      C315           19.8523603720        2.3913473620       -1.1731837353  MEMB      215             0.0000000000
     26746       215  PMPE      H15X           19.4033388518        1.6784054952       -0.4490195965  MEMB      215             0.0000000000
     26747       215  PMPE      H15Y           20.1046422698        3.2589097618       -0.5266457628  MEMB      215             0.0000000000
     26748       215  PMPE      C316           21.0492501149        1.8443007711       -1.8888223659  MEMB      215             0.0000000000
     26749       215  PMPE      H16X           21.4057043487        2.5407761478       -2.6776071047  MEMB      215             0.0000000000
     26750       215  PMPE      H16Y           20.8718139687        0.8508796959       -2.3535279159  MEMB      215             0.0000000000
     26751       215  PMPE      H16Z           21.7526393609        1.6581211290       -1.0492361742  MEMB      215             0.0000000000
     26752       216  PMPE      N              -9.6802206245       10.7393852509      -20.7383666975  MEMB      216             0.0000000000
     26753       216  PMPE      HN1           -10.1809544160       10.0913418404      -21.3793853392  MEMB      216             0.0000000000
     26754       216  PMPE      HN2            -8.8305115274       10.9966002290      -21.2800630478  MEMB      216             0.0000000000
     26755       216  PMPE      HN3            -9.4623067167       10.1912989872      -19.8817947823  MEMB      216             0.0000000000
     26756       216  PMPE      C12           -10.6011492819       11.8768707441      -20.4652807991  MEMB      216             0.0000000000
     26757       216  PMPE      H12A          -11.4581698402       11.2987515476      -20.0583223968  MEMB      216             0.0000000000
     26758       216  PMPE      H12B          -10.9061123669       12.2625207551      -21.4615702008  MEMB      216             0.0000000000
     26759       216  PMPE      C11            -9.8579212737       12.7721012255      -19.5025220975  MEMB      216             0.0000000000
     26760       216  PMPE      H11A           -8.8710268914       12.9855298203      -19.9659967632  MEMB      216             0.0000000000
     26761       216  PMPE      H11B           -9.6758632372       12.2605648532      -18.5332407384  MEMB      216             0.0000000000
     26762       216  PMPE      P              -9.8959572129       15.0498692343      -18.3013681518  MEMB      216             0.0000000000
     26763       216  PMPE      O13           -10.1981344719       16.4208516287      -18.8207560130  MEMB      216             0.0000000000
     26764       216  PMPE      O14            -8.4556720713       14.7984642151      -18.1244522309  MEMB      216             0.0000000000
     26765       216  PMPE      O11           -10.6445736752       14.9979181674      -16.8453028883  MEMB      216             0.0000000000
     26766       216  PMPE      O12           -10.6197834693       13.9399539305      -19.2019511209  MEMB      216             0.0000000000
     26767       216  PMPE      C1            -12.0808973183       15.0260583471      -16.9599408564  MEMB      216             0.0000000000
     26768       216  PMPE      HA            -12.4852338223       14.2525068113      -17.6472914865  MEMB      216             0.0000000000
     26769       216  PMPE      HB            -12.4327622695       16.0426218020      -17.2376293838  MEMB      216             0.0000000000
     26770       216  PMPE      C2            -12.7321542548       14.7107286854      -15.5887283724  MEMB      216             0.0000000000
     26771       216  PMPE      HS            -13.8222102614       14.5778313896      -15.7573617675  MEMB      216             0.0000000000
     26772       216  PMPE      O21           -12.4720678935       15.8804017997      -14.7606619714  MEMB      216             0.0000000000
     26773       216  PMPE      C21           -13.1501931678       16.0923493285      -13.7103555748  MEMB      216             0.0000000000
     26774       216  PMPE      O22           -14.1853333935       15.5363455671      -13.4416724549  MEMB      216             0.0000000000
     26775       216  PMPE      C22           -12.4681821976       17.1364353498      -12.8026547722  MEMB      216             0.0000000000
     26776       216  PMPE      H2R           -13.1863098073       17.2858337615      -11.9682129044  MEMB      216             0.0000000000
     26777       216  PMPE      H2S           -12.3769406847       18.0514964956      -13.4260800085  MEMB      216             0.0000000000
     26778       216  PMPE      C3            -12.2337702371       13.3781275573      -14.9783978506  MEMB      216             0.0000000000
     26779       216  PMPE      HX            -12.2799942410       12.6010918013      -15.7711146904  MEMB      216             0.0000000000
     26780       216  PMPE      HY            -12.9262111921       13.0269395704      -14.1837198280  MEMB      216             0.0000000000
     26781       216  PMPE      O31           -10.8530033534       13.6092742422      -14.5317351482  MEMB      216             0.0000000000
     26782       216  PMPE      C31            -9.9474246907       12.6603828340      -14.7139852668  MEMB      216             0.0000000000
     26783       216  PMPE      O32           -10.1847688818       11.5391423615      -15.1359507927  MEMB      216             0.0000000000
     26784       216  PMPE      C32            -8.5653647880       13.1020645826      -14.1926507187  MEMB      216             0.0000000000
     26785       216  PMPE      H2X            -8.4463457461       14.1959409084      -14.0390596683  MEMB      216             0.0000000000
     26786       216  PMPE      H2Y            -7.7507606348       12.6993622624      -14.8318470542  MEMB      216             0.0000000000
     26787       216  PMPE      C23           -11.0674456614       16.6891181052      -12.2118305276  MEMB      216             0.0000000000
     26788       216  PMPE      H3R           -10.3169162106       16.4417856032      -12.9927615718  MEMB      216             0.0000000000
     26789       216  PMPE      H3S           -11.0981320001       15.6992532259      -11.7082963579  MEMB      216             0.0000000000
     26790       216  PMPE      C24           -10.4971813493       17.7500115460      -11.1262232756  MEMB      216             0.0000000000
     26791       216  PMPE      H4R           -11.3411200816       18.3666821536      -10.7496527827  MEMB      216             0.0000000000
     26792       216  PMPE      H4S            -9.8395014913       18.4308010665      -11.7078622900  MEMB      216             0.0000000000
     26793       216  PMPE      C25            -9.7375569453       17.0575086141      -10.0319902491  MEMB      216             0.0000000000
     26794       216  PMPE      H5R           -10.0386203028       15.9880786068      -10.0308327548  MEMB      216             0.0000000000
     26795       216  PMPE      H5S            -9.9793046359       17.4454027130       -9.0193609117  MEMB      216             0.0000000000
     26796       216  PMPE      C26            -8.2058526210       17.0643818485      -10.2392311190  MEMB      216             0.0000000000
     26797       216  PMPE      H6R            -7.7957171898       18.0555248770      -10.5286189214  MEMB      216             0.0000000000
     26798       216  PMPE      H6S            -7.8881444826       16.3769817466      -11.0521661883  MEMB      216             0.0000000000
     26799       216  PMPE      C27            -7.5448952728       16.5700518687       -8.9246741991  MEMB      216             0.0000000000
     26800       216  PMPE      H7R            -8.0264422963       17.0157393462       -8.0281271899  MEMB      216             0.0000000000
     26801       216  PMPE      H7S            -6.5171100113       16.9813544283       -8.8308175833  MEMB      216             0.0000000000
     26802       216  PMPE      C28            -7.6951180618       15.0641552496       -8.6609319440  MEMB      216             0.0000000000
     26803       216  PMPE      H8R            -7.3013337954       14.4973816211       -9.5315768306  MEMB      216             0.0000000000
     26804       216  PMPE      H8S            -8.7596963549       14.7493772909       -8.6172407346  MEMB      216             0.0000000000
     26805       216  PMPE      C29            -7.0425314903       14.6228857006       -7.3588488592  MEMB      216             0.0000000000
     26806       216  PMPE      H9R            -5.9532731527       14.4447176914       -7.2319886357  MEMB      216             0.0000000000
     26807       216  PMPE      C217           -7.8185008072       13.6787326469       -6.4449504522  MEMB      216             0.0000000000
     26808       216  PMPE      H17R           -7.1101805745       13.0254925675       -5.9505327101  MEMB      216             0.0000000000
     26809       216  PMPE      H17S           -8.8591672280       13.4284101488       -6.6099993741  MEMB      216             0.0000000000
     26810       216  PMPE      C210           -7.5890657241       15.0860466836       -6.0125927598  MEMB      216             0.0000000000
     26811       216  PMPE      H10R           -6.7917386785       15.2450416492       -5.2554190331  MEMB      216             0.0000000000
     26812       216  PMPE      C211           -8.8340311579       15.9804387466       -5.7285860654  MEMB      216             0.0000000000
     26813       216  PMPE      H11R           -9.7072545033       15.6140451630       -6.3095831434  MEMB      216             0.0000000000
     26814       216  PMPE      H11S           -8.6159696756       17.0190265308       -6.0573800182  MEMB      216             0.0000000000
     26815       216  PMPE      C212           -9.2722155632       15.9170357285       -4.2798397689  MEMB      216             0.0000000000
     26816       216  PMPE      H12R           -9.7596757541       16.8882635691       -4.0487109741  MEMB      216             0.0000000000
     26817       216  PMPE      H12S           -8.3034489646       15.8526489054       -3.7397779230  MEMB      216             0.0000000000
     26818       216  PMPE      C213          -10.0531429089       14.7307075540       -3.7564124513  MEMB      216             0.0000000000
     26819       216  PMPE      H13R           -9.2899776148       13.9338228005       -3.6265100136  MEMB      216             0.0000000000
     26820       216  PMPE      H13S          -10.6644939197       14.3297534911       -4.5929567777  MEMB      216             0.0000000000
     26821       216  PMPE      C214          -10.9543979679       14.7947346857       -2.5432222098  MEMB      216             0.0000000000
     26822       216  PMPE      H14R          -11.2114689720       13.7307345294       -2.3531178297  MEMB      216             0.0000000000
     26823       216  PMPE      H14S          -11.9219171521       15.3150360631       -2.7090953386  MEMB      216             0.0000000000
     26824       216  PMPE      C215          -10.2873184619       15.2449050088       -1.2471905421  MEMB      216             0.0000000000
     26825       216  PMPE      H15R          -10.0152111070       16.3212184735       -1.2899386610  MEMB      216             0.0000000000
     26826       216  PMPE      H15S           -9.3618509495       14.6334672409       -1.1841435862  MEMB      216             0.0000000000
     26827       216  PMPE      C216          -11.0787669034       15.0931904092        0.0501433298  MEMB      216             0.0000000000
     26828       216  PMPE      H16R          -11.8614924729       15.8814948333        0.0347155926  MEMB      216             0.0000000000
     26829       216  PMPE      H16S          -11.5217401045       14.0828184540        0.1814606792  MEMB      216             0.0000000000
     26830       216  PMPE      H16T          -10.4680979242       15.3916514833        0.9289644800  MEMB      216             0.0000000000
     26831       216  PMPE      C33            -8.3439600871       12.4947071086      -12.7323215580  MEMB      216             0.0000000000
     26832       216  PMPE      H3X            -7.4983520541       12.9594639294      -12.1816227153  MEMB      216             0.0000000000
     26833       216  PMPE      H3Y            -8.0386428017       11.4437325242      -12.9235135238  MEMB      216             0.0000000000
     26834       216  PMPE      C34            -9.5239079370       12.5518708132      -11.7117151630  MEMB      216             0.0000000000
     26835       216  PMPE      H4X           -10.4461567770       12.1390501252      -12.1736215221  MEMB      216             0.0000000000
     26836       216  PMPE      H4Y            -9.8585253009       13.6051808692      -11.5981800483  MEMB      216             0.0000000000
     26837       216  PMPE      C35            -9.1770958209       11.9603042099      -10.3850455488  MEMB      216             0.0000000000
     26838       216  PMPE      H5X            -8.1702301476       12.3328478439      -10.0991195470  MEMB      216             0.0000000000
     26839       216  PMPE      H5Y            -9.1940548882       10.8557768021      -10.5035904611  MEMB      216             0.0000000000
     26840       216  PMPE      C36           -10.0631502649       12.2841754978       -9.1756921064  MEMB      216             0.0000000000
     26841       216  PMPE      H6X           -10.1956816173       13.3865802923       -9.2139068294  MEMB      216             0.0000000000
     26842       216  PMPE      H6Y            -9.4090254984       11.9734416705       -8.3331450185  MEMB      216             0.0000000000
     26843       216  PMPE      C37           -11.4498438663       11.7615462223       -9.0562473289  MEMB      216             0.0000000000
     26844       216  PMPE      H7X           -11.7364436841       11.8103347275       -7.9839592792  MEMB      216             0.0000000000
     26845       216  PMPE      H7Y           -11.5231281322       10.7140760098       -9.4192299582  MEMB      216             0.0000000000
     26846       216  PMPE      C38           -12.5995589282       12.5356907513       -9.6668244016  MEMB      216             0.0000000000
     26847       216  PMPE      H8X           -13.5409454727       12.0322322649       -9.3591843681  MEMB      216             0.0000000000
     26848       216  PMPE      H8Y           -12.4980839699       12.4290225722      -10.7680261598  MEMB      216             0.0000000000
     26849       216  PMPE      C39           -12.7826041053       14.0824895892       -9.3684650683  MEMB      216             0.0000000000
     26850       216  PMPE      H9X           -13.3966114903       14.5256494101      -10.1814385463  MEMB      216             0.0000000000
     26851       216  PMPE      H9Y           -11.7682567791       14.5304051314       -9.4376899103  MEMB      216             0.0000000000
     26852       216  PMPE      C310          -13.4428799376       14.4557693356       -8.0941193314  MEMB      216             0.0000000000
     26853       216  PMPE      H10X          -13.1361936735       13.8461749869       -7.2173867618  MEMB      216             0.0000000000
     26854       216  PMPE      H10Y          -14.5475836216       14.3384482477       -8.0804453612  MEMB      216             0.0000000000
     26855       216  PMPE      C311          -13.1374438372       16.0091589699       -7.6820607241  MEMB      216             0.0000000000
     26856       216  PMPE      H11X          -13.8734855451       16.5630210422       -8.3031887990  MEMB      216             0.0000000000
     26857       216  PMPE      H11Y          -12.1571053140       16.2657817837       -8.1374743868  MEMB      216             0.0000000000
     26858       216  PMPE      C312          -13.1655324767       16.4519541965       -6.2599151697  MEMB      216             0.0000000000
     26859       216  PMPE      H12X          -12.4854506860       15.8701456018       -5.6016531657  MEMB      216             0.0000000000
     26860       216  PMPE      H12Y          -14.1811376962       16.3275829342       -5.8270195172  MEMB      216             0.0000000000
     26861       216  PMPE      C313          -12.8758356411       17.9438276023       -6.2904549896  MEMB      216             0.0000000000
     26862       216  PMPE      H13X          -13.5455952485       18.3635467639       -7.0712101966  MEMB      216             0.0000000000
     26863       216  PMPE      H13Y          -11.8273061885       18.2073025079       -6.5463606816  MEMB      216             0.0000000000
     26864       216  PMPE      C314          -13.3766887652       18.7344499937       -5.0175563847  MEMB      216             0.0000000000
     26865       216  PMPE      H14X          -14.4739855139       18.6289992767       -4.8792058701  MEMB      216             0.0000000000
     26866       216  PMPE      H14Y          -13.2281816502       19.8353482373       -5.0345772543  MEMB      216             0.0000000000
     26867       216  PMPE      C315          -12.5545615027       18.3644604913       -3.7137800299  MEMB      216             0.0000000000
     26868       216  PMPE      H15X          -11.4807661580       18.4732671254       -3.9773058476  MEMB      216             0.0000000000
     26869       216  PMPE      H15Y          -12.7095482262       17.3144734007       -3.3854093485  MEMB      216             0.0000000000
     26870       216  PMPE      C316          -12.8927021095       19.2098268369       -2.4587152895  MEMB      216             0.0000000000
     26871       216  PMPE      H16X          -12.1624650854       18.8454156662       -1.7048720625  MEMB      216             0.0000000000
     26872       216  PMPE      H16Y          -13.9612008200       19.0011779443       -2.2371358478  MEMB      216             0.0000000000
     26873       216  PMPE      H16Z          -12.7941209473       20.3139808771       -2.5325161580  MEMB      216             0.0000000000
     26874       217  OYPE      N               7.6177282572       16.2277880905      -20.9159149695  MEMB      217             0.0000000000
     26875       217  OYPE      HN1             8.6525752655       16.1489159250      -20.9827812557  MEMB      217             0.0000000000
     26876       217  OYPE      HN2             7.1656701632       16.1628482345      -21.8502737510  MEMB      217             0.0000000000
     26877       217  OYPE      HN3             7.2197485653       17.0495128564      -20.4179385943  MEMB      217             0.0000000000
     26878       217  OYPE      C12             7.2264861009       15.0524520292      -20.0720801943  MEMB      217             0.0000000000
     26879       217  OYPE      H12A            7.6221858726       15.2327360765      -19.0497102542  MEMB      217             0.0000000000
     26880       217  OYPE      H12B            7.7293472206       14.1745922865      -20.5312250452  MEMB      217             0.0000000000
     26881       217  OYPE      C11             5.7757213604       14.7814596386      -20.0858319362  MEMB      217             0.0000000000
     26882       217  OYPE      H11A            5.5465638467       13.8616739774      -19.5063473718  MEMB      217             0.0000000000
     26883       217  OYPE      H11B            5.4360671315       14.5501938051      -21.1180489047  MEMB      217             0.0000000000
     26884       217  OYPE      P               4.6768370891       15.9516528453      -18.1571156994  MEMB      217             0.0000000000
     26885       217  OYPE      O13             4.1793956848       17.2362906877      -17.7634766271  MEMB      217             0.0000000000
     26886       217  OYPE      O14             5.6183732379       15.2624251292      -17.2003088925  MEMB      217             0.0000000000
     26887       217  OYPE      O11             3.4891486368       14.9525102213      -18.1813181381  MEMB      217             0.0000000000
     26888       217  OYPE      O12             5.0959160950       15.9606181514      -19.6239535748  MEMB      217             0.0000000000
     26889       217  OYPE      C1              2.9315909630       14.2419912229      -16.9779326375  MEMB      217             0.0000000000
     26890       217  OYPE      HA              3.8350867786       13.8179551744      -16.4898650938  MEMB      217             0.0000000000
     26891       217  OYPE      HB              2.2044113863       13.5457819632      -17.4478513316  MEMB      217             0.0000000000
     26892       217  OYPE      C2              2.1127349219       15.1933302147      -16.1064596240  MEMB      217             0.0000000000
     26893       217  OYPE      HS              1.6591912262       16.0202846273      -16.6936268983  MEMB      217             0.0000000000
     26894       217  OYPE      O21             2.9969569398       15.8315701681      -15.2077884178  MEMB      217             0.0000000000
     26895       217  OYPE      C21             2.6381527409       16.9315108263      -14.4637940999  MEMB      217             0.0000000000
     26896       217  OYPE      O22             1.5107086713       17.3613672913      -14.2936989519  MEMB      217             0.0000000000
     26897       217  OYPE      C22             3.9645645653       17.5779678245      -13.9242835612  MEMB      217             0.0000000000
     26898       217  OYPE      H2R             4.3441441840       18.2042400930      -14.7597611820  MEMB      217             0.0000000000
     26899       217  OYPE      H2S             4.7199416835       16.8099167261      -13.6525779279  MEMB      217             0.0000000000
     26900       217  OYPE      C3              1.0774075902       14.4697090285      -15.3164254670  MEMB      217             0.0000000000
     26901       217  OYPE      HX              0.4236440929       13.8896982358      -16.0023563289  MEMB      217             0.0000000000
     26902       217  OYPE      HY              0.4423884010       15.0903267932      -14.6486640869  MEMB      217             0.0000000000
     26903       217  OYPE      O31             1.5766678069       13.4237501300      -14.5050688286  MEMB      217             0.0000000000
     26904       217  OYPE      C31             1.8989217265       13.7394953484      -13.2377389310  MEMB      217             0.0000000000
     26905       217  OYPE      O32             1.5243945088       14.6974646076      -12.6064479875  MEMB      217             0.0000000000
     26906       217  OYPE      C32             2.8242825651       12.6569896539      -12.6155968573  MEMB      217             0.0000000000
     26907       217  OYPE      H2X             2.2647269201       11.7625656446      -12.2674244438  MEMB      217             0.0000000000
     26908       217  OYPE      H2Y             3.5365065441       12.2804501786      -13.3806303205  MEMB      217             0.0000000000
     26909       217  OYPE      C23             3.8221142941       18.5727651459      -12.7447890920  MEMB      217             0.0000000000
     26910       217  OYPE      H3R             3.1143110860       19.3851264662      -13.0157220665  MEMB      217             0.0000000000
     26911       217  OYPE      H3S             4.7817740022       19.0662363773      -12.4804781371  MEMB      217             0.0000000000
     26912       217  OYPE      C24             3.3163025761       17.7940378478      -11.4794140691  MEMB      217             0.0000000000
     26913       217  OYPE      H4R             3.9359213223       16.8718776706      -11.4756330909  MEMB      217             0.0000000000
     26914       217  OYPE      H4S             2.2996096228       17.4599564913      -11.7778198103  MEMB      217             0.0000000000
     26915       217  OYPE      C25             3.3389643676       18.6224915266      -10.1672919715  MEMB      217             0.0000000000
     26916       217  OYPE      H5R             2.9986555051       19.6762100565      -10.2577824131  MEMB      217             0.0000000000
     26917       217  OYPE      H5S             4.3770701524       18.6426457395       -9.7720060520  MEMB      217             0.0000000000
     26918       217  OYPE      C26             2.5263865631       18.0210723383       -9.0291514390  MEMB      217             0.0000000000
     26919       217  OYPE      H6R             1.4778590298       18.3184155858       -9.2447853819  MEMB      217             0.0000000000
     26920       217  OYPE      H6S             2.9296594966       18.3838536772       -8.0595726602  MEMB      217             0.0000000000
     26921       217  OYPE      C27             2.6727770952       16.5624949489       -8.8711121919  MEMB      217             0.0000000000
     26922       217  OYPE      H7R             3.7632039859       16.3952299854       -9.0026912373  MEMB      217             0.0000000000
     26923       217  OYPE      H7S             2.1481869002       15.9977457969       -9.6712276057  MEMB      217             0.0000000000
     26924       217  OYPE      C28             2.2470069781       16.0854848799       -7.4723715626  MEMB      217             0.0000000000
     26925       217  OYPE      H8R             2.9182020712       16.5691827671       -6.7308501300  MEMB      217             0.0000000000
     26926       217  OYPE      H8S             2.3971288778       14.9935040918       -7.3332226744  MEMB      217             0.0000000000
     26927       217  OYPE      C29             0.7756882312       16.4585524273       -7.1588420450  MEMB      217             0.0000000000
     26928       217  OYPE      H9R             0.5596478410       17.5311955445       -7.0458702655  MEMB      217             0.0000000000
     26929       217  OYPE      C210           -0.2535941393       15.6173061991       -6.9970831080  MEMB      217             0.0000000000
     26930       217  OYPE      H10R           -1.2460477316       15.9876347350       -6.7006151148  MEMB      217             0.0000000000
     26931       217  OYPE      C211           -0.2399682865       14.1237836014       -7.0664825571  MEMB      217             0.0000000000
     26932       217  OYPE      H11R            0.6215227048       13.7475873702       -7.6586234092  MEMB      217             0.0000000000
     26933       217  OYPE      H11S           -1.1558348405       13.7610275266       -7.5802115912  MEMB      217             0.0000000000
     26934       217  OYPE      C212           -0.0895280296       13.4141375623       -5.7295177488  MEMB      217             0.0000000000
     26935       217  OYPE      H12R           -0.1409957371       12.3141046590       -5.8764862549  MEMB      217             0.0000000000
     26936       217  OYPE      H12S           -0.8985889570       13.7486295025       -5.0455181225  MEMB      217             0.0000000000
     26937       217  OYPE      C213            1.2669245059       13.7644770726       -5.0033001770  MEMB      217             0.0000000000
     26938       217  OYPE      H13R            0.9885928882       13.5620603153       -3.9469482734  MEMB      217             0.0000000000
     26939       217  OYPE      H13S            1.5784400715       14.8133785302       -5.1958751968  MEMB      217             0.0000000000
     26940       217  OYPE      C214            2.4453325695       12.7824893393       -5.3083510212  MEMB      217             0.0000000000
     26941       217  OYPE      H14R            2.8095966375       12.9172493187       -6.3492505491  MEMB      217             0.0000000000
     26942       217  OYPE      H14S            2.0397280708       11.7483001739       -5.3244397461  MEMB      217             0.0000000000
     26943       217  OYPE      C215            3.6234489809       12.8955692000       -4.3841741253  MEMB      217             0.0000000000
     26944       217  OYPE      H15R            4.1762096530       13.8579929102       -4.4343457277  MEMB      217             0.0000000000
     26945       217  OYPE      H15S            4.4704601368       12.2376363779       -4.6740326930  MEMB      217             0.0000000000
     26946       217  OYPE      C216            3.1913955718       12.6478525306       -2.9206893239  MEMB      217             0.0000000000
     26947       217  OYPE      H16R            3.9702922670       12.0974693704       -2.3508476234  MEMB      217             0.0000000000
     26948       217  OYPE      H16S            2.2607526753       12.0454738023       -2.8474422146  MEMB      217             0.0000000000
     26949       217  OYPE      H16T            2.8789541676       13.5775547415       -2.3988126868  MEMB      217             0.0000000000
     26950       217  OYPE      C33             3.5057594470       13.4163739906      -11.4234355433  MEMB      217             0.0000000000
     26951       217  OYPE      H3X             2.7921118325       13.5017701709      -10.5762430104  MEMB      217             0.0000000000
     26952       217  OYPE      H3Y             3.9869967245       14.3287267831      -11.8361631085  MEMB      217             0.0000000000
     26953       217  OYPE      C34             4.6607761965       12.5623998283      -10.7346698547  MEMB      217             0.0000000000
     26954       217  OYPE      H4X             4.1875385191       11.5930955506      -10.4685567225  MEMB      217             0.0000000000
     26955       217  OYPE      H4Y             5.4962026670       12.4315759502      -11.4552726277  MEMB      217             0.0000000000
     26956       217  OYPE      C35             5.0917129926       13.2505573285       -9.4650660880  MEMB      217             0.0000000000
     26957       217  OYPE      H5X             4.2026913738       13.4854618761       -8.8415432394  MEMB      217             0.0000000000
     26958       217  OYPE      H5Y             5.5990887218       14.2180118469       -9.6673598669  MEMB      217             0.0000000000
     26959       217  OYPE      C36             6.0836928513       12.4214473662       -8.6357694157  MEMB      217             0.0000000000
     26960       217  OYPE      H6X             5.5287700221       11.5962960343       -8.1402826566  MEMB      217             0.0000000000
     26961       217  OYPE      H6Y             6.8892166690       12.1087385812       -9.3340993445  MEMB      217             0.0000000000
     26962       217  OYPE      C37             6.9012906787       13.2031892034       -7.5285236129  MEMB      217             0.0000000000
     26963       217  OYPE      H7X             6.2480434830       13.7863714201       -6.8447939680  MEMB      217             0.0000000000
     26964       217  OYPE      H7Y             7.4139682503       12.4052937666       -6.9498655137  MEMB      217             0.0000000000
     26965       217  OYPE      C38             7.8723894697       14.1934121986       -8.1633341967  MEMB      217             0.0000000000
     26966       217  OYPE      H8X             8.5901318345       13.5417452712       -8.7060103764  MEMB      217             0.0000000000
     26967       217  OYPE      H8Y             7.3704624448       14.9187312457       -8.8388360148  MEMB      217             0.0000000000
     26968       217  OYPE      C39             8.6681942185       15.0404795024       -7.1608746688  MEMB      217             0.0000000000
     26969       217  OYPE      H9X             9.4597065934       14.5007906773       -6.6202784523  MEMB      217             0.0000000000
     26970       217  OYPE      C310            8.5832914533       16.3305289312       -6.9606886225  MEMB      217             0.0000000000
     26971       217  OYPE      H10X            9.2169895839       16.7945951001       -6.1905792876  MEMB      217             0.0000000000
     26972       217  OYPE      C311            7.7319006964       17.3185011739       -7.6222167375  MEMB      217             0.0000000000
     26973       217  OYPE      H11X            8.3642229387       18.1829851318       -7.9174408774  MEMB      217             0.0000000000
     26974       217  OYPE      H11Y            7.2662326566       17.0067272935       -8.5815244136  MEMB      217             0.0000000000
     26975       217  OYPE      C312            6.5238245896       17.7986288179       -6.7825832682  MEMB      217             0.0000000000
     26976       217  OYPE      H12X            5.8437372326       16.9242832188       -6.6970138025  MEMB      217             0.0000000000
     26977       217  OYPE      H12Y            6.0724962722       18.7169830659       -7.2153058474  MEMB      217             0.0000000000
     26978       217  OYPE      C313            6.9370988385       18.0941400741       -5.2865770697  MEMB      217             0.0000000000
     26979       217  OYPE      H13X            7.3125207547       17.1487241687       -4.8398467206  MEMB      217             0.0000000000
     26980       217  OYPE      H13Y            7.8969066737       18.6532776660       -5.3079026949  MEMB      217             0.0000000000
     26981       217  OYPE      C314            6.0440654070       18.9835218203       -4.4650388959  MEMB      217             0.0000000000
     26982       217  OYPE      H14X            6.0742421277       19.9943074763       -4.9251722372  MEMB      217             0.0000000000
     26983       217  OYPE      H14Y            6.3526123401       18.9383684508       -3.3986995454  MEMB      217             0.0000000000
     26984       217  OYPE      C315            4.5267350013       18.5763641787       -4.4474479399  MEMB      217             0.0000000000
     26985       217  OYPE      H15X            4.4445566148       17.4717659083       -4.3612488710  MEMB      217             0.0000000000
     26986       217  OYPE      H15Y            3.9819032132       18.6920082599       -5.4087527657  MEMB      217             0.0000000000
     26987       217  OYPE      C316            3.6695544256       19.1808253272       -3.3871167583  MEMB      217             0.0000000000
     26988       217  OYPE      H16X            3.8872134565       18.9270301719       -2.3276195827  MEMB      217             0.0000000000
     26989       217  OYPE      H16Y            2.6323925366       18.8019931869       -3.5100086230  MEMB      217             0.0000000000
     26990       217  OYPE      C317            3.4958901074       20.7210634565       -3.4758056895  MEMB      217             0.0000000000
     26991       217  OYPE      H17X            2.4119923097       20.9540506904       -3.4036704859  MEMB      217             0.0000000000
     26992       217  OYPE      H17Y            3.7403717602       21.0794722388       -4.4985919618  MEMB      217             0.0000000000
     26993       217  OYPE      C318            4.2881519599       21.5182102354       -2.4682037578  MEMB      217             0.0000000000
     26994       217  OYPE      H18X            4.0330021160       22.5989825116       -2.5021313102  MEMB      217             0.0000000000
     26995       217  OYPE      H18Y            4.1507832925       21.2582592465       -1.3968126739  MEMB      217             0.0000000000
     26996       217  OYPE      H18Z            5.3366251736       21.4968709905       -2.8350397038  MEMB      217             0.0000000000
     26997       218  PMPE      N              11.6155990099      -13.0418068839      -19.7434611971  MEMB      218             0.0000000000
     26998       218  PMPE      HN1            11.5599798647      -12.0666531515      -20.1006470078  MEMB      218             0.0000000000
     26999       218  PMPE      HN2            12.5891416605      -13.3729487879      -19.5880272004  MEMB      218             0.0000000000
     27000       218  PMPE      HN3            11.2406928583      -13.6401685364      -20.5070112985  MEMB      218             0.0000000000
     27001       218  PMPE      C12            10.7451943803      -13.1751036496      -18.4974162525  MEMB      218             0.0000000000
     27002       218  PMPE      H12A            9.8068240503      -12.6290947765      -18.7333326487  MEMB      218             0.0000000000
     27003       218  PMPE      H12B           11.3175833278      -12.6106917945      -17.7305192541  MEMB      218             0.0000000000
     27004       218  PMPE      C11            10.4541758640      -14.6339823010      -18.0597475597  MEMB      218             0.0000000000
     27005       218  PMPE      H11A            9.9965519695      -14.6620004487      -17.0477612001  MEMB      218             0.0000000000
     27006       218  PMPE      H11B           11.4083194282      -15.1969680932      -17.9762121311  MEMB      218             0.0000000000
     27007       218  PMPE      P               8.0910926507      -15.2094912475      -19.2164483106  MEMB      218             0.0000000000
     27008       218  PMPE      O13             7.5231165527      -16.3874161673      -19.8688331456  MEMB      218             0.0000000000
     27009       218  PMPE      O14             7.8806885391      -13.8639665349      -19.8887478619  MEMB      218             0.0000000000
     27010       218  PMPE      O11             7.4528139925      -15.1787914932      -17.7980375594  MEMB      218             0.0000000000
     27011       218  PMPE      O12             9.6305813294      -15.4263873201      -18.9273081094  MEMB      218             0.0000000000
     27012       218  PMPE      C1              6.0969034374      -14.8800305967      -17.6199300617  MEMB      218             0.0000000000
     27013       218  PMPE      HA              5.5621999274      -15.8319267442      -17.4142431705  MEMB      218             0.0000000000
     27014       218  PMPE      HB              5.6984606979      -14.3584279351      -18.5163088717  MEMB      218             0.0000000000
     27015       218  PMPE      C2              5.7758121491      -13.9952850876      -16.4297154499  MEMB      218             0.0000000000
     27016       218  PMPE      HS              4.6771464710      -13.9082640261      -16.2894232120  MEMB      218             0.0000000000
     27017       218  PMPE      O21             6.4188202145      -12.7348197552      -16.6071878557  MEMB      218             0.0000000000
     27018       218  PMPE      C21             5.7847631084      -11.5798548160      -16.4785269336  MEMB      218             0.0000000000
     27019       218  PMPE      O22             4.5862644709      -11.4099096455      -16.4266464516  MEMB      218             0.0000000000
     27020       218  PMPE      C22             6.8438004329      -10.4880891482      -16.5154099797  MEMB      218             0.0000000000
     27021       218  PMPE      H2R             6.3104215314       -9.5142674985      -16.4766877412  MEMB      218             0.0000000000
     27022       218  PMPE      H2S             7.3463214462      -10.6575615053      -17.4916643607  MEMB      218             0.0000000000
     27023       218  PMPE      C3              6.2227138285      -14.6289654641      -15.1077367782  MEMB      218             0.0000000000
     27024       218  PMPE      HX              5.7575188192      -15.6378827304      -15.1070030636  MEMB      218             0.0000000000
     27025       218  PMPE      HY              5.7998106435      -14.0978207491      -14.2283281476  MEMB      218             0.0000000000
     27026       218  PMPE      O31             7.6682024855      -14.7408269175      -15.0145886537  MEMB      218             0.0000000000
     27027       218  PMPE      C31             8.2494425255      -15.8983029381      -14.7345222443  MEMB      218             0.0000000000
     27028       218  PMPE      O32             7.6134702356      -16.9592816322      -14.7913730655  MEMB      218             0.0000000000
     27029       218  PMPE      C32             9.7774021087      -15.8549108978      -14.4811467280  MEMB      218             0.0000000000
     27030       218  PMPE      H2X            10.3347749291      -15.9767658128      -15.4344610679  MEMB      218             0.0000000000
     27031       218  PMPE      H2Y             9.9534073909      -16.6300200336      -13.7049063395  MEMB      218             0.0000000000
     27032       218  PMPE      C23             7.8182054603      -10.6632024650      -15.3167307462  MEMB      218             0.0000000000
     27033       218  PMPE      H3R             8.4792168066       -9.7702567718      -15.3224599736  MEMB      218             0.0000000000
     27034       218  PMPE      H3S             8.4616528859      -11.5636161477      -15.4144632800  MEMB      218             0.0000000000
     27035       218  PMPE      C24             7.1682509266      -10.7394001320      -13.9362499960  MEMB      218             0.0000000000
     27036       218  PMPE      H4R             6.4571998815      -11.5899983338      -13.8640689883  MEMB      218             0.0000000000
     27037       218  PMPE      H4S             6.5339454568       -9.8461898050      -13.7514451363  MEMB      218             0.0000000000
     27038       218  PMPE      C25             8.1640314469      -10.7069222097      -12.7431864880  MEMB      218             0.0000000000
     27039       218  PMPE      H5R             8.9364471085       -9.9403606744      -12.9669683684  MEMB      218             0.0000000000
     27040       218  PMPE      H5S             8.7416870451      -11.6559367383      -12.7457133545  MEMB      218             0.0000000000
     27041       218  PMPE      C26             7.5256008919      -10.4450103056      -11.3645355568  MEMB      218             0.0000000000
     27042       218  PMPE      H6R             6.6660555452      -11.1404762960      -11.2557705122  MEMB      218             0.0000000000
     27043       218  PMPE      H6S             7.1456414735       -9.4010058795      -11.3619372974  MEMB      218             0.0000000000
     27044       218  PMPE      C27             8.5147729835      -10.6750001031      -10.2188067579  MEMB      218             0.0000000000
     27045       218  PMPE      H7R             9.3125743387       -9.9022140546      -10.1935941751  MEMB      218             0.0000000000
     27046       218  PMPE      H7S             8.8454144105      -11.6899600820      -10.5267897436  MEMB      218             0.0000000000
     27047       218  PMPE      C28             7.8901077690      -10.8249795494       -8.8632019775  MEMB      218             0.0000000000
     27048       218  PMPE      H8R             8.8366786573      -10.7601633851       -8.2851677956  MEMB      218             0.0000000000
     27049       218  PMPE      H8S             7.4071248890      -11.8120955982       -8.6999523733  MEMB      218             0.0000000000
     27050       218  PMPE      C29             6.7439915871       -9.8370306650       -8.5718617390  MEMB      218             0.0000000000
     27051       218  PMPE      H9R             5.8221776671       -9.9803221307       -9.1752252594  MEMB      218             0.0000000000
     27052       218  PMPE      C217            6.9672518230       -8.4483455600       -8.2735840900  MEMB      218             0.0000000000
     27053       218  PMPE      H17R            6.0754001448       -7.9450311874       -8.6259528907  MEMB      218             0.0000000000
     27054       218  PMPE      H17S            7.9944432065       -8.1073192174       -8.3118950571  MEMB      218             0.0000000000
     27055       218  PMPE      C210            6.6125731412       -9.4786670254       -7.1355267309  MEMB      218             0.0000000000
     27056       218  PMPE      H10R            5.6392543476       -9.3895658513       -6.6072910844  MEMB      218             0.0000000000
     27057       218  PMPE      C211            7.7074955947       -9.6732774281       -6.0437455655  MEMB      218             0.0000000000
     27058       218  PMPE      H11R            7.6921377758       -8.9319584047       -5.2163817969  MEMB      218             0.0000000000
     27059       218  PMPE      H11S            8.7004646299       -9.5716209751       -6.5315978293  MEMB      218             0.0000000000
     27060       218  PMPE      C212            7.6292680163      -11.0960571474       -5.4816811437  MEMB      218             0.0000000000
     27061       218  PMPE      H12R            8.4329064548      -11.3603295382       -4.7615105824  MEMB      218             0.0000000000
     27062       218  PMPE      H12S            7.6708422587      -11.7804499341       -6.3558661818  MEMB      218             0.0000000000
     27063       218  PMPE      C213            6.3223396075      -11.6368711539       -4.7600712458  MEMB      218             0.0000000000
     27064       218  PMPE      H13R            5.6206693123      -11.8394412093       -5.5972957449  MEMB      218             0.0000000000
     27065       218  PMPE      H13S            5.9780534058      -10.6887361884       -4.2944225378  MEMB      218             0.0000000000
     27066       218  PMPE      C214            6.6602084609      -12.9251246245       -3.9729061216  MEMB      218             0.0000000000
     27067       218  PMPE      H14R            7.4617249395      -12.5505304696       -3.3009150718  MEMB      218             0.0000000000
     27068       218  PMPE      H14S            7.1361390663      -13.6931783625       -4.6193616647  MEMB      218             0.0000000000
     27069       218  PMPE      C215            5.5154420879      -13.5343105901       -3.2093039690  MEMB      218             0.0000000000
     27070       218  PMPE      H15R            6.0244291024      -14.3185777748       -2.6091556573  MEMB      218             0.0000000000
     27071       218  PMPE      H15S            4.8401617476      -13.9871696848       -3.9664278628  MEMB      218             0.0000000000
     27072       218  PMPE      C216            4.7363960947      -12.5994257356       -2.3168835628  MEMB      218             0.0000000000
     27073       218  PMPE      H16R            5.3120927719      -12.3651146311       -1.3960170577  MEMB      218             0.0000000000
     27074       218  PMPE      H16S            4.5324029975      -11.6372499427       -2.8335313908  MEMB      218             0.0000000000
     27075       218  PMPE      H16T            3.8590444634      -13.1711013068       -1.9457204499  MEMB      218             0.0000000000
     27076       218  PMPE      C33            10.1316221904      -14.5431647734      -13.6856968158  MEMB      218             0.0000000000
     27077       218  PMPE      H3X             9.9923841616      -13.6966434401      -14.3916258531  MEMB      218             0.0000000000
     27078       218  PMPE      H3Y            11.2300641008      -14.5919479068      -13.5264283330  MEMB      218             0.0000000000
     27079       218  PMPE      C34             9.4295092083      -14.1201822194      -12.4029684545  MEMB      218             0.0000000000
     27080       218  PMPE      H4X             8.3599818388      -13.9330376209      -12.6383599497  MEMB      218             0.0000000000
     27081       218  PMPE      H4Y            10.0416431456      -13.2745516098      -12.0228084216  MEMB      218             0.0000000000
     27082       218  PMPE      C35             9.4022278904      -15.2127773109      -11.2798886043  MEMB      218             0.0000000000
     27083       218  PMPE      H5X            10.4016440140      -15.6803457532      -11.1500123258  MEMB      218             0.0000000000
     27084       218  PMPE      H5Y             8.6749648799      -16.0226123820      -11.5025464783  MEMB      218             0.0000000000
     27085       218  PMPE      C36             9.0451920993      -14.5485309665       -9.9403025065  MEMB      218             0.0000000000
     27086       218  PMPE      H6X             7.9629217698      -14.2984870190       -9.9181653978  MEMB      218             0.0000000000
     27087       218  PMPE      H6Y             9.5926547821      -13.5883584902       -9.8277201846  MEMB      218             0.0000000000
     27088       218  PMPE      C37             9.3091788926      -15.4258994636       -8.6772415566  MEMB      218             0.0000000000
     27089       218  PMPE      H7X            10.0881603221      -16.2052657896       -8.8190034056  MEMB      218             0.0000000000
     27090       218  PMPE      H7Y             8.3583194651      -15.9475136334       -8.4361892068  MEMB      218             0.0000000000
     27091       218  PMPE      C38             9.8969442696      -14.7018248706       -7.5048638053  MEMB      218             0.0000000000
     27092       218  PMPE      H8X            10.0476442395      -15.4282107036       -6.6778362816  MEMB      218             0.0000000000
     27093       218  PMPE      H8Y             9.1846304030      -13.9212464524       -7.1618947061  MEMB      218             0.0000000000
     27094       218  PMPE      C39            11.2164436174      -14.0323089597       -7.7100820545  MEMB      218             0.0000000000
     27095       218  PMPE      H9X            11.1282805034      -13.3553282840       -8.5865781236  MEMB      218             0.0000000000
     27096       218  PMPE      H9Y            12.0086677368      -14.7630820216       -7.9796605599  MEMB      218             0.0000000000
     27097       218  PMPE      C310           11.8784138444      -13.3209309837       -6.5413612523  MEMB      218             0.0000000000
     27098       218  PMPE      H10X           11.5822226459      -12.2501501475       -6.5368253750  MEMB      218             0.0000000000
     27099       218  PMPE      H10Y           12.9533906330      -13.4253286191       -6.8018361294  MEMB      218             0.0000000000
     27100       218  PMPE      C311           11.6645802002      -14.0010326554       -5.1768413667  MEMB      218             0.0000000000
     27101       218  PMPE      H11X           12.1258412814      -15.0048823084       -5.0591756659  MEMB      218             0.0000000000
     27102       218  PMPE      H11Y           10.5550068791      -14.0375640825       -5.1340221387  MEMB      218             0.0000000000
     27103       218  PMPE      C312           12.2650086191      -13.3301052106       -3.9303772793  MEMB      218             0.0000000000
     27104       218  PMPE      H12X           12.3882376151      -12.2955172123       -4.3160760442  MEMB      218             0.0000000000
     27105       218  PMPE      H12Y           13.1741321017      -13.8759060720       -3.5988402054  MEMB      218             0.0000000000
     27106       218  PMPE      C313           11.2906012170      -13.3086099650       -2.7649530288  MEMB      218             0.0000000000
     27107       218  PMPE      H13X           10.9070738184      -14.3463025482       -2.6628664626  MEMB      218             0.0000000000
     27108       218  PMPE      H13Y           10.3967965357      -12.7317499030       -3.0853696103  MEMB      218             0.0000000000
     27109       218  PMPE      C314           11.8791214227      -12.7871543487       -1.4421001261  MEMB      218             0.0000000000
     27110       218  PMPE      H14X           12.1704693805      -11.7603371843       -1.7504565541  MEMB      218             0.0000000000
     27111       218  PMPE      H14Y           12.8239061271      -13.3115618912       -1.1838370491  MEMB      218             0.0000000000
     27112       218  PMPE      C315           11.0437078577      -12.6581930773       -0.1778735479  MEMB      218             0.0000000000
     27113       218  PMPE      H15X           11.1022949412      -13.4796013730        0.5679000369  MEMB      218             0.0000000000
     27114       218  PMPE      H15Y            9.9655308572      -12.5389469028       -0.4179468401  MEMB      218             0.0000000000
     27115       218  PMPE      C316           11.3809067821      -11.4995537128        0.6815039220  MEMB      218             0.0000000000
     27116       218  PMPE      H16X           11.0743391706      -10.5886625369        0.1241757743  MEMB      218             0.0000000000
     27117       218  PMPE      H16Y           12.4577300430      -11.4828769698        0.9544398000  MEMB      218             0.0000000000
     27118       218  PMPE      H16Z           10.7836506587      -11.5313505062        1.6177691194  MEMB      218             0.0000000000
     27119       219  PMPG      C13            -9.2913117011      -15.6429467950      -21.2888934426  MEMB      219             0.0000000000
     27120       219  PMPG      H13A           -8.7726198390      -16.3422779277      -21.9789773658  MEMB      219             0.0000000000
     27121       219  PMPG      H13B          -10.2732806977      -16.0802111757      -21.0080773924  MEMB      219             0.0000000000
     27122       219  PMPG      OC3            -9.3866277116      -14.4610582231      -21.9721962333  MEMB      219             0.0000000000
     27123       219  PMPG      HO3            -8.4935423232      -14.1760402497      -22.1789890153  MEMB      219             0.0000000000
     27124       219  PMPG      C12            -8.4004355998      -15.2657478691      -20.0244213571  MEMB      219             0.0000000000
     27125       219  PMPG      H12A           -9.0908901219      -14.8947842268      -19.2316808138  MEMB      219             0.0000000000
     27126       219  PMPG      OC2            -7.4999341000      -14.2075246810      -20.3550293168  MEMB      219             0.0000000000
     27127       219  PMPG      HO2            -6.9214419996      -14.1541551690      -19.5630599835  MEMB      219             0.0000000000
     27128       219  PMPG      C11            -7.6282442826      -16.4701299489      -19.4568245329  MEMB      219             0.0000000000
     27129       219  PMPG      H11A           -7.1104060636      -16.9869776752      -20.2929064337  MEMB      219             0.0000000000
     27130       219  PMPG      H11B           -8.4033372993      -17.2288996303      -19.2163656807  MEMB      219             0.0000000000
     27131       219  PMPG      P              -6.1784806443      -17.2102324064      -17.4093574664  MEMB      219             0.0000000000
     27132       219  PMPG      O13            -4.7006701958      -17.1665990574      -17.3439005565  MEMB      219             0.0000000000
     27133       219  PMPG      O14            -6.8072438468      -18.5514694232      -17.7194591588  MEMB      219             0.0000000000
     27134       219  PMPG      O11            -6.8037699427      -16.7758065569      -15.9706151049  MEMB      219             0.0000000000
     27135       219  PMPG      O12            -6.6089910737      -16.1416850405      -18.4593028318  MEMB      219             0.0000000000
     27136       219  PMPG      C1             -7.1556600932      -15.3449480603      -15.9367235581  MEMB      219             0.0000000000
     27137       219  PMPG      HA             -7.9680993053      -15.0578977010      -16.6380545857  MEMB      219             0.0000000000
     27138       219  PMPG      HB             -6.2623030404      -14.7192339274      -16.1481852275  MEMB      219             0.0000000000
     27139       219  PMPG      C2             -7.6656238256      -15.0548777728      -14.5070277862  MEMB      219             0.0000000000
     27140       219  PMPG      HS             -7.8586429916      -13.9611674774      -14.4776598672  MEMB      219             0.0000000000
     27141       219  PMPG      O21            -6.6662648049      -15.4087125279      -13.4893698277  MEMB      219             0.0000000000
     27142       219  PMPG      C21            -5.6354272089      -14.5753118790      -13.3845800432  MEMB      219             0.0000000000
     27143       219  PMPG      O22            -5.4934042588      -13.4657869402      -13.8869515811  MEMB      219             0.0000000000
     27144       219  PMPG      C22            -4.5926704715      -15.2475999453      -12.5220706097  MEMB      219             0.0000000000
     27145       219  PMPG      H2R            -3.7785852953      -14.5045811878      -12.3823945381  MEMB      219             0.0000000000
     27146       219  PMPG      H2S            -4.1691008106      -16.1479764514      -13.0162690407  MEMB      219             0.0000000000
     27147       219  PMPG      C3             -8.9684688367      -15.7648464672      -14.2907749978  MEMB      219             0.0000000000
     27148       219  PMPG      HX             -8.8602114209      -16.8687787991      -14.3535016138  MEMB      219             0.0000000000
     27149       219  PMPG      HY             -9.6420056094      -15.4399213540      -15.1124151522  MEMB      219             0.0000000000
     27150       219  PMPG      O31            -9.6333941875      -15.3629876642      -13.1459600832  MEMB      219             0.0000000000
     27151       219  PMPG      C31            -9.9305906468      -16.3356889360      -12.3451335708  MEMB      219             0.0000000000
     27152       219  PMPG      O32            -9.8336806632      -17.5207951775      -12.5953280676  MEMB      219             0.0000000000
     27153       219  PMPG      C32           -10.4706252219      -15.7995478969      -11.0188677497  MEMB      219             0.0000000000
     27154       219  PMPG      H2X           -11.5701670795      -15.9106558502      -10.9049211115  MEMB      219             0.0000000000
     27155       219  PMPG      H2Y           -10.1061929231      -14.7952418225      -10.7141065574  MEMB      219             0.0000000000
     27156       219  PMPG      C23            -5.0564553719      -15.6825323045      -11.1158339086  MEMB      219             0.0000000000
     27157       219  PMPG      H3R            -5.9141137655      -16.3748009857      -11.2555018894  MEMB      219             0.0000000000
     27158       219  PMPG      H3S            -5.5004918104      -14.8237488577      -10.5684365620  MEMB      219             0.0000000000
     27159       219  PMPG      C24            -3.9659149390      -16.2671033690      -10.2090500285  MEMB      219             0.0000000000
     27160       219  PMPG      H4R            -3.3545991574      -15.3727912173       -9.9624337068  MEMB      219             0.0000000000
     27161       219  PMPG      H4S            -3.3069569799      -16.9605300563      -10.7740766251  MEMB      219             0.0000000000
     27162       219  PMPG      C25            -4.4006319611      -17.0137226526       -8.8987052605  MEMB      219             0.0000000000
     27163       219  PMPG      H5R            -5.0928899882      -16.4694907354       -8.2212751775  MEMB      219             0.0000000000
     27164       219  PMPG      H5S            -3.5791492948      -17.3069086987       -8.2105700582  MEMB      219             0.0000000000
     27165       219  PMPG      C26            -5.1233662181      -18.3919402445       -9.2314846911  MEMB      219             0.0000000000
     27166       219  PMPG      H6R            -4.3311413919      -18.9863226037       -9.7348838295  MEMB      219             0.0000000000
     27167       219  PMPG      H6S            -6.0013528002      -18.1142995287       -9.8530761433  MEMB      219             0.0000000000
     27168       219  PMPG      C27            -5.6183347655      -19.1768518583       -7.9825735234  MEMB      219             0.0000000000
     27169       219  PMPG      H7R            -6.3885108106      -19.8956848388       -8.3353187765  MEMB      219             0.0000000000
     27170       219  PMPG      H7S            -6.2240937212      -18.4681775227       -7.3782908120  MEMB      219             0.0000000000
     27171       219  PMPG      C28            -4.5778118919      -19.8313717136       -7.0491403282  MEMB      219             0.0000000000
     27172       219  PMPG      H8R            -3.6251972886      -19.2603058488       -7.0761616608  MEMB      219             0.0000000000
     27173       219  PMPG      H8S            -4.2618176046      -20.8301214836       -7.4192308805  MEMB      219             0.0000000000
     27174       219  PMPG      C29            -5.1294964227      -19.9520728952       -5.6132637887  MEMB      219             0.0000000000
     27175       219  PMPG      H9R            -5.9134107725      -20.7266108047       -5.4722307971  MEMB      219             0.0000000000
     27176       219  PMPG      C217           -4.0974556400      -20.0213970128       -4.4926836088  MEMB      219             0.0000000000
     27177       219  PMPG      H17R           -4.4040171483      -20.7091444084       -3.7142798011  MEMB      219             0.0000000000
     27178       219  PMPG      H17S           -3.1322819878      -19.9658102282       -4.9807805198  MEMB      219             0.0000000000
     27179       219  PMPG      C210           -5.0828458549      -18.8727800661       -4.6168602793  MEMB      219             0.0000000000
     27180       219  PMPG      H10R           -5.9009320198      -18.7664793449       -3.8727119331  MEMB      219             0.0000000000
     27181       219  PMPG      C211           -4.4566216640      -17.5350704539       -5.1319601061  MEMB      219             0.0000000000
     27182       219  PMPG      H11R           -3.5352346862      -17.6677965732       -5.7383851678  MEMB      219             0.0000000000
     27183       219  PMPG      H11S           -5.2244049459      -16.9755282817       -5.7079303974  MEMB      219             0.0000000000
     27184       219  PMPG      C212           -3.9884004599      -16.5460197661       -4.0093781327  MEMB      219             0.0000000000
     27185       219  PMPG      H12R           -4.8536669242      -16.0888009970       -3.4834631743  MEMB      219             0.0000000000
     27186       219  PMPG      H12S           -3.4838851391      -15.7335148040       -4.5747280990  MEMB      219             0.0000000000
     27187       219  PMPG      C213           -2.9401791194      -17.1163209285       -3.0629041797  MEMB      219             0.0000000000
     27188       219  PMPG      H13R           -2.1000579489      -17.6101065047       -3.5964711097  MEMB      219             0.0000000000
     27189       219  PMPG      H13S           -3.5141865729      -17.9135920029       -2.5440646372  MEMB      219             0.0000000000
     27190       219  PMPG      C214           -2.2554888401      -16.1105287457       -2.1755552662  MEMB      219             0.0000000000
     27191       219  PMPG      H14R           -1.9799943500      -15.1503954254       -2.6619370449  MEMB      219             0.0000000000
     27192       219  PMPG      H14S           -1.3627058445      -16.5986358696       -1.7294484358  MEMB      219             0.0000000000
     27193       219  PMPG      C215           -3.0775118218      -15.7388952991       -0.8890649789  MEMB      219             0.0000000000
     27194       219  PMPG      H15R           -3.3136686064      -16.6506747025       -0.2998214838  MEMB      219             0.0000000000
     27195       219  PMPG      H15S           -3.9942857268      -15.2415238157       -1.2717769966  MEMB      219             0.0000000000
     27196       219  PMPG      C216           -2.3637577158      -14.6341387610       -0.0721914897  MEMB      219             0.0000000000
     27197       219  PMPG      H16R           -1.3627549361      -15.0283047566        0.2052032306  MEMB      219             0.0000000000
     27198       219  PMPG      H16S           -2.9178259041      -14.5378638432        0.8859630245  MEMB      219             0.0000000000
     27199       219  PMPG      H16T           -2.2778713575      -13.6347831813       -0.5499286786  MEMB      219             0.0000000000
     27200       219  PMPG      C33            -9.9585848839      -16.8210419206       -9.9593314691  MEMB      219             0.0000000000
     27201       219  PMPG      H3X            -8.8498114953      -16.8118179920      -10.0290267085  MEMB      219             0.0000000000
     27202       219  PMPG      H3Y           -10.2824109195      -17.8374487920      -10.2697748633  MEMB      219             0.0000000000
     27203       219  PMPG      C34           -10.5698267797      -16.5800187270       -8.4962567887  MEMB      219             0.0000000000
     27204       219  PMPG      H4X           -11.6567070114      -16.6673479682       -8.7092977065  MEMB      219             0.0000000000
     27205       219  PMPG      H4Y           -10.3128767730      -15.5635312529       -8.1287641452  MEMB      219             0.0000000000
     27206       219  PMPG      C35           -10.0417460166      -17.6926951668       -7.5322524951  MEMB      219             0.0000000000
     27207       219  PMPG      H5X           -10.0916952650      -18.6597251209       -8.0769351975  MEMB      219             0.0000000000
     27208       219  PMPG      H5Y           -10.8773073467      -17.7250958573       -6.8007418371  MEMB      219             0.0000000000
     27209       219  PMPG      C36            -8.7454761790      -17.4253679541       -6.8607186873  MEMB      219             0.0000000000
     27210       219  PMPG      H6X            -7.9814131181      -17.2549406742       -7.6490607083  MEMB      219             0.0000000000
     27211       219  PMPG      H6Y            -8.4848930137      -18.2993780358       -6.2262709422  MEMB      219             0.0000000000
     27212       219  PMPG      C37            -8.8747929720      -16.3366983561       -5.7900629537  MEMB      219             0.0000000000
     27213       219  PMPG      H7X            -9.0619235189      -15.3563312873       -6.2781034304  MEMB      219             0.0000000000
     27214       219  PMPG      H7Y            -7.8578452613      -16.1926832757       -5.3665091867  MEMB      219             0.0000000000
     27215       219  PMPG      C38            -9.7510907650      -16.6686312771       -4.5632521021  MEMB      219             0.0000000000
     27216       219  PMPG      H8X            -9.3860561915      -17.5842168694       -4.0506378682  MEMB      219             0.0000000000
     27217       219  PMPG      H8Y           -10.7927243863      -16.8424904204       -4.9083524322  MEMB      219             0.0000000000
     27218       219  PMPG      C39            -9.7995366621      -15.5402232801       -3.5433885329  MEMB      219             0.0000000000
     27219       219  PMPG      H9X           -10.1348557398      -14.6387079875       -4.0994034887  MEMB      219             0.0000000000
     27220       219  PMPG      H9Y            -8.8669381780      -15.2036358212       -3.0420996814  MEMB      219             0.0000000000
     27221       219  PMPG      C310          -10.8189484277      -15.9498929137       -2.5185387385  MEMB      219             0.0000000000
     27222       219  PMPG      H10X          -11.8255027457      -16.2049388400       -2.9136611448  MEMB      219             0.0000000000
     27223       219  PMPG      H10Y          -11.0222157361      -15.2188462814       -1.7070122275  MEMB      219             0.0000000000
     27224       219  PMPG      C311          -10.3480577826      -17.2909978572       -1.7482421130  MEMB      219             0.0000000000
     27225       219  PMPG      H11X          -10.5112150251      -18.1836928802       -2.3891757230  MEMB      219             0.0000000000
     27226       219  PMPG      H11Y          -10.9991576141      -17.4493955434       -0.8620692880  MEMB      219             0.0000000000
     27227       219  PMPG      C312           -8.8711478462      -17.3980155284       -1.3781643839  MEMB      219             0.0000000000
     27228       219  PMPG      H12X           -8.1923632918      -17.2232920929       -2.2401638969  MEMB      219             0.0000000000
     27229       219  PMPG      H12Y           -8.7300698475      -18.3847243230       -0.8874262714  MEMB      219             0.0000000000
     27230       219  PMPG      C313           -8.4207572812      -16.4622240950       -0.3060353988  MEMB      219             0.0000000000
     27231       219  PMPG      H13X           -8.9706950844      -16.5065242433        0.6582914727  MEMB      219             0.0000000000
     27232       219  PMPG      H13Y           -8.5917921740      -15.4138909734       -0.6317120940  MEMB      219             0.0000000000
     27233       219  PMPG      C314           -7.0273399130      -16.8347749385        0.0550181730  MEMB      219             0.0000000000
     27234       219  PMPG      H14X           -6.4099940759      -16.8418445240       -0.8686445920  MEMB      219             0.0000000000
     27235       219  PMPG      H14Y           -7.0347538347      -17.9310575201        0.2351034038  MEMB      219             0.0000000000
     27236       219  PMPG      C315           -6.3727143197      -16.0168336537        1.2624114678  MEMB      219             0.0000000000
     27237       219  PMPG      H15X           -5.2685690062      -16.1398399935        1.2697386832  MEMB      219             0.0000000000
     27238       219  PMPG      H15Y           -6.6776368911      -16.5028110387        2.2138166164  MEMB      219             0.0000000000
     27239       219  PMPG      C316           -6.6296654914      -14.5252765269        1.2819844569  MEMB      219             0.0000000000
     27240       219  PMPG      H16X           -7.7198298127      -14.3111382231        1.2847303436  MEMB      219             0.0000000000
     27241       219  PMPG      H16Y           -6.1847216121      -14.0527897608        0.3802629546  MEMB      219             0.0000000000
     27242       219  PMPG      H16Z           -6.1839517413      -14.0704299175        2.1923544220  MEMB      219             0.0000000000
     27243       220  PMPE      N             -24.3074465188        5.3756121134      -19.8076397367  MEMB      220             0.0000000000
     27244       220  PMPE      HN1           -25.2801635420        5.0078952855      -19.8219881400  MEMB      220             0.0000000000
     27245       220  PMPE      HN2           -24.1464544693        5.7798131891      -18.8630218194  MEMB      220             0.0000000000
     27246       220  PMPE      HN3           -24.0141005256        6.0805224548      -20.5137909860  MEMB      220             0.0000000000
     27247       220  PMPE      C12           -23.2800898041        4.2949618116      -20.1293870738  MEMB      220             0.0000000000
     27248       220  PMPE      H12A          -23.7304881389        3.7583940159      -20.9916848746  MEMB      220             0.0000000000
     27249       220  PMPE      H12B          -23.2773943127        3.6173903885      -19.2489264454  MEMB      220             0.0000000000
     27250       220  PMPE      C11           -21.9369385717        4.8860078879      -20.5578170028  MEMB      220             0.0000000000
     27251       220  PMPE      H11A          -22.2567674268        5.6719776198      -21.2749516674  MEMB      220             0.0000000000
     27252       220  PMPE      H11B          -21.2723557115        4.1381920412      -21.0409547333  MEMB      220             0.0000000000
     27253       220  PMPE      P             -20.5780360330        4.8866167401      -18.2993666142  MEMB      220             0.0000000000
     27254       220  PMPE      O13           -19.5324330926        5.7561999007      -17.6861447690  MEMB      220             0.0000000000
     27255       220  PMPE      O14           -20.0828565426        3.5663768567      -18.7146665942  MEMB      220             0.0000000000
     27256       220  PMPE      O11           -21.7220170338        4.6018360806      -17.3125356432  MEMB      220             0.0000000000
     27257       220  PMPE      O12           -21.3036887984        5.6272535694      -19.4924425697  MEMB      220             0.0000000000
     27258       220  PMPE      C1            -22.2376481966        5.4907935678      -16.4395490056  MEMB      220             0.0000000000
     27259       220  PMPE      HA            -23.3359489583        5.4778305577      -16.6065471440  MEMB      220             0.0000000000
     27260       220  PMPE      HB            -21.9062110907        6.5220482979      -16.6864985726  MEMB      220             0.0000000000
     27261       220  PMPE      C2            -22.0031365105        5.0132775616      -14.9481848004  MEMB      220             0.0000000000
     27262       220  PMPE      HS            -22.3873867206        5.8146983485      -14.2815534319  MEMB      220             0.0000000000
     27263       220  PMPE      O21           -20.6460556545        4.7398698780      -14.7004129355  MEMB      220             0.0000000000
     27264       220  PMPE      C21           -19.7518097222        5.7305256596      -14.7340728949  MEMB      220             0.0000000000
     27265       220  PMPE      O22           -19.9639590664        6.9128615283      -14.9090801961  MEMB      220             0.0000000000
     27266       220  PMPE      C22           -18.4701851679        5.1163693332      -14.2927759935  MEMB      220             0.0000000000
     27267       220  PMPE      H2R           -18.0888194707        4.6205589265      -15.2109554248  MEMB      220             0.0000000000
     27268       220  PMPE      H2S           -18.7397715552        4.3603770541      -13.5245838647  MEMB      220             0.0000000000
     27269       220  PMPE      C3            -22.7355550935        3.7849334937      -14.4750753391  MEMB      220             0.0000000000
     27270       220  PMPE      HX            -22.3957820243        2.9920809121      -15.1752611029  MEMB      220             0.0000000000
     27271       220  PMPE      HY            -23.8455765247        3.8307897729      -14.4666611962  MEMB      220             0.0000000000
     27272       220  PMPE      O31           -22.2966418545        3.4455546276      -13.1146158052  MEMB      220             0.0000000000
     27273       220  PMPE      C31           -21.4207102318        2.5130245396      -12.8906155916  MEMB      220             0.0000000000
     27274       220  PMPE      O32           -21.0365298477        1.6842246904      -13.6785305661  MEMB      220             0.0000000000
     27275       220  PMPE      C32           -20.8744595796        2.5773027034      -11.5050370806  MEMB      220             0.0000000000
     27276       220  PMPE      H2X           -21.0882116537        3.5857492499      -11.0907104145  MEMB      220             0.0000000000
     27277       220  PMPE      H2Y           -19.7952091255        2.3230621455      -11.5750451460  MEMB      220             0.0000000000
     27278       220  PMPE      C23           -17.4656402718        6.1624985372      -13.8835104942  MEMB      220             0.0000000000
     27279       220  PMPE      H3R           -17.1990886151        6.8353473295      -14.7264494458  MEMB      220             0.0000000000
     27280       220  PMPE      H3S           -16.4561864407        5.7300136489      -13.7153426745  MEMB      220             0.0000000000
     27281       220  PMPE      C24           -17.7456800535        6.7587131101      -12.5236564084  MEMB      220             0.0000000000
     27282       220  PMPE      H4R           -18.8302420254        6.9227198986      -12.3471683451  MEMB      220             0.0000000000
     27283       220  PMPE      H4S           -17.3118343223        7.7791221876      -12.5933976709  MEMB      220             0.0000000000
     27284       220  PMPE      C25           -17.1613529543        6.0425056009      -11.3198932011  MEMB      220             0.0000000000
     27285       220  PMPE      H5R           -16.0560836121        6.1341601044      -11.2543174284  MEMB      220             0.0000000000
     27286       220  PMPE      H5S           -17.5343930043        4.9965889555      -11.3548297730  MEMB      220             0.0000000000
     27287       220  PMPE      C26           -17.7003529650        6.6381026681      -10.0071380990  MEMB      220             0.0000000000
     27288       220  PMPE      H6R           -17.6833573503        7.7455800415      -10.0938900172  MEMB      220             0.0000000000
     27289       220  PMPE      H6S           -16.9669182385        6.4631248580       -9.1911857969  MEMB      220             0.0000000000
     27290       220  PMPE      C27           -19.0615917113        6.0257206623       -9.5361717857  MEMB      220             0.0000000000
     27291       220  PMPE      H7R           -18.8889216084        4.9743595721       -9.2212972865  MEMB      220             0.0000000000
     27292       220  PMPE      H7S           -19.7461086742        6.1316120592      -10.4048169155  MEMB      220             0.0000000000
     27293       220  PMPE      C28           -19.7539075790        6.7127077937       -8.4279138874  MEMB      220             0.0000000000
     27294       220  PMPE      H8R           -19.9273534242        7.7971146493       -8.5961386623  MEMB      220             0.0000000000
     27295       220  PMPE      H8S           -19.2864234909        6.6835522924       -7.4204763758  MEMB      220             0.0000000000
     27296       220  PMPE      C29           -21.0165366276        5.9156878509       -8.1445756299  MEMB      220             0.0000000000
     27297       220  PMPE      H9R           -20.9064649047        4.8125968721       -8.0711231573  MEMB      220             0.0000000000
     27298       220  PMPE      C217          -22.3214990135        6.4436151992       -8.7577260988  MEMB      220             0.0000000000
     27299       220  PMPE      H17R          -23.0646521632        5.6863864985       -8.9750207497  MEMB      220             0.0000000000
     27300       220  PMPE      H17S          -22.1870894675        7.2807305082       -9.4315660064  MEMB      220             0.0000000000
     27301       220  PMPE      C210          -22.1110060616        6.5266035240       -7.2250525877  MEMB      220             0.0000000000
     27302       220  PMPE      H10R          -22.7572657735        5.7856904848       -6.7076387065  MEMB      220             0.0000000000
     27303       220  PMPE      C211          -22.0704606887        7.9499030050       -6.7148370427  MEMB      220             0.0000000000
     27304       220  PMPE      H11R          -23.0506828049        8.4383244196       -6.5279416732  MEMB      220             0.0000000000
     27305       220  PMPE      H11S          -21.6951563286        8.6193073446       -7.5181836675  MEMB      220             0.0000000000
     27306       220  PMPE      C212          -21.1144948474        8.1350928119       -5.5089090683  MEMB      220             0.0000000000
     27307       220  PMPE      H12R          -21.0918132829        9.2082814152       -5.2224263241  MEMB      220             0.0000000000
     27308       220  PMPE      H12S          -20.1419064535        7.6782747306       -5.7912394636  MEMB      220             0.0000000000
     27309       220  PMPE      C213          -21.6335879231        7.3050868035       -4.4075048826  MEMB      220             0.0000000000
     27310       220  PMPE      H13R          -21.6642871535        6.2435019603       -4.7337192781  MEMB      220             0.0000000000
     27311       220  PMPE      H13S          -22.6327486913        7.6149571043       -4.0333662412  MEMB      220             0.0000000000
     27312       220  PMPE      C214          -20.8295544580        7.3278621436       -3.1367540659  MEMB      220             0.0000000000
     27313       220  PMPE      H14R          -19.8374240883        6.8699330740       -3.3375011327  MEMB      220             0.0000000000
     27314       220  PMPE      H14S          -21.2650111906        6.6682122007       -2.3560103247  MEMB      220             0.0000000000
     27315       220  PMPE      C215          -20.7709496037        8.7295201474       -2.4224525580  MEMB      220             0.0000000000
     27316       220  PMPE      H15R          -21.8110905655        9.0727620712       -2.2364088811  MEMB      220             0.0000000000
     27317       220  PMPE      H15S          -20.3264220526        9.4902941642       -3.0991645082  MEMB      220             0.0000000000
     27318       220  PMPE      C216          -19.9425375065        8.6740565790       -1.1357145653  MEMB      220             0.0000000000
     27319       220  PMPE      H16R          -20.1391944044        9.6639978598       -0.6713186461  MEMB      220             0.0000000000
     27320       220  PMPE      H16S          -20.2460512511        7.7880194901       -0.5381028805  MEMB      220             0.0000000000
     27321       220  PMPE      H16T          -18.8421900493        8.7255240539       -1.2803091058  MEMB      220             0.0000000000
     27322       220  PMPE      C33           -21.6355373889        1.5461998565      -10.6006782753  MEMB      220             0.0000000000
     27323       220  PMPE      H3X           -21.2252634868        1.5198536402       -9.5685443615  MEMB      220             0.0000000000
     27324       220  PMPE      H3Y           -21.5488800591        0.5367957962      -11.0566554826  MEMB      220             0.0000000000
     27325       220  PMPE      C34           -23.1761697047        1.9548374587      -10.5087331820  MEMB      220             0.0000000000
     27326       220  PMPE      H4X           -23.6090075088        2.0454502133      -11.5279299977  MEMB      220             0.0000000000
     27327       220  PMPE      H4Y           -23.3180297865        2.9387031793      -10.0125430603  MEMB      220             0.0000000000
     27328       220  PMPE      C35           -24.0996282249        0.9539086993       -9.8381692580  MEMB      220             0.0000000000
     27329       220  PMPE      H5X           -23.9284678639       -0.0690607823      -10.2363633610  MEMB      220             0.0000000000
     27330       220  PMPE      H5Y           -25.1615842753        1.2035112769      -10.0485702270  MEMB      220             0.0000000000
     27331       220  PMPE      C36           -23.7295450651        0.6691161940       -8.3796750225  MEMB      220             0.0000000000
     27332       220  PMPE      H6X           -22.7465612665        0.1515209216       -8.3922713571  MEMB      220             0.0000000000
     27333       220  PMPE      H6Y           -24.4323878005       -0.0125315230       -7.8546132967  MEMB      220             0.0000000000
     27334       220  PMPE      C37           -23.6472380627        1.9867605355       -7.5278469728  MEMB      220             0.0000000000
     27335       220  PMPE      H7X           -24.6132892832        2.4896779642       -7.7472554653  MEMB      220             0.0000000000
     27336       220  PMPE      H7Y           -22.9256536035        2.7058458798       -7.9711898397  MEMB      220             0.0000000000
     27337       220  PMPE      C38           -23.7504207661        1.8512616249       -6.0172929252  MEMB      220             0.0000000000
     27338       220  PMPE      H8X           -24.5725819589        1.1487440263       -5.7626537482  MEMB      220             0.0000000000
     27339       220  PMPE      H8Y           -24.0390878672        2.8459897640       -5.6154126978  MEMB      220             0.0000000000
     27340       220  PMPE      C39           -22.4412566562        1.1947438793       -5.4095547978  MEMB      220             0.0000000000
     27341       220  PMPE      H9X           -22.1519942310        0.2265673966       -5.8713799344  MEMB      220             0.0000000000
     27342       220  PMPE      H9Y           -22.6523109805        0.8101548460       -4.3888347728  MEMB      220             0.0000000000
     27343       220  PMPE      C310          -21.2455605221        2.1822716791       -5.4279316702  MEMB      220             0.0000000000
     27344       220  PMPE      H10X          -21.3596533465        2.7676789124       -4.4905936837  MEMB      220             0.0000000000
     27345       220  PMPE      H10Y          -21.3174680266        2.8002070545       -6.3484238208  MEMB      220             0.0000000000
     27346       220  PMPE      C311          -19.8828228319        1.4544588497       -5.5816440806  MEMB      220             0.0000000000
     27347       220  PMPE      H11X          -19.9909222649        0.7833616082       -6.4604296462  MEMB      220             0.0000000000
     27348       220  PMPE      H11Y          -19.6919082348        0.8110012236       -4.6962994238  MEMB      220             0.0000000000
     27349       220  PMPE      C312          -18.6682213032        2.2711761438       -5.9434977886  MEMB      220             0.0000000000
     27350       220  PMPE      H12X          -18.7306912728        2.8784855647       -6.8717185046  MEMB      220             0.0000000000
     27351       220  PMPE      H12Y          -17.8017570686        1.5856028194       -6.0599028429  MEMB      220             0.0000000000
     27352       220  PMPE      C313          -18.1839985591        3.2226275105       -4.8403636737  MEMB      220             0.0000000000
     27353       220  PMPE      H13X          -18.9373144166        3.9539736192       -4.4770879006  MEMB      220             0.0000000000
     27354       220  PMPE      H13Y          -17.3231428717        3.8636226011       -5.1273712984  MEMB      220             0.0000000000
     27355       220  PMPE      C314          -17.7062845582        2.5213788950       -3.6005063825  MEMB      220             0.0000000000
     27356       220  PMPE      H14X          -17.3595597641        1.5091234640       -3.8995744399  MEMB      220             0.0000000000
     27357       220  PMPE      H14Y          -18.6298131394        2.2903546915       -3.0277554997  MEMB      220             0.0000000000
     27358       220  PMPE      C315          -16.7880268345        3.2959485761       -2.5303257002  MEMB      220             0.0000000000
     27359       220  PMPE      H15X          -15.8625936737        3.5218018591       -3.1020644262  MEMB      220             0.0000000000
     27360       220  PMPE      H15Y          -16.6110991606        2.6359561119       -1.6542962681  MEMB      220             0.0000000000
     27361       220  PMPE      C316          -17.3189724571        4.6213106340       -2.1170472808  MEMB      220             0.0000000000
     27362       220  PMPE      H16X          -16.5598114876        5.1553850882       -1.5065067968  MEMB      220             0.0000000000
     27363       220  PMPE      H16Y          -18.2756543878        4.5506631319       -1.5566113289  MEMB      220             0.0000000000
     27364       220  PMPE      H16Z          -17.5082834018        5.2196135060       -3.0338445288  MEMB      220             0.0000000000
     27365       221  PMPE      N              21.5098411790       10.4439460139      -16.9982317136  MEMB      221             0.0000000000
     27366       221  PMPE      HN1            21.9135658668       10.9783186442      -17.7938776449  MEMB      221             0.0000000000
     27367       221  PMPE      HN2            20.4847639020       10.5581738278      -17.1315306674  MEMB      221             0.0000000000
     27368       221  PMPE      HN3            21.8081496304       10.9488796064      -16.1393639779  MEMB      221             0.0000000000
     27369       221  PMPE      C12            21.9639433548        8.9865195639      -16.9343504608  MEMB      221             0.0000000000
     27370       221  PMPE      H12A           22.0435373333        8.7746053019      -15.8466563923  MEMB      221             0.0000000000
     27371       221  PMPE      H12B           23.0095455862        8.9583195191      -17.3088385984  MEMB      221             0.0000000000
     27372       221  PMPE      C11            21.0945786873        8.0289153753      -17.7603111091  MEMB      221             0.0000000000
     27373       221  PMPE      H11A           20.1754264751        7.6374996570      -17.2742310333  MEMB      221             0.0000000000
     27374       221  PMPE      H11B           21.6684211423        7.0955503595      -17.9443099171  MEMB      221             0.0000000000
     27375       221  PMPE      P              20.1062151808        7.7032681557      -20.1389514184  MEMB      221             0.0000000000
     27376       221  PMPE      O13            20.8485171164        6.4161194528      -20.2524388255  MEMB      221             0.0000000000
     27377       221  PMPE      O14            19.9802628676        8.5147193015      -21.3775872921  MEMB      221             0.0000000000
     27378       221  PMPE      O11            18.7437561428        7.6446543421      -19.4437268256  MEMB      221             0.0000000000
     27379       221  PMPE      O12            20.8769991086        8.5576593984      -19.0944023588  MEMB      221             0.0000000000
     27380       221  PMPE      C1             17.5154246482        7.7921698153      -20.1506274036  MEMB      221             0.0000000000
     27381       221  PMPE      HA             17.3853690193        6.9173035382      -20.8229484020  MEMB      221             0.0000000000
     27382       221  PMPE      HB             17.5282094680        8.7353341548      -20.7376525941  MEMB      221             0.0000000000
     27383       221  PMPE      C2             16.2652170786        7.8484089804      -19.1759078686  MEMB      221             0.0000000000
     27384       221  PMPE      HS             15.4196928190        8.2722780164      -19.7587842145  MEMB      221             0.0000000000
     27385       221  PMPE      O21            16.5223318636        8.7627701276      -18.0053727311  MEMB      221             0.0000000000
     27386       221  PMPE      C21            16.3589201162       10.0097644057      -18.0861698258  MEMB      221             0.0000000000
     27387       221  PMPE      O22            15.8997338204       10.6917477788      -18.9499562953  MEMB      221             0.0000000000
     27388       221  PMPE      C22            17.0406277118       10.6719843678      -16.8845721612  MEMB      221             0.0000000000
     27389       221  PMPE      H2R            17.3923371827       11.6627726050      -17.2436821153  MEMB      221             0.0000000000
     27390       221  PMPE      H2S            17.9195342469       10.0507560264      -16.6090370980  MEMB      221             0.0000000000
     27391       221  PMPE      C3             15.9538990308        6.4761500144      -18.7538862898  MEMB      221             0.0000000000
     27392       221  PMPE      HX             16.0045519505        5.8329569875      -19.6583518931  MEMB      221             0.0000000000
     27393       221  PMPE      HY             14.9597717362        6.2775287221      -18.2993732397  MEMB      221             0.0000000000
     27394       221  PMPE      O31            17.0000132758        5.9455324651      -17.8843530595  MEMB      221             0.0000000000
     27395       221  PMPE      C31            16.8482718714        5.8220750444      -16.5793826162  MEMB      221             0.0000000000
     27396       221  PMPE      O32            15.9276282062        6.0559655159      -15.8694433953  MEMB      221             0.0000000000
     27397       221  PMPE      C32            18.2322353432        5.4140089634      -16.1146784972  MEMB      221             0.0000000000
     27398       221  PMPE      H2X            19.0351262133        6.1129402424      -16.4327698610  MEMB      221             0.0000000000
     27399       221  PMPE      H2Y            18.3610262122        4.3964086088      -16.5415549913  MEMB      221             0.0000000000
     27400       221  PMPE      C23            16.0121972181       10.7924726642      -15.7507503699  MEMB      221             0.0000000000
     27401       221  PMPE      H3R            15.0882637912       11.2986327065      -16.1035531799  MEMB      221             0.0000000000
     27402       221  PMPE      H3S            16.4461728463       11.4567102943      -14.9730778800  MEMB      221             0.0000000000
     27403       221  PMPE      C24            15.5389032968        9.4777266422      -15.1141134656  MEMB      221             0.0000000000
     27404       221  PMPE      H4R            15.3925305732        8.6784209453      -15.8717457816  MEMB      221             0.0000000000
     27405       221  PMPE      H4S            14.5399576886        9.7298848260      -14.6983673828  MEMB      221             0.0000000000
     27406       221  PMPE      C25            16.4375823875        9.0000120702      -13.9449531364  MEMB      221             0.0000000000
     27407       221  PMPE      H5R            16.7317558019        9.9232460432      -13.4014255424  MEMB      221             0.0000000000
     27408       221  PMPE      H5S            17.3840445011        8.4970045288      -14.2373808556  MEMB      221             0.0000000000
     27409       221  PMPE      C26            15.7672880165        8.0807808764      -12.8627210047  MEMB      221             0.0000000000
     27410       221  PMPE      H6R            15.3454048959        7.2443916778      -13.4600385218  MEMB      221             0.0000000000
     27411       221  PMPE      H6S            14.8929005572        8.5280197289      -12.3433510785  MEMB      221             0.0000000000
     27412       221  PMPE      C27            16.7254125525        7.5514682040      -11.7573590338  MEMB      221             0.0000000000
     27413       221  PMPE      H7R            17.6679897266        7.0496714654      -12.0640656140  MEMB      221             0.0000000000
     27414       221  PMPE      H7S            16.0566388127        6.9101903452      -11.1443130680  MEMB      221             0.0000000000
     27415       221  PMPE      C28            17.1055445784        8.5331254810      -10.7248316471  MEMB      221             0.0000000000
     27416       221  PMPE      H8R            16.1992904843        8.8704923103      -10.1778326610  MEMB      221             0.0000000000
     27417       221  PMPE      H8S            17.6946770568        9.3714874662      -11.1542417812  MEMB      221             0.0000000000
     27418       221  PMPE      C29            18.0452621351        7.7997161247       -9.7302608929  MEMB      221             0.0000000000
     27419       221  PMPE      H9R            18.9176969238        7.1648128686       -9.9949805679  MEMB      221             0.0000000000
     27420       221  PMPE      C217           17.3332585489        7.2431227127       -8.5032422792  MEMB      221             0.0000000000
     27421       221  PMPE      H17R           17.7945429653        6.4883032920       -7.8784597446  MEMB      221             0.0000000000
     27422       221  PMPE      H17S           16.2859225439        7.4975977489       -8.3973253235  MEMB      221             0.0000000000
     27423       221  PMPE      C210           18.2125763388        8.5189920536       -8.3866729660  MEMB      221             0.0000000000
     27424       221  PMPE      H10R           19.1887874184        8.3154670826       -7.8968668024  MEMB      221             0.0000000000
     27425       221  PMPE      C211           17.4682669211        9.7179317492       -8.0423051322  MEMB      221             0.0000000000
     27426       221  PMPE      H11R           16.3741471318        9.6316986364       -8.2148920867  MEMB      221             0.0000000000
     27427       221  PMPE      H11S           17.9558933299       10.5799318761       -8.5457899878  MEMB      221             0.0000000000
     27428       221  PMPE      C212           17.5521240015       10.0967681575       -6.5983706903  MEMB      221             0.0000000000
     27429       221  PMPE      H12R           18.5984010968       10.1448120827       -6.2278076875  MEMB      221             0.0000000000
     27430       221  PMPE      H12S           17.1115149426        9.2524595466       -6.0262451177  MEMB      221             0.0000000000
     27431       221  PMPE      C213           16.7675382932       11.3390005772       -6.0132224850  MEMB      221             0.0000000000
     27432       221  PMPE      H13R           16.9369357235       12.2621783710       -6.6076699672  MEMB      221             0.0000000000
     27433       221  PMPE      H13S           17.0955967068       11.3619318305       -4.9520094336  MEMB      221             0.0000000000
     27434       221  PMPE      C214           15.2158180290       11.2517754275       -6.1073235246  MEMB      221             0.0000000000
     27435       221  PMPE      H14R           14.9598337236       10.3377329263       -5.5299855360  MEMB      221             0.0000000000
     27436       221  PMPE      H14S           14.9458511791       11.1514591616       -7.1803453642  MEMB      221             0.0000000000
     27437       221  PMPE      C215           14.4717650282       12.4712231569       -5.5884035709  MEMB      221             0.0000000000
     27438       221  PMPE      H15R           13.4379730542       12.2170047982       -5.9061589026  MEMB      221             0.0000000000
     27439       221  PMPE      H15S           14.6851656822       13.3981230534       -6.1625452493  MEMB      221             0.0000000000
     27440       221  PMPE      C216           14.5944355032       12.7973522712       -4.1475728496  MEMB      221             0.0000000000
     27441       221  PMPE      H16R           15.5794634403       13.2527053187       -3.9094675198  MEMB      221             0.0000000000
     27442       221  PMPE      H16S           13.8606144083       13.5686019562       -3.8297650101  MEMB      221             0.0000000000
     27443       221  PMPE      H16T           14.4114119719       11.8906446390       -3.5321829706  MEMB      221             0.0000000000
     27444       221  PMPE      C33            18.2926766476        5.2278698954      -14.5768761091  MEMB      221             0.0000000000
     27445       221  PMPE      H3X            17.7593426699        4.2822105442      -14.3410701576  MEMB      221             0.0000000000
     27446       221  PMPE      H3Y            17.7012242152        5.9404076233      -13.9630397486  MEMB      221             0.0000000000
     27447       221  PMPE      C34            19.6929880011        5.0778869473      -14.0286885007  MEMB      221             0.0000000000
     27448       221  PMPE      H4X            20.0322209023        4.0380255912      -14.2234450210  MEMB      221             0.0000000000
     27449       221  PMPE      H4Y            19.6694834211        5.0722377647      -12.9179513680  MEMB      221             0.0000000000
     27450       221  PMPE      C35            20.7525439041        6.0292237267      -14.6224011558  MEMB      221             0.0000000000
     27451       221  PMPE      H5X            20.2595398705        7.0156939570      -14.7571028670  MEMB      221             0.0000000000
     27452       221  PMPE      H5Y            21.0179168622        5.5473455561      -15.5876432057  MEMB      221             0.0000000000
     27453       221  PMPE      C36            22.0723107486        5.9905342396      -13.6973860843  MEMB      221             0.0000000000
     27454       221  PMPE      H6X            22.8007083665        6.5332063204      -14.3371243743  MEMB      221             0.0000000000
     27455       221  PMPE      H6Y            22.3285329187        4.9219420788      -13.5337347513  MEMB      221             0.0000000000
     27456       221  PMPE      C37            22.0583296573        6.4809229436      -12.2698542226  MEMB      221             0.0000000000
     27457       221  PMPE      H7X            23.0994824690        6.3915553352      -11.8925809510  MEMB      221             0.0000000000
     27458       221  PMPE      H7Y            21.3671413693        5.8289086827      -11.6941312032  MEMB      221             0.0000000000
     27459       221  PMPE      C38            21.5452756457        7.9274300617      -12.0967546825  MEMB      221             0.0000000000
     27460       221  PMPE      H8X            20.5100404637        7.9413745795      -12.4997612488  MEMB      221             0.0000000000
     27461       221  PMPE      H8Y            22.1495524157        8.6041621105      -12.7380068386  MEMB      221             0.0000000000
     27462       221  PMPE      C39            21.5026197016        8.3942704985      -10.6381339795  MEMB      221             0.0000000000
     27463       221  PMPE      H9X            21.2652871862        7.5264069068       -9.9863620225  MEMB      221             0.0000000000
     27464       221  PMPE      H9Y            20.7792352331        9.2219807965      -10.4771021519  MEMB      221             0.0000000000
     27465       221  PMPE      C310           22.9169475972        8.8056260089      -10.1922481645  MEMB      221             0.0000000000
     27466       221  PMPE      H10X           23.4491354476        9.4764192901      -10.9001558101  MEMB      221             0.0000000000
     27467       221  PMPE      H10Y           23.4647362675        7.8404639442      -10.2443089514  MEMB      221             0.0000000000
     27468       221  PMPE      C311           23.1409618955        9.3763494253       -8.7915968487  MEMB      221             0.0000000000
     27469       221  PMPE      H11X           22.8517909102       10.4467677237       -8.8616413079  MEMB      221             0.0000000000
     27470       221  PMPE      H11Y           24.2226623099        9.3894396764       -8.5384686713  MEMB      221             0.0000000000
     27471       221  PMPE      C312           22.2332129057        8.7991786077       -7.7568992122  MEMB      221             0.0000000000
     27472       221  PMPE      H12X           22.2852411993        7.6947128185       -7.6484128153  MEMB      221             0.0000000000
     27473       221  PMPE      H12Y           21.2274604270        8.9799909167       -8.1928925847  MEMB      221             0.0000000000
     27474       221  PMPE      C313           22.3868557764        9.2155312113       -6.3130773645  MEMB      221             0.0000000000
     27475       221  PMPE      H13X           23.2852830847        8.7328723623       -5.8724071241  MEMB      221             0.0000000000
     27476       221  PMPE      H13Y           21.5767410739        8.7607524425       -5.7038064142  MEMB      221             0.0000000000
     27477       221  PMPE      C314           22.3417967104       10.7305375243       -6.0846181972  MEMB      221             0.0000000000
     27478       221  PMPE      H14X           21.5692982208       11.2935288076       -6.6508406356  MEMB      221             0.0000000000
     27479       221  PMPE      H14Y           23.2753072921       11.0531175510       -6.5933632794  MEMB      221             0.0000000000
     27480       221  PMPE      C315           22.3143902516       11.0887125541       -4.6007085714  MEMB      221             0.0000000000
     27481       221  PMPE      H15X           23.1611466768       11.7419950038       -4.2997988497  MEMB      221             0.0000000000
     27482       221  PMPE      H15Y           22.4960110436       10.1584820584       -4.0210478430  MEMB      221             0.0000000000
     27483       221  PMPE      C316           21.0146709502       11.6943788136       -4.1091182046  MEMB      221             0.0000000000
     27484       221  PMPE      H16X           21.1009525902       11.7884453944       -3.0054757323  MEMB      221             0.0000000000
     27485       221  PMPE      H16Y           20.1249367622       11.0706303341       -4.3407033120  MEMB      221             0.0000000000
     27486       221  PMPE      H16Z           20.8697753307       12.6950537791       -4.5695265159  MEMB      221             0.0000000000
     27487       222  PMPE      N              22.3048273132       -3.9090517445      -18.1110978736  MEMB      222             0.0000000000
     27488       222  PMPE      HN1            22.6618985976       -4.1201997283      -17.1574121283  MEMB      222             0.0000000000
     27489       222  PMPE      HN2            22.3689183154       -2.9005734138      -18.3569918298  MEMB      222             0.0000000000
     27490       222  PMPE      HN3            21.3791851625       -4.3493017423      -18.2870715344  MEMB      222             0.0000000000
     27491       222  PMPE      C12            23.0993258119       -4.6829416736      -19.1169046982  MEMB      222             0.0000000000
     27492       222  PMPE      H12A           24.1876681604       -4.5382362831      -18.9469278459  MEMB      222             0.0000000000
     27493       222  PMPE      H12B           22.9364162503       -4.1662458021      -20.0868566586  MEMB      222             0.0000000000
     27494       222  PMPE      C11            22.6122619293       -6.1448396250      -19.2769702498  MEMB      222             0.0000000000
     27495       222  PMPE      H11A           22.9202424239       -6.6861120424      -18.3569196003  MEMB      222             0.0000000000
     27496       222  PMPE      H11B           22.9899673938       -6.4361015380      -20.2803775071  MEMB      222             0.0000000000
     27497       222  PMPE      P              20.4938737318       -7.6949080205      -19.1379504028  MEMB      222             0.0000000000
     27498       222  PMPE      O13            21.4569505336       -8.5104554684      -18.3134686212  MEMB      222             0.0000000000
     27499       222  PMPE      O14            20.0901731739       -8.1045878888      -20.4937577899  MEMB      222             0.0000000000
     27500       222  PMPE      O11            19.2174489383       -7.4413678733      -18.2019254432  MEMB      222             0.0000000000
     27501       222  PMPE      O12            21.1880177655       -6.2189600254      -19.3479249193  MEMB      222             0.0000000000
     27502       222  PMPE      C1             18.6934981243       -6.1636465302      -17.8863165710  MEMB      222             0.0000000000
     27503       222  PMPE      HA             17.6686554519       -6.4517837104      -17.5685186138  MEMB      222             0.0000000000
     27504       222  PMPE      HB             18.5768461004       -5.5361469654      -18.7956886567  MEMB      222             0.0000000000
     27505       222  PMPE      C2             19.5012441419       -5.5434076202      -16.6918100942  MEMB      222             0.0000000000
     27506       222  PMPE      HS             20.4031713809       -5.0703811516      -17.1357631674  MEMB      222             0.0000000000
     27507       222  PMPE      O21            19.9056602110       -6.4418437272      -15.6733497611  MEMB      222             0.0000000000
     27508       222  PMPE      C21            20.9838227049       -6.1517695801      -14.9089104589  MEMB      222             0.0000000000
     27509       222  PMPE      O22            21.6870788767       -5.1437654552      -15.0882421480  MEMB      222             0.0000000000
     27510       222  PMPE      C22            20.9928832675       -7.0932419366      -13.6989016915  MEMB      222             0.0000000000
     27511       222  PMPE      H2R            21.2110577827       -8.1205654702      -14.0612924743  MEMB      222             0.0000000000
     27512       222  PMPE      H2S            20.0168358417       -7.0844955524      -13.1682642371  MEMB      222             0.0000000000
     27513       222  PMPE      C3             18.6745863156       -4.4068875705      -15.9580748737  MEMB      222             0.0000000000
     27514       222  PMPE      HX             18.1111607111       -3.9714776735      -16.8108883494  MEMB      222             0.0000000000
     27515       222  PMPE      HY             19.3846741510       -3.6387739896      -15.5837784179  MEMB      222             0.0000000000
     27516       222  PMPE      O31            17.6978299034       -4.8337251539      -14.9899936204  MEMB      222             0.0000000000
     27517       222  PMPE      C31            17.8591856107       -4.3226098902      -13.7393965767  MEMB      222             0.0000000000
     27518       222  PMPE      O32            18.7538414925       -3.5395946982      -13.4557369972  MEMB      222             0.0000000000
     27519       222  PMPE      C32            16.8479424970       -4.9981094090      -12.8164803715  MEMB      222             0.0000000000
     27520       222  PMPE      H2X            17.1557881103       -6.0547577552      -12.6646716863  MEMB      222             0.0000000000
     27521       222  PMPE      H2Y            15.9082885240       -5.1127883178      -13.3980474849  MEMB      222             0.0000000000
     27522       222  PMPE      C23            21.9816585008       -6.6515083544      -12.6053885980  MEMB      222             0.0000000000
     27523       222  PMPE      H3R            21.6321543032       -5.6552443689      -12.2595185754  MEMB      222             0.0000000000
     27524       222  PMPE      H3S            23.0357378669       -6.5396335435      -12.9381373100  MEMB      222             0.0000000000
     27525       222  PMPE      C24            21.9990972614       -7.4769875347      -11.2812560272  MEMB      222             0.0000000000
     27526       222  PMPE      H4R            22.6023366347       -8.3731778095      -11.5406132618  MEMB      222             0.0000000000
     27527       222  PMPE      H4S            20.9895332655       -7.8778081652      -11.0479229410  MEMB      222             0.0000000000
     27528       222  PMPE      C25            22.5379433019       -6.7492527135      -10.0230499534  MEMB      222             0.0000000000
     27529       222  PMPE      H5R            21.8049400612       -5.9599590569       -9.7509422770  MEMB      222             0.0000000000
     27530       222  PMPE      H5S            23.4693263720       -6.3721440446      -10.4970072852  MEMB      222             0.0000000000
     27531       222  PMPE      C26            22.9139938500       -7.5388823864       -8.7777362884  MEMB      222             0.0000000000
     27532       222  PMPE      H6R            23.2715511531       -8.5267989286       -9.1389771700  MEMB      222             0.0000000000
     27533       222  PMPE      H6S            22.1072882105       -7.6587715085       -8.0233006449  MEMB      222             0.0000000000
     27534       222  PMPE      C27            24.1101457971       -6.9041637227       -7.9122771331  MEMB      222             0.0000000000
     27535       222  PMPE      H7R            24.8964961026       -6.4986086637       -8.5842144744  MEMB      222             0.0000000000
     27536       222  PMPE      H7S            24.5077687244       -7.7686957644       -7.3388650860  MEMB      222             0.0000000000
     27537       222  PMPE      C28            23.6541387731       -5.8752063220       -6.8279140643  MEMB      222             0.0000000000
     27538       222  PMPE      H8R            22.8292922248       -6.3981093574       -6.2982709500  MEMB      222             0.0000000000
     27539       222  PMPE      H8S            23.1643300523       -4.9964336799       -7.2992601319  MEMB      222             0.0000000000
     27540       222  PMPE      C29            24.7580080469       -5.3306633326       -5.8602956200  MEMB      222             0.0000000000
     27541       222  PMPE      H9R            25.3660669814       -4.4886984773       -6.2548594043  MEMB      222             0.0000000000
     27542       222  PMPE      C217           25.3552439754       -6.2509998339       -4.8101327301  MEMB      222             0.0000000000
     27543       222  PMPE      H17R           26.3901307218       -5.9368500362       -4.7534894966  MEMB      222             0.0000000000
     27544       222  PMPE      H17S           25.0221769680       -7.2572938106       -5.0322304688  MEMB      222             0.0000000000
     27545       222  PMPE      C210           24.3530675239       -5.1751067300       -4.3814144909  MEMB      222             0.0000000000
     27546       222  PMPE      H10R           24.7719725917       -4.2475481859       -3.9359098109  MEMB      222             0.0000000000
     27547       222  PMPE      C211           23.0630358678       -5.7612963894       -3.7153075348  MEMB      222             0.0000000000
     27548       222  PMPE      H11R           23.2730391891       -6.8452394470       -3.8389486444  MEMB      222             0.0000000000
     27549       222  PMPE      H11S           22.0576663613       -5.5233986175       -4.1239120587  MEMB      222             0.0000000000
     27550       222  PMPE      C212           22.9223566651       -5.3741949115       -2.1777036217  MEMB      222             0.0000000000
     27551       222  PMPE      H12R           22.1959381443       -6.0468330016       -1.6735259318  MEMB      222             0.0000000000
     27552       222  PMPE      H12S           22.6696419102       -4.3149117975       -1.9577608191  MEMB      222             0.0000000000
     27553       222  PMPE      C213           24.3013999796       -5.4529539880       -1.4366456247  MEMB      222             0.0000000000
     27554       222  PMPE      H13R           24.8274834816       -4.4786627912       -1.5278265724  MEMB      222             0.0000000000
     27555       222  PMPE      H13S           24.9120757455       -6.2297127551       -1.9446236395  MEMB      222             0.0000000000
     27556       222  PMPE      C214           24.1875703145       -5.8753741897       -0.0260313520  MEMB      222             0.0000000000
     27557       222  PMPE      H14R           25.2257015655       -5.8109736183        0.3644246790  MEMB      222             0.0000000000
     27558       222  PMPE      H14S           23.6783538211       -6.8328127428        0.2154857800  MEMB      222             0.0000000000
     27559       222  PMPE      C215           23.5785121599       -4.7890896591        0.8956149639  MEMB      222             0.0000000000
     27560       222  PMPE      H15R           22.4951234016       -4.6009905357        0.7368408731  MEMB      222             0.0000000000
     27561       222  PMPE      H15S           24.0178494428       -3.7870136425        0.7028769371  MEMB      222             0.0000000000
     27562       222  PMPE      C216           23.9323325313       -5.0299698942        2.4078591850  MEMB      222             0.0000000000
     27563       222  PMPE      H16R           23.6349826548       -4.1116936340        2.9580151021  MEMB      222             0.0000000000
     27564       222  PMPE      H16S           23.2053250685       -5.8030760919        2.7366268006  MEMB      222             0.0000000000
     27565       222  PMPE      H16T           24.8964734948       -5.5525714782        2.5857379972  MEMB      222             0.0000000000
     27566       222  PMPE      C33            16.5868440626       -4.1396499445      -11.5575593243  MEMB      222             0.0000000000
     27567       222  PMPE      H3X            15.5037063929       -4.2699386091      -11.3474192373  MEMB      222             0.0000000000
     27568       222  PMPE      H3Y            16.8475653291       -3.0627801317      -11.6393916917  MEMB      222             0.0000000000
     27569       222  PMPE      C34            17.2056934785       -4.7692082694      -10.3020696149  MEMB      222             0.0000000000
     27570       222  PMPE      H4X            16.9571217372       -5.8427715659      -10.1606656038  MEMB      222             0.0000000000
     27571       222  PMPE      H4Y            16.6726148120       -4.2033884317       -9.5083463316  MEMB      222             0.0000000000
     27572       222  PMPE      C35            18.7190677041       -4.5888458572       -9.9884547662  MEMB      222             0.0000000000
     27573       222  PMPE      H5X            18.9720622465       -3.5421583262      -10.2618776883  MEMB      222             0.0000000000
     27574       222  PMPE      H5Y            19.3751167608       -5.2730658986      -10.5679062581  MEMB      222             0.0000000000
     27575       222  PMPE      C36            19.0131299071       -4.7872496442       -8.4890695275  MEMB      222             0.0000000000
     27576       222  PMPE      H6X            18.2971441785       -4.1893567353       -7.8855726646  MEMB      222             0.0000000000
     27577       222  PMPE      H6Y            20.0395245350       -4.3992577044       -8.3150085199  MEMB      222             0.0000000000
     27578       222  PMPE      C37            18.9389433796       -6.2883408684       -8.0950670992  MEMB      222             0.0000000000
     27579       222  PMPE      H7X            19.4225767752       -7.0124252357       -8.7850826927  MEMB      222             0.0000000000
     27580       222  PMPE      H7Y            17.8670709656       -6.5785088398       -8.0602370517  MEMB      222             0.0000000000
     27581       222  PMPE      C38            19.4694529769       -6.4761058511       -6.6783184829  MEMB      222             0.0000000000
     27582       222  PMPE      H8X            18.9537403123       -5.7922455921       -5.9707195226  MEMB      222             0.0000000000
     27583       222  PMPE      H8Y            20.5578628779       -6.2540671302       -6.6979065333  MEMB      222             0.0000000000
     27584       222  PMPE      C39            19.1318843144       -7.8293888290       -6.0737111568  MEMB      222             0.0000000000
     27585       222  PMPE      H9X            19.4926042806       -8.7709231875       -6.5403101921  MEMB      222             0.0000000000
     27586       222  PMPE      H9Y            18.0329742878       -7.8586357842       -5.9128933123  MEMB      222             0.0000000000
     27587       222  PMPE      C310           19.7906089420       -7.7961110977       -4.6583643275  MEMB      222             0.0000000000
     27588       222  PMPE      H10X           19.5572014231       -6.8232363631       -4.1752941727  MEMB      222             0.0000000000
     27589       222  PMPE      H10Y           20.8908933077       -7.7795080763       -4.8113993665  MEMB      222             0.0000000000
     27590       222  PMPE      C311           19.4532393055       -8.9708423605       -3.8000752542  MEMB      222             0.0000000000
     27591       222  PMPE      H11X           20.0215532978       -9.8385041071       -4.1982004457  MEMB      222             0.0000000000
     27592       222  PMPE      H11Y           18.3588818013       -9.1149117743       -3.9263566734  MEMB      222             0.0000000000
     27593       222  PMPE      C312           20.0327190447       -8.9880199471       -2.3264138648  MEMB      222             0.0000000000
     27594       222  PMPE      H12X           19.4385997445       -9.7817202312       -1.8250315354  MEMB      222             0.0000000000
     27595       222  PMPE      H12Y           19.8092158484       -8.0687249858       -1.7439498212  MEMB      222             0.0000000000
     27596       222  PMPE      C313           21.5054336443       -9.4520457028       -2.2153719106  MEMB      222             0.0000000000
     27597       222  PMPE      H13X           22.1105364804       -8.6759100002       -2.7309143814  MEMB      222             0.0000000000
     27598       222  PMPE      H13Y           21.7808889714      -10.4190257927       -2.6880186300  MEMB      222             0.0000000000
     27599       222  PMPE      C314           22.1507519992       -9.3317159368       -0.8279013904  MEMB      222             0.0000000000
     27600       222  PMPE      H14X           22.0274185487       -8.2747132319       -0.5087538119  MEMB      222             0.0000000000
     27601       222  PMPE      H14Y           23.2572665185       -9.4282774025       -0.8528462679  MEMB      222             0.0000000000
     27602       222  PMPE      C315           21.5387470194      -10.1429966714        0.3009504901  MEMB      222             0.0000000000
     27603       222  PMPE      H15X           20.4522906810      -10.3377181884        0.1743896208  MEMB      222             0.0000000000
     27604       222  PMPE      H15Y           21.5389330445       -9.5557015376        1.2440332799  MEMB      222             0.0000000000
     27605       222  PMPE      C316           22.1780092703      -11.5336669701        0.4533942677  MEMB      222             0.0000000000
     27606       222  PMPE      H16X           22.2526290109      -12.0650012846       -0.5194556531  MEMB      222             0.0000000000
     27607       222  PMPE      H16Y           21.5866760285      -12.1343222827        1.1771768677  MEMB      222             0.0000000000
     27608       222  PMPE      H16Z           23.1825957363      -11.3927805503        0.9064718810  MEMB      222             0.0000000000
     27609       223  PMPE      N              14.9913911857      -15.8337614507      -19.3716515392  MEMB      223             0.0000000000
     27610       223  PMPE      HN1            14.1856399944      -15.2291855752      -19.6302110535  MEMB      223             0.0000000000
     27611       223  PMPE      HN2            15.7435897930      -15.6751902469      -20.0721173963  MEMB      223             0.0000000000
     27612       223  PMPE      HN3            14.5578918963      -16.7788629071      -19.3501635405  MEMB      223             0.0000000000
     27613       223  PMPE      C12            15.6618034290      -15.4858341404      -18.0434946407  MEMB      223             0.0000000000
     27614       223  PMPE      H12A           15.6039189591      -16.3459433169      -17.3426505776  MEMB      223             0.0000000000
     27615       223  PMPE      H12B           14.9765810027      -14.7354137527      -17.5944283831  MEMB      223             0.0000000000
     27616       223  PMPE      C11            17.0383314039      -14.8538739784      -18.1698991822  MEMB      223             0.0000000000
     27617       223  PMPE      H11A           17.6383177105      -15.6795631835      -18.6087327600  MEMB      223             0.0000000000
     27618       223  PMPE      H11B           17.3941449285      -14.6181010792      -17.1441658100  MEMB      223             0.0000000000
     27619       223  PMPE      P              18.5281713889      -13.1729453652      -19.4058224846  MEMB      223             0.0000000000
     27620       223  PMPE      O13            18.3481304435      -12.0558877109      -20.3144085123  MEMB      223             0.0000000000
     27621       223  PMPE      O14            19.4073993303      -14.3162259109      -19.7738965299  MEMB      223             0.0000000000
     27622       223  PMPE      O11            18.8793953370      -12.6401685886      -17.8502363483  MEMB      223             0.0000000000
     27623       223  PMPE      O12            17.0268510811      -13.6774100570      -19.0705907657  MEMB      223             0.0000000000
     27624       223  PMPE      C1             17.8832419940      -11.7987777660      -17.2085129079  MEMB      223             0.0000000000
     27625       223  PMPE      HA             16.8273046651      -12.0818369673      -17.4064899001  MEMB      223             0.0000000000
     27626       223  PMPE      HB             17.9473016559      -10.7814089940      -17.6503026401  MEMB      223             0.0000000000
     27627       223  PMPE      C2             18.0665011672      -11.7702144637      -15.6185053024  MEMB      223             0.0000000000
     27628       223  PMPE      HS             18.9941937959      -11.2097117858      -15.3744888956  MEMB      223             0.0000000000
     27629       223  PMPE      O21            17.8653747923      -13.0946086254      -15.0620150480  MEMB      223             0.0000000000
     27630       223  PMPE      C21            18.9323713653      -13.5099928385      -14.4313317924  MEMB      223             0.0000000000
     27631       223  PMPE      O22            20.0284815051      -13.1388047801      -14.3820817351  MEMB      223             0.0000000000
     27632       223  PMPE      C22            18.4861801169      -14.7955342327      -13.6233537924  MEMB      223             0.0000000000
     27633       223  PMPE      H2R            19.0219178387      -15.7087240744      -13.9600889141  MEMB      223             0.0000000000
     27634       223  PMPE      H2S            17.3795882138      -14.8566739315      -13.5456542186  MEMB      223             0.0000000000
     27635       223  PMPE      C3             17.1508442531      -10.8714318379      -14.7851106082  MEMB      223             0.0000000000
     27636       223  PMPE      HX             16.1020017559      -11.0982533086      -15.0728649253  MEMB      223             0.0000000000
     27637       223  PMPE      HY             17.4535392278       -9.8233563848      -14.9954299300  MEMB      223             0.0000000000
     27638       223  PMPE      O31            17.2881904327      -11.0172406251      -13.3792545437  MEMB      223             0.0000000000
     27639       223  PMPE      C31            16.4075732410      -10.6215779565      -12.5250748388  MEMB      223             0.0000000000
     27640       223  PMPE      O32            15.2453784974      -10.2991426581      -12.7588259364  MEMB      223             0.0000000000
     27641       223  PMPE      C32            17.0980191927      -10.7154119987      -11.1393373862  MEMB      223             0.0000000000
     27642       223  PMPE      H2X            17.9019635321       -9.9509431492      -11.0794859421  MEMB      223             0.0000000000
     27643       223  PMPE      H2Y            17.5861349513      -11.7127967612      -11.1034520630  MEMB      223             0.0000000000
     27644       223  PMPE      C23            18.8992644957      -14.4283190783      -12.1735188178  MEMB      223             0.0000000000
     27645       223  PMPE      H3R            18.2474844863      -13.6305620523      -11.7574809619  MEMB      223             0.0000000000
     27646       223  PMPE      H3S            19.9701618671      -14.2259213752      -11.9577994279  MEMB      223             0.0000000000
     27647       223  PMPE      C24            18.6759186562      -15.7676973222      -11.3272583200  MEMB      223             0.0000000000
     27648       223  PMPE      H4R            19.3330124299      -15.8574644240      -10.4359157583  MEMB      223             0.0000000000
     27649       223  PMPE      H4S            18.9733754678      -16.6599939590      -11.9185678252  MEMB      223             0.0000000000
     27650       223  PMPE      C25            17.2349691552      -15.9076542145      -10.9023150263  MEMB      223             0.0000000000
     27651       223  PMPE      H5R            16.5424116935      -15.7600545280      -11.7584107790  MEMB      223             0.0000000000
     27652       223  PMPE      H5S            17.0507571384      -15.0016807539      -10.2861992962  MEMB      223             0.0000000000
     27653       223  PMPE      C26            16.8719947925      -17.1600128548      -10.1335334062  MEMB      223             0.0000000000
     27654       223  PMPE      H6R            17.5994370343      -17.3271342649       -9.3106005008  MEMB      223             0.0000000000
     27655       223  PMPE      H6S            16.8403722638      -18.0340357798      -10.8186649541  MEMB      223             0.0000000000
     27656       223  PMPE      C27            15.5221127720      -17.1043125858       -9.3737620153  MEMB      223             0.0000000000
     27657       223  PMPE      H7R            14.9684347328      -18.0500855016       -9.1913487731  MEMB      223             0.0000000000
     27658       223  PMPE      H7S            14.7880875248      -16.4867291182       -9.9342253926  MEMB      223             0.0000000000
     27659       223  PMPE      C28            15.7148708923      -16.2961093585       -8.0610597909  MEMB      223             0.0000000000
     27660       223  PMPE      H8R            15.7527069274      -15.2538527277       -8.4439313302  MEMB      223             0.0000000000
     27661       223  PMPE      H8S            16.6907326243      -16.3422976864       -7.5320210762  MEMB      223             0.0000000000
     27662       223  PMPE      C29            14.4577179856      -16.5301027923       -7.2003920707  MEMB      223             0.0000000000
     27663       223  PMPE      H9R            14.3607636337      -17.5445486734       -6.7578761875  MEMB      223             0.0000000000
     27664       223  PMPE      C217           13.2542692009      -15.7837353585       -7.7410814094  MEMB      223             0.0000000000
     27665       223  PMPE      H17R           12.4736964195      -16.5189420215       -7.8929567202  MEMB      223             0.0000000000
     27666       223  PMPE      H17S           13.4984093007      -15.0274036246       -8.4767762013  MEMB      223             0.0000000000
     27667       223  PMPE      C210           13.8641640759      -15.4035904481       -6.3824543856  MEMB      223             0.0000000000
     27668       223  PMPE      H10R           13.1908530233      -15.5815067855       -5.5168222556  MEMB      223             0.0000000000
     27669       223  PMPE      C211           14.6047118858      -14.0833868243       -6.3227677176  MEMB      223             0.0000000000
     27670       223  PMPE      H11R           13.9190932772      -13.3315157179       -5.8767438370  MEMB      223             0.0000000000
     27671       223  PMPE      H11S           14.9818386947      -13.6882865976       -7.2902347450  MEMB      223             0.0000000000
     27672       223  PMPE      C212           15.8024747051      -14.2244383291       -5.3703939319  MEMB      223             0.0000000000
     27673       223  PMPE      H12R           16.0701334115      -13.1506384150       -5.2722430538  MEMB      223             0.0000000000
     27674       223  PMPE      H12S           16.6807973687      -14.6762622869       -5.8790441710  MEMB      223             0.0000000000
     27675       223  PMPE      C213           15.4318720562      -14.7868491936       -3.9831299451  MEMB      223             0.0000000000
     27676       223  PMPE      H13R           16.3430727177      -14.5621320407       -3.3885398555  MEMB      223             0.0000000000
     27677       223  PMPE      H13S           15.3094429940      -15.8910691595       -3.9886434791  MEMB      223             0.0000000000
     27678       223  PMPE      C214           14.1413609147      -14.1704140500       -3.3776748445  MEMB      223             0.0000000000
     27679       223  PMPE      H14R           13.1986774369      -14.2995918241       -3.9512446624  MEMB      223             0.0000000000
     27680       223  PMPE      H14S           14.3188141154      -13.0888296815       -3.1959978411  MEMB      223             0.0000000000
     27681       223  PMPE      C215           13.8999517070      -14.7029018507       -1.9313594773  MEMB      223             0.0000000000
     27682       223  PMPE      H15R           13.9028847005      -15.8136059037       -1.9058866517  MEMB      223             0.0000000000
     27683       223  PMPE      H15S           12.8774093658      -14.3572878937       -1.6681490687  MEMB      223             0.0000000000
     27684       223  PMPE      C216           14.7686987942      -14.2103621511       -0.8148291769  MEMB      223             0.0000000000
     27685       223  PMPE      H16R           15.7918971305      -14.6419179201       -0.8486760157  MEMB      223             0.0000000000
     27686       223  PMPE      H16S           14.8122216536      -13.1051608397       -0.9195017850  MEMB      223             0.0000000000
     27687       223  PMPE      H16T           14.2648328341      -14.3404758247        0.1667574142  MEMB      223             0.0000000000
     27688       223  PMPE      C33            16.0888822164      -10.5084627972      -10.0293379294  MEMB      223             0.0000000000
     27689       223  PMPE      H3X            15.3110021383      -11.3016982276      -10.0283094435  MEMB      223             0.0000000000
     27690       223  PMPE      H3Y            15.5677350875       -9.5288045408      -10.0840772522  MEMB      223             0.0000000000
     27691       223  PMPE      C34            16.7886809978      -10.4564661488       -8.6113140308  MEMB      223             0.0000000000
     27692       223  PMPE      H4X            17.5508969894       -9.6498052094       -8.6627538928  MEMB      223             0.0000000000
     27693       223  PMPE      H4Y            17.3740687788      -11.3800983733       -8.4149836085  MEMB      223             0.0000000000
     27694       223  PMPE      C35            15.7627715177      -10.1149461149       -7.5299237144  MEMB      223             0.0000000000
     27695       223  PMPE      H5X            14.9580028000      -10.8536395373       -7.3274378489  MEMB      223             0.0000000000
     27696       223  PMPE      H5Y            15.1855189936       -9.1884364107       -7.7365157175  MEMB      223             0.0000000000
     27697       223  PMPE      C36            16.3524601303       -9.8156180116       -6.1195984399  MEMB      223             0.0000000000
     27698       223  PMPE      H6X            16.8486753382       -8.8275550717       -6.2283345435  MEMB      223             0.0000000000
     27699       223  PMPE      H6Y            17.1793602889      -10.5050910631       -5.8454015230  MEMB      223             0.0000000000
     27700       223  PMPE      C37            15.3473636577       -9.8072795851       -4.9498414001  MEMB      223             0.0000000000
     27701       223  PMPE      H7X            14.9840032903      -10.8456055673       -4.7943757111  MEMB      223             0.0000000000
     27702       223  PMPE      H7Y            14.4373721130       -9.2775446148       -5.3042656600  MEMB      223             0.0000000000
     27703       223  PMPE      C38            15.9180976620       -9.2779689647       -3.5751094447  MEMB      223             0.0000000000
     27704       223  PMPE      H8X            15.2490913563       -9.3647057822       -2.6923701585  MEMB      223             0.0000000000
     27705       223  PMPE      H8Y            16.0597331316       -8.1790790631       -3.6569728454  MEMB      223             0.0000000000
     27706       223  PMPE      C39            17.2604668860       -9.8986050110       -3.2924465941  MEMB      223             0.0000000000
     27707       223  PMPE      H9X            17.5407804375       -9.5555611303       -2.2735916734  MEMB      223             0.0000000000
     27708       223  PMPE      H9Y            18.0648064804       -9.6600371543       -4.0207623883  MEMB      223             0.0000000000
     27709       223  PMPE      C310           17.2255764221      -11.3960061082       -2.9478392463  MEMB      223             0.0000000000
     27710       223  PMPE      H10X           16.8564310411      -12.0016026721       -3.8030030398  MEMB      223             0.0000000000
     27711       223  PMPE      H10Y           16.7113728722      -11.3996736160       -1.9630037679  MEMB      223             0.0000000000
     27712       223  PMPE      C311           18.6388454490      -11.9340431236       -2.7978907702  MEMB      223             0.0000000000
     27713       223  PMPE      H11X           19.0685414720      -11.5733349790       -1.8389475435  MEMB      223             0.0000000000
     27714       223  PMPE      H11Y           19.2821995178      -11.5370178014       -3.6120082622  MEMB      223             0.0000000000
     27715       223  PMPE      C312           18.6730265702      -13.4481887156       -2.8500913663  MEMB      223             0.0000000000
     27716       223  PMPE      H12X           18.2502632895      -13.9055961032       -3.7700750679  MEMB      223             0.0000000000
     27717       223  PMPE      H12Y           18.1028426744      -13.7874115230       -1.9589469074  MEMB      223             0.0000000000
     27718       223  PMPE      C313           20.0508821978      -14.1233752563       -2.5503800275  MEMB      223             0.0000000000
     27719       223  PMPE      H13X           20.4283628417      -13.7542866074       -1.5728316490  MEMB      223             0.0000000000
     27720       223  PMPE      H13Y           20.7902699648      -13.6640510233       -3.2407775599  MEMB      223             0.0000000000
     27721       223  PMPE      C314           20.0137312893      -15.6595929791       -2.4381960252  MEMB      223             0.0000000000
     27722       223  PMPE      H14X           21.0779476174      -15.9656898139       -2.5280263182  MEMB      223             0.0000000000
     27723       223  PMPE      H14Y           19.3776053308      -16.0557657485       -3.2583855646  MEMB      223             0.0000000000
     27724       223  PMPE      C315           19.3551797925      -16.1617579991       -1.0918240722  MEMB      223             0.0000000000
     27725       223  PMPE      H15X           18.3600622616      -15.6868248014       -0.9558076609  MEMB      223             0.0000000000
     27726       223  PMPE      H15Y           19.9359363903      -15.8868820436       -0.1854654619  MEMB      223             0.0000000000
     27727       223  PMPE      C316           19.1951338021      -17.6583619801       -0.9147675539  MEMB      223             0.0000000000
     27728       223  PMPE      H16X           18.8062485554      -17.8648211388        0.1052626378  MEMB      223             0.0000000000
     27729       223  PMPE      H16Y           20.2250281214      -18.0749263388       -0.9041239636  MEMB      223             0.0000000000
     27730       223  PMPE      H16Z           18.5504734192      -18.0884569387       -1.7108533289  MEMB      223             0.0000000000
     27731       224  POPE      N             -17.2208375749       14.8679699232      -17.9637001983  MEMB      224             0.0000000000
     27732       224  POPE      HN1           -16.5332786131       15.5532090096      -17.5904572967  MEMB      224             0.0000000000
     27733       224  POPE      HN2           -18.0052654817       15.3107943762      -18.4834880279  MEMB      224             0.0000000000
     27734       224  POPE      HN3           -17.5854268366       14.3435723591      -17.1429188750  MEMB      224             0.0000000000
     27735       224  POPE      C12           -16.5311575388       13.8445717123      -18.7850840091  MEMB      224             0.0000000000
     27736       224  POPE      H12A          -15.9544220944       13.1760439701      -18.1107192688  MEMB      224             0.0000000000
     27737       224  POPE      H12B          -15.8596830154       14.4357031214      -19.4438757812  MEMB      224             0.0000000000
     27738       224  POPE      C11           -17.5125813703       12.9079390741      -19.5891865653  MEMB      224             0.0000000000
     27739       224  POPE      H11A          -16.8230284225       12.1534509635      -20.0246006929  MEMB      224             0.0000000000
     27740       224  POPE      H11B          -18.1076918492       13.5314388200      -20.2901948496  MEMB      224             0.0000000000
     27741       224  POPE      P             -19.5763142045       11.5823081785      -19.2176541104  MEMB      224             0.0000000000
     27742       224  POPE      O13           -19.1573937249       10.2818539192      -19.8549123856  MEMB      224             0.0000000000
     27743       224  POPE      O14           -20.5020167560       12.3949515287      -20.0550805782  MEMB      224             0.0000000000
     27744       224  POPE      O11           -20.3379581559       11.1850755067      -17.9081849618  MEMB      224             0.0000000000
     27745       224  POPE      O12           -18.3622396190       12.3702875055      -18.6261971923  MEMB      224             0.0000000000
     27746       224  POPE      C1            -20.7166188492       12.0957680303      -16.8285434192  MEMB      224             0.0000000000
     27747       224  POPE      HA            -21.6064576829       11.5762236521      -16.4131144407  MEMB      224             0.0000000000
     27748       224  POPE      HB            -20.9588620312       13.0933725812      -17.2533073850  MEMB      224             0.0000000000
     27749       224  POPE      C2            -19.6480590223       12.0314100216      -15.7282838759  MEMB      224             0.0000000000
     27750       224  POPE      HS            -18.8993451771       12.8035073999      -16.0068772147  MEMB      224             0.0000000000
     27751       224  POPE      O21           -18.9341987520       10.7778210879      -15.6673309585  MEMB      224             0.0000000000
     27752       224  POPE      C21           -17.6456356805       10.8735365673      -15.2226451841  MEMB      224             0.0000000000
     27753       224  POPE      O22           -17.0546610174       11.8642418612      -14.9008346466  MEMB      224             0.0000000000
     27754       224  POPE      C22           -16.9711757961        9.4273211816      -15.2357549910  MEMB      224             0.0000000000
     27755       224  POPE      H2R           -15.9640347539        9.6041981640      -14.8013560555  MEMB      224             0.0000000000
     27756       224  POPE      H2S           -16.7841652774        9.0245629835      -16.2541525581  MEMB      224             0.0000000000
     27757       224  POPE      C3            -20.2349547264       12.4352238494      -14.4123507891  MEMB      224             0.0000000000
     27758       224  POPE      HX            -20.6274457929       13.4726798779      -14.4752526156  MEMB      224             0.0000000000
     27759       224  POPE      HY            -19.3391347312       12.4108574612      -13.7556668446  MEMB      224             0.0000000000
     27760       224  POPE      O31           -21.1329244901       11.4411792357      -13.8333581221  MEMB      224             0.0000000000
     27761       224  POPE      C31           -22.4072949590       11.8443394153      -13.6989148831  MEMB      224             0.0000000000
     27762       224  POPE      O32           -22.9847760746       12.8364322715      -14.1451666433  MEMB      224             0.0000000000
     27763       224  POPE      C32           -22.9778938916       10.8653540693      -12.6934358383  MEMB      224             0.0000000000
     27764       224  POPE      H2X           -22.5928305410       11.1094453986      -11.6802893149  MEMB      224             0.0000000000
     27765       224  POPE      H2Y           -22.6711421211        9.8487656250      -13.0201961917  MEMB      224             0.0000000000
     27766       224  POPE      C23           -17.6905089286        8.4077120220      -14.3326638187  MEMB      224             0.0000000000
     27767       224  POPE      H3R           -17.2809902400        7.3815746486      -14.4495292616  MEMB      224             0.0000000000
     27768       224  POPE      H3S           -18.7795381006        8.3357174639      -14.5403977162  MEMB      224             0.0000000000
     27769       224  POPE      C24           -17.4630037736        8.5392220720      -12.7856881770  MEMB      224             0.0000000000
     27770       224  POPE      H4R           -16.8650773379        9.4709550133      -12.6925282304  MEMB      224             0.0000000000
     27771       224  POPE      H4S           -16.9988950741        7.6127515210      -12.3849683238  MEMB      224             0.0000000000
     27772       224  POPE      C25           -18.7342866419        8.7479047020      -11.9269020408  MEMB      224             0.0000000000
     27773       224  POPE      H5R           -19.3293319191        9.6681200828      -12.1097840727  MEMB      224             0.0000000000
     27774       224  POPE      H5S           -18.3008415826        8.7536990762      -10.9039589488  MEMB      224             0.0000000000
     27775       224  POPE      C26           -19.6807964495        7.4913066635      -11.9521014530  MEMB      224             0.0000000000
     27776       224  POPE      H6R           -18.9891025132        6.6717387137      -11.6619486541  MEMB      224             0.0000000000
     27777       224  POPE      H6S           -20.0599697444        7.3247054547      -12.9830195161  MEMB      224             0.0000000000
     27778       224  POPE      C27           -20.7668991272        7.4420988461      -10.9100477289  MEMB      224             0.0000000000
     27779       224  POPE      H7R           -21.6101545424        6.8376331538      -11.3073663845  MEMB      224             0.0000000000
     27780       224  POPE      H7S           -21.0787582874        8.4959027742      -10.7470678125  MEMB      224             0.0000000000
     27781       224  POPE      C28           -20.3681805537        6.9489406054       -9.5049921905  MEMB      224             0.0000000000
     27782       224  POPE      H8R           -19.4546242033        7.5088424300       -9.2113162925  MEMB      224             0.0000000000
     27783       224  POPE      H8S           -19.9249648027        5.9303681425       -9.5247679545  MEMB      224             0.0000000000
     27784       224  POPE      C29           -21.5126939718        6.9553175798       -8.5330040289  MEMB      224             0.0000000000
     27785       224  POPE      H91           -21.9080884894        5.9705445625       -8.2433739948  MEMB      224             0.0000000000
     27786       224  POPE      C210          -21.8963449744        8.0402736088       -7.8315128051  MEMB      224             0.0000000000
     27787       224  POPE      H101          -22.6664748135        8.0435535767       -7.0460891105  MEMB      224             0.0000000000
     27788       224  POPE      C211          -21.2279970302        9.3984181107       -7.9383817444  MEMB      224             0.0000000000
     27789       224  POPE      H11R          -21.9588350115       10.2249332101       -8.0690321419  MEMB      224             0.0000000000
     27790       224  POPE      H11S          -20.5996437142        9.4761555373       -8.8513167957  MEMB      224             0.0000000000
     27791       224  POPE      C212          -20.4122825542        9.6398006783       -6.6291779573  MEMB      224             0.0000000000
     27792       224  POPE      H12R          -19.5709551894        8.9349855599       -6.4567689903  MEMB      224             0.0000000000
     27793       224  POPE      H12S          -21.2025762577        9.5996716109       -5.8493404811  MEMB      224             0.0000000000
     27794       224  POPE      C213          -19.7345825243       10.9974569791       -6.6755373583  MEMB      224             0.0000000000
     27795       224  POPE      H13R          -20.5716874128       11.6856149578       -6.9205170447  MEMB      224             0.0000000000
     27796       224  POPE      H13S          -19.0226932288       11.1249714784       -7.5189080288  MEMB      224             0.0000000000
     27797       224  POPE      C214          -19.0144024531       11.3535165524       -5.4140349783  MEMB      224             0.0000000000
     27798       224  POPE      H14R          -18.6353709437       12.3839113024       -5.5841598989  MEMB      224             0.0000000000
     27799       224  POPE      H14S          -18.1530271463       10.6526425433       -5.4476354798  MEMB      224             0.0000000000
     27800       224  POPE      C215          -19.7610192253       11.2303631286       -4.0784962154  MEMB      224             0.0000000000
     27801       224  POPE      H15R          -20.1439712317       10.2120298237       -3.8534051618  MEMB      224             0.0000000000
     27802       224  POPE      H15S          -20.7317817680       11.7681532353       -4.1306776557  MEMB      224             0.0000000000
     27803       224  POPE      C216          -18.8612107045       11.7633412582       -2.9400430489  MEMB      224             0.0000000000
     27804       224  POPE      H16R          -18.6404886454       12.8396062753       -3.1051376655  MEMB      224             0.0000000000
     27805       224  POPE      H16S          -17.9247993696       11.1656049722       -2.9529204978  MEMB      224             0.0000000000
     27806       224  POPE      C217          -19.5877159293       11.6438054487       -1.6061308623  MEMB      224             0.0000000000
     27807       224  POPE      H17R          -18.8406283771       12.0354226021       -0.8830701552  MEMB      224             0.0000000000
     27808       224  POPE      H17S          -19.7044541330       10.5786194806       -1.3127505123  MEMB      224             0.0000000000
     27809       224  POPE      C218          -20.8345029732       12.4873899212       -1.4963037273  MEMB      224             0.0000000000
     27810       224  POPE      H18R          -21.2978379900       12.2864568959       -0.5067255382  MEMB      224             0.0000000000
     27811       224  POPE      H18S          -21.5413554484       12.1396180592       -2.2797172359  MEMB      224             0.0000000000
     27812       224  POPE      H18T          -20.6594374297       13.5820034927       -1.5704310374  MEMB      224             0.0000000000
     27813       224  POPE      C33           -24.5209074674       11.0745458999      -12.6794896841  MEMB      224             0.0000000000
     27814       224  POPE      H3X           -25.0138053172       10.8116912053      -13.6398440124  MEMB      224             0.0000000000
     27815       224  POPE      H3Y           -24.7797864223       12.1355880620      -12.4757926917  MEMB      224             0.0000000000
     27816       224  POPE      C34           -25.1867912058       10.2954641756      -11.5652135315  MEMB      224             0.0000000000
     27817       224  POPE      H4X           -25.0589272174        9.2017850937      -11.7129903660  MEMB      224             0.0000000000
     27818       224  POPE      H4Y           -26.2957320944       10.3621268959      -11.5765087564  MEMB      224             0.0000000000
     27819       224  POPE      C35           -24.5958380944       10.5432834458      -10.1718898835  MEMB      224             0.0000000000
     27820       224  POPE      H5X           -23.5006495805       10.3569744705      -10.1849988901  MEMB      224             0.0000000000
     27821       224  POPE      H5Y           -25.0088299853        9.7099723317       -9.5641470211  MEMB      224             0.0000000000
     27822       224  POPE      C36           -24.9102986294       11.9106553417       -9.5660807139  MEMB      224             0.0000000000
     27823       224  POPE      H6X           -25.9952262238       12.0469442786       -9.3694117018  MEMB      224             0.0000000000
     27824       224  POPE      H6Y           -24.5019387358       12.6407260076      -10.2972160382  MEMB      224             0.0000000000
     27825       224  POPE      C37           -24.2409952930       12.2875336336       -8.2275761276  MEMB      224             0.0000000000
     27826       224  POPE      H7X           -24.2714631149       13.3866039803       -8.0680856377  MEMB      224             0.0000000000
     27827       224  POPE      H7Y           -23.2054086633       11.8948916946       -8.1397478051  MEMB      224             0.0000000000
     27828       224  POPE      C38           -24.8731789461       11.6433577235       -7.0178525825  MEMB      224             0.0000000000
     27829       224  POPE      H8X           -24.7308581159       10.5427443338       -7.0699647350  MEMB      224             0.0000000000
     27830       224  POPE      H8Y           -25.9682132493       11.8278487742       -7.0522630958  MEMB      224             0.0000000000
     27831       224  POPE      C39           -24.3938639282       12.1804381805       -5.7115658612  MEMB      224             0.0000000000
     27832       224  POPE      H9X           -24.6332141767       13.2652914243       -5.7227773165  MEMB      224             0.0000000000
     27833       224  POPE      H9Y           -23.2833064061       12.1663690514       -5.6835472215  MEMB      224             0.0000000000
     27834       224  POPE      C310          -25.1121684638       11.6303094604       -4.4833208219  MEMB      224             0.0000000000
     27835       224  POPE      H10X          -26.2124235110       11.6573161059       -4.3315622339  MEMB      224             0.0000000000
     27836       224  POPE      H10Y          -24.7321307111       12.2060141258       -3.6124266356  MEMB      224             0.0000000000
     27837       224  POPE      C311          -24.4743058476       10.2488505012       -4.2060223768  MEMB      224             0.0000000000
     27838       224  POPE      H11X          -23.4102037704       10.1488369110       -4.5093462458  MEMB      224             0.0000000000
     27839       224  POPE      H11Y          -24.9112650801        9.5058310031       -4.9069573888  MEMB      224             0.0000000000
     27840       224  POPE      C312          -24.5161944131        9.9095369273       -2.7217885777  MEMB      224             0.0000000000
     27841       224  POPE      H12X          -25.5220800349       10.1057071983       -2.2927962874  MEMB      224             0.0000000000
     27842       224  POPE      H12Y          -23.8152460403       10.6331237875       -2.2533715034  MEMB      224             0.0000000000
     27843       224  POPE      C313          -24.0167663454        8.5148165955       -2.4583955980  MEMB      224             0.0000000000
     27844       224  POPE      H13X          -24.4949770889        7.7868668372       -3.1481243714  MEMB      224             0.0000000000
     27845       224  POPE      H13Y          -24.3998125741        8.0538755634       -1.5229131228  MEMB      224             0.0000000000
     27846       224  POPE      C314          -22.5637643783        8.2551078741       -2.5470682846  MEMB      224             0.0000000000
     27847       224  POPE      H14X          -21.9124410510        8.7824104803       -1.8176498408  MEMB      224             0.0000000000
     27848       224  POPE      H14Y          -22.2091580285        8.4730876386       -3.5771450995  MEMB      224             0.0000000000
     27849       224  POPE      C315          -22.2809717306        6.7857409263       -2.1575562704  MEMB      224             0.0000000000
     27850       224  POPE      H15X          -22.7670917099        6.1209639563       -2.9032650361  MEMB      224             0.0000000000
     27851       224  POPE      H15Y          -22.8172399199        6.5312925574       -1.2184121299  MEMB      224             0.0000000000
     27852       224  POPE      C316          -20.7851266408        6.5031555981       -1.9889872286  MEMB      224             0.0000000000
     27853       224  POPE      H16X          -20.3715023978        7.3159759330       -1.3545124821  MEMB      224             0.0000000000
     27854       224  POPE      H16Y          -20.3446590281        6.5090800053       -3.0089249663  MEMB      224             0.0000000000
     27855       224  POPE      H16Z          -20.6576207481        5.4786342191       -1.5785987400  MEMB      224             0.0000000000
     27856       225  PVCL2     C3             16.6288477413       17.0075361344      -18.1828563912  MEMB      225             0.0000000000
     27857       225  PVCL2     HG31           17.0908705861       17.0467227474      -17.1732424640  MEMB      225             0.0000000000
     27858       225  PVCL2     HG32           15.9040230644       16.2112123731      -18.4563865525  MEMB      225             0.0000000000
     27859       225  PVCL2     P3             19.1321610275       16.2196363936      -18.4042347692  MEMB      225             0.0000000000
     27860       225  PVCL2     OP33           19.5111674366       17.0038069721      -17.1573831669  MEMB      225             0.0000000000
     27861       225  PVCL2     OP34           20.1826445676       16.1472539548      -19.4370802456  MEMB      225             0.0000000000
     27862       225  PVCL2     OP31           17.7286215472       16.6922897052      -19.1141270116  MEMB      225             0.0000000000
     27863       225  PVCL2     OP32           18.9833103601       14.7388828703      -17.9316788217  MEMB      225             0.0000000000
     27864       225  PVCL2     C31            18.6651073562       13.7575945045      -18.9022273470  MEMB      225             0.0000000000
     27865       225  PVCL2     H31J           18.0507389204       14.1595807222      -19.7360616223  MEMB      225             0.0000000000
     27866       225  PVCL2     H31K           19.5480795009       13.3014588810      -19.3988374716  MEMB      225             0.0000000000
     27867       225  PVCL2     C2             16.0130924640       18.4386013320      -18.5704754543  MEMB      225             0.0000000000
     27868       225  PVCL2     HG22           15.3999006887       18.7284285186      -17.6905226213  MEMB      225             0.0000000000
     27869       225  PVCL2     OG12           16.9957386615       19.4351571690      -18.8415453020  MEMB      225             0.0000000000
     27870       225  PVCL2     HO12           17.2452329652       19.2740524137      -19.7544516228  MEMB      225             0.0000000000
     27871       225  PVCL2     C1             15.0205571828       18.4734949360      -19.7356449520  MEMB      225             0.0000000000
     27872       225  PVCL2     HG11           15.5311603453       18.1815163825      -20.6781703118  MEMB      225             0.0000000000
     27873       225  PVCL2     HG12           14.5577428041       19.4820036130      -19.7907236875  MEMB      225             0.0000000000
     27874       225  PVCL2     P1             13.2674620176       16.6410411694      -20.4672769385  MEMB      225             0.0000000000
     27875       225  PVCL2     OP13           13.3666058548       17.0734412986      -21.8572015187  MEMB      225             0.0000000000
     27876       225  PVCL2     OP14           13.7289897033       15.2381275819      -20.0960380730  MEMB      225             0.0000000000
     27877       225  PVCL2     OP11           13.9629170736       17.6273856373      -19.5062014808  MEMB      225             0.0000000000
     27878       225  PVCL2     OP12           11.6865738580       16.7498120894      -20.0818808824  MEMB      225             0.0000000000
     27879       225  PVCL2     C11            11.1722356165       18.0091925289      -19.6692419888  MEMB      225             0.0000000000
     27880       225  PVCL2     H11J           10.3386945827       18.2417160423      -20.3659940601  MEMB      225             0.0000000000
     27881       225  PVCL2     H11K           11.8312527496       18.8930014505      -19.8067162834  MEMB      225             0.0000000000
     27882       225  PVCL2     C12            10.7588438381       17.9677940335      -18.1980854499  MEMB      225             0.0000000000
     27883       225  PVCL2     H12J           10.5690976091       19.0365476281      -17.9612662647  MEMB      225             0.0000000000
     27884       225  PVCL2     O12            11.7747971196       17.3244885308      -17.4145747839  MEMB      225             0.0000000000
     27885       225  PVCL2     CA1            12.5581257820       18.1252135784      -16.6129745464  MEMB      225             0.0000000000
     27886       225  PVCL2     OA1            12.5237851304       19.3272975693      -16.5701735377  MEMB      225             0.0000000000
     27887       225  PVCL2     CA2            13.4412443989       17.2782084570      -15.7740254965  MEMB      225             0.0000000000
     27888       225  PVCL2     H2A            14.4474210468       17.0808156372      -16.2017705200  MEMB      225             0.0000000000
     27889       225  PVCL2     H2B            13.0346669396       16.2622011841      -15.5823355771  MEMB      225             0.0000000000
     27890       225  PVCL2     C13             9.5099177320       17.0949652954      -18.0225131850  MEMB      225             0.0000000000
     27891       225  PVCL2     H13J            9.7406015522       16.0886735210      -18.4329799030  MEMB      225             0.0000000000
     27892       225  PVCL2     H13K            8.6041394446       17.4575708662      -18.5539296978  MEMB      225             0.0000000000
     27893       225  PVCL2     O13             9.2890585009       16.9936741019      -16.5459746862  MEMB      225             0.0000000000
     27894       225  PVCL2     CB1             8.4571821502       15.9936672125      -16.1778983951  MEMB      225             0.0000000000
     27895       225  PVCL2     OB1             7.8445022082       15.3356977642      -16.9933400697  MEMB      225             0.0000000000
     27896       225  PVCL2     CB2             8.7062731655       15.8328563619      -14.6214029065  MEMB      225             0.0000000000
     27897       225  PVCL2     H2D             7.7226228424       15.6301949434      -14.1463430702  MEMB      225             0.0000000000
     27898       225  PVCL2     H2E             9.0192524578       16.8097107788      -14.1946474096  MEMB      225             0.0000000000
     27899       225  PVCL2     C32            17.8673457191       12.6409279073      -18.3583956597  MEMB      225             0.0000000000
     27900       225  PVCL2     H32J           17.6285350075       11.9865926637      -19.2239218555  MEMB      225             0.0000000000
     27901       225  PVCL2     O32            16.6851981202       13.2734918698      -17.8392058409  MEMB      225             0.0000000000
     27902       225  PVCL2     CC1            15.5969122125       12.4983979117      -17.5974368519  MEMB      225             0.0000000000
     27903       225  PVCL2     OC1            15.4072436713       11.3508998338      -17.9482952643  MEMB      225             0.0000000000
     27904       225  PVCL2     CC2            14.4488223333       13.4922824650      -17.2057125210  MEMB      225             0.0000000000
     27905       225  PVCL2     H2R            13.7632848090       13.7211180253      -18.0495098384  MEMB      225             0.0000000000
     27906       225  PVCL2     H2S            14.9526529387       14.4247621536      -16.8726098948  MEMB      225             0.0000000000
     27907       225  PVCL2     C33            18.6216859334       11.8227781539      -17.2259579625  MEMB      225             0.0000000000
     27908       225  PVCL2     H33J           17.8762104701       11.1580433214      -16.7394244824  MEMB      225             0.0000000000
     27909       225  PVCL2     H33K           19.4351649245       11.1897915275      -17.6405680588  MEMB      225             0.0000000000
     27910       225  PVCL2     O33            19.2178442345       12.7675185319      -16.2963083334  MEMB      225             0.0000000000
     27911       225  PVCL2     CD1            18.4147086083       13.1451794997      -15.2693356697  MEMB      225             0.0000000000
     27912       225  PVCL2     OD1            17.3065714971       12.6222981834      -15.0275619333  MEMB      225             0.0000000000
     27913       225  PVCL2     CD2            18.9491503312       14.4469448778      -14.5353794131  MEMB      225             0.0000000000
     27914       225  PVCL2     H2X            18.6734095529       15.3775907795      -15.0759220886  MEMB      225             0.0000000000
     27915       225  PVCL2     H2Y            20.0476810026       14.4682231910      -14.3707640170  MEMB      225             0.0000000000
     27916       225  PVCL2     CA3            13.6406832985       17.8732187151      -14.3069406866  MEMB      225             0.0000000000
     27917       225  PVCL2     H3A            13.7149334980       18.9813643041      -14.2782856649  MEMB      225             0.0000000000
     27918       225  PVCL2     H3B            14.6552901789       17.5625716269      -13.9777107165  MEMB      225             0.0000000000
     27919       225  PVCL2     CA4            12.5258129422       17.4206036254      -13.3389140766  MEMB      225             0.0000000000
     27920       225  PVCL2     H4A            12.2082213545       16.3622786720      -13.4546929808  MEMB      225             0.0000000000
     27921       225  PVCL2     H4B            11.6832475703       18.1259507446      -13.5028961578  MEMB      225             0.0000000000
     27922       225  PVCL2     CA5            12.7572008932       17.6339531270      -11.7849984107  MEMB      225             0.0000000000
     27923       225  PVCL2     H5A            12.9481464934       18.7075268443      -11.5721593773  MEMB      225             0.0000000000
     27924       225  PVCL2     H5B            13.6630365295       17.0496827201      -11.5159057744  MEMB      225             0.0000000000
     27925       225  PVCL2     CA6            11.6083874079       17.0635235553      -11.0059843451  MEMB      225             0.0000000000
     27926       225  PVCL2     H6A            11.0918202008       16.1567992325      -11.3872064772  MEMB      225             0.0000000000
     27927       225  PVCL2     H6B            10.7858909595       17.8103921074      -11.0088135086  MEMB      225             0.0000000000
     27928       225  PVCL2     CA7            12.0580023854       16.7724798151       -9.5735355352  MEMB      225             0.0000000000
     27929       225  PVCL2     H7A            13.1100821071       16.4209523573       -9.6358076243  MEMB      225             0.0000000000
     27930       225  PVCL2     H7B            11.4977899670       15.9949858510       -9.0114094258  MEMB      225             0.0000000000
     27931       225  PVCL2     CA8            12.0126147800       18.0328062405       -8.7266511724  MEMB      225             0.0000000000
     27932       225  PVCL2     H8A            12.7059767330       18.8051127028       -9.1230255672  MEMB      225             0.0000000000
     27933       225  PVCL2     H8B            12.5026013842       17.7268917895       -7.7776243891  MEMB      225             0.0000000000
     27934       225  PVCL2     CA9            10.7321347390       18.6613688940       -8.2362626958  MEMB      225             0.0000000000
     27935       225  PVCL2     H9A             9.9655923487       18.6851672789       -9.0401084454  MEMB      225             0.0000000000
     27936       225  PVCL2     H9B            10.7997302895       19.7475066096       -8.0125290818  MEMB      225             0.0000000000
     27937       225  PVCL2     CA10            9.9315303134       17.8800140061       -7.0680804710  MEMB      225             0.0000000000
     27938       225  PVCL2     H10A            9.0870843868       18.5499828052       -6.7990557764  MEMB      225             0.0000000000
     27939       225  PVCL2     H10B           10.6159715163       17.7968601663       -6.1969046189  MEMB      225             0.0000000000
     27940       225  PVCL2     CA11            9.2690745491       16.6117442532       -7.4616945172  MEMB      225             0.0000000000
     27941       225  PVCL2     H11A            9.4201435552       16.3819511627       -8.5267635743  MEMB      225             0.0000000000
     27942       225  PVCL2     CA12            8.7543688526       15.6899951150       -6.6455320487  MEMB      225             0.0000000000
     27943       225  PVCL2     H12A            8.2248641999       14.8143566750       -7.0491186545  MEMB      225             0.0000000000
     27944       225  PVCL2     CA13            8.7732709680       15.7986458127       -5.1252666939  MEMB      225             0.0000000000
     27945       225  PVCL2     H13A            8.6379314685       16.8504874182       -4.7941573616  MEMB      225             0.0000000000
     27946       225  PVCL2     H13B            9.7903510698       15.4826156828       -4.8090483154  MEMB      225             0.0000000000
     27947       225  PVCL2     CA14            7.6854500529       15.0741396892       -4.3630048451  MEMB      225             0.0000000000
     27948       225  PVCL2     H14A            7.7443937014       14.0435896800       -4.7738734688  MEMB      225             0.0000000000
     27949       225  PVCL2     H14B            6.7447039207       15.5974761704       -4.6376621614  MEMB      225             0.0000000000
     27950       225  PVCL2     CA15            7.8242368712       15.1196862160       -2.7886261633  MEMB      225             0.0000000000
     27951       225  PVCL2     H15A            7.0791526310       14.4314995166       -2.3352298480  MEMB      225             0.0000000000
     27952       225  PVCL2     H15B            7.6116468858       16.1801884875       -2.5347341353  MEMB      225             0.0000000000
     27953       225  PVCL2     CA16            9.2598505371       14.8099541320       -2.2005111437  MEMB      225             0.0000000000
     27954       225  PVCL2     H16A            9.1846751283       14.8720926528       -1.0938015153  MEMB      225             0.0000000000
     27955       225  PVCL2     H16B            9.9444941769       15.6398904402       -2.4776204529  MEMB      225             0.0000000000
     27956       225  PVCL2     CA17            9.8578567836       13.4334722453       -2.5126849593  MEMB      225             0.0000000000
     27957       225  PVCL2     H17A           10.8058156833       13.3428821038       -1.9404195389  MEMB      225             0.0000000000
     27958       225  PVCL2     H17B           10.1676712664       13.5162343973       -3.5763985671  MEMB      225             0.0000000000
     27959       225  PVCL2     CA18            8.8494239369       12.2742322704       -2.3299285924  MEMB      225             0.0000000000
     27960       225  PVCL2     H18A            9.3613848860       11.3968708702       -2.7798782144  MEMB      225             0.0000000000
     27961       225  PVCL2     H18B            7.8343619608       12.4054027982       -2.7620916545  MEMB      225             0.0000000000
     27962       225  PVCL2     H18C            8.7471613910       12.0970680940       -1.2379244896  MEMB      225             0.0000000000
     27963       225  PVCL2     CB3             9.6893346426       14.7632861405      -14.3485978594  MEMB      225             0.0000000000
     27964       225  PVCL2     H3D             9.9990888993       14.8994843992      -13.2903806747  MEMB      225             0.0000000000
     27965       225  PVCL2     H3E            10.6516034796       14.9584184376      -14.8684859914  MEMB      225             0.0000000000
     27966       225  PVCL2     CB4             9.2838660713       13.3057100038      -14.4709910547  MEMB      225             0.0000000000
     27967       225  PVCL2     H4D             9.8979829058       12.6239850925      -13.8445467964  MEMB      225             0.0000000000
     27968       225  PVCL2     H4E             9.3005430591       13.0858769857      -15.5598974376  MEMB      225             0.0000000000
     27969       225  PVCL2     CB5             7.8779615205       13.0042997231      -13.9615558895  MEMB      225             0.0000000000
     27970       225  PVCL2     H5D             7.5210981891       11.9888557470      -14.2369534525  MEMB      225             0.0000000000
     27971       225  PVCL2     H5E             7.1549183758       13.6148568242      -14.5435779838  MEMB      225             0.0000000000
     27972       225  PVCL2     CB6             7.8153409399       13.2932960799      -12.4009324870  MEMB      225             0.0000000000
     27973       225  PVCL2     H6D             6.7411494623       13.2910999446      -12.1173325960  MEMB      225             0.0000000000
     27974       225  PVCL2     H6E             8.2763367567       14.3031769117      -12.3568349572  MEMB      225             0.0000000000
     27975       225  PVCL2     CB7             8.6281484735       12.3417501353      -11.5373523692  MEMB      225             0.0000000000
     27976       225  PVCL2     H7D             9.7155785686       12.3911853094      -11.7595506399  MEMB      225             0.0000000000
     27977       225  PVCL2     H7E             8.1905873819       11.3872230561      -11.9003120897  MEMB      225             0.0000000000
     27978       225  PVCL2     CB8             8.4343107449       12.6224681590      -10.0545867988  MEMB      225             0.0000000000
     27979       225  PVCL2     H8D             7.3911878308       12.6956858527       -9.6792801659  MEMB      225             0.0000000000
     27980       225  PVCL2     H8E             8.8278955847       13.6129036904       -9.7408202805  MEMB      225             0.0000000000
     27981       225  PVCL2     CB9             9.2564528934       11.7219827539       -9.1322798709  MEMB      225             0.0000000000
     27982       225  PVCL2     H9D            10.3241716981       11.7543089651       -9.4376536489  MEMB      225             0.0000000000
     27983       225  PVCL2     H9E             8.9259982273       10.6614672306       -9.1529545237  MEMB      225             0.0000000000
     27984       225  PVCL2     CB10            9.1966104558       12.1428089979       -7.6244726731  MEMB      225             0.0000000000
     27985       225  PVCL2     H10D            8.1388326222       12.2350516637       -7.2974886765  MEMB      225             0.0000000000
     27986       225  PVCL2     H10E            9.6571193315       13.1495477634       -7.5310407831  MEMB      225             0.0000000000
     27987       225  PVCL2     CB11            9.8466615712       11.1630500923       -6.6037017558  MEMB      225             0.0000000000
     27988       225  PVCL2     H11D            9.2104240029       10.2523659838       -6.5903559000  MEMB      225             0.0000000000
     27989       225  PVCL2     H11E            9.8136286917       11.5990528533       -5.5823632169  MEMB      225             0.0000000000
     27990       225  PVCL2     CB12           11.2708473505       10.8723808834       -6.9559845817  MEMB      225             0.0000000000
     27991       225  PVCL2     H12D           11.9142256659       11.7673288092       -7.0954600645  MEMB      225             0.0000000000
     27992       225  PVCL2     H12E           11.4443848457       10.2462667420       -7.8571982870  MEMB      225             0.0000000000
     27993       225  PVCL2     CB13           11.9776936593       10.0323806407       -5.8339988435  MEMB      225             0.0000000000
     27994       225  PVCL2     H13D           12.8862234582        9.6698860337       -6.3607740063  MEMB      225             0.0000000000
     27995       225  PVCL2     H13E           11.3125985852        9.1601093827       -5.6576129226  MEMB      225             0.0000000000
     27996       225  PVCL2     CB14           12.4564638877       10.7495452638       -4.6101938339  MEMB      225             0.0000000000
     27997       225  PVCL2     H14D           11.7181699330       11.2020727232       -3.9141609363  MEMB      225             0.0000000000
     27998       225  PVCL2     H14E           13.0989123937       11.5124216155       -5.0996843924  MEMB      225             0.0000000000
     27999       225  PVCL2     CB15           13.4172950647        9.8242766140       -3.8350156043  MEMB      225             0.0000000000
     28000       225  PVCL2     H15D           14.2383809838        9.4839250191       -4.5015740127  MEMB      225             0.0000000000
     28001       225  PVCL2     H15E           12.8495590184        8.9065555493       -3.5708469208  MEMB      225             0.0000000000
     28002       225  PVCL2     CB16           13.9605193850       10.3919342638       -2.5175281308  MEMB      225             0.0000000000
     28003       225  PVCL2     H16D           14.7097426619        9.6759342205       -2.1171160962  MEMB      225             0.0000000000
     28004       225  PVCL2     H16E           13.1148074901       10.5273091466       -1.8098793434  MEMB      225             0.0000000000
     28005       225  PVCL2     H16F           14.3845415001       11.3853036685       -2.7778043778  MEMB      225             0.0000000000
     28006       225  PVCL2     CC3            13.6700761370       12.8580840808      -15.9900661774  MEMB      225             0.0000000000
     28007       225  PVCL2     H3R            13.8326553625       11.7604011209      -15.9354662758  MEMB      225             0.0000000000
     28008       225  PVCL2     H3S            12.5964336865       13.0632683395      -16.1888426593  MEMB      225             0.0000000000
     28009       225  PVCL2     CC4            13.8022596109       13.4311090401      -14.5890058894  MEMB      225             0.0000000000
     28010       225  PVCL2     H4R            13.4355232922       14.4726389832      -14.4663642531  MEMB      225             0.0000000000
     28011       225  PVCL2     H4S            14.8839307176       13.6385264815      -14.4431068744  MEMB      225             0.0000000000
     28012       225  PVCL2     CC5            13.3044559449       12.5601386659      -13.4495170919  MEMB      225             0.0000000000
     28013       225  PVCL2     H5R            13.5696468969       11.4917939623      -13.5999617404  MEMB      225             0.0000000000
     28014       225  PVCL2     H5S            12.1951523405       12.5056779970      -13.4212234620  MEMB      225             0.0000000000
     28015       225  PVCL2     CC6            13.9204801494       12.9016679693      -12.1125551390  MEMB      225             0.0000000000
     28016       225  PVCL2     H6R            13.8693368871       14.0089170016      -12.0370234664  MEMB      225             0.0000000000
     28017       225  PVCL2     H6S            15.0142492060       12.7767834711      -12.2622013179  MEMB      225             0.0000000000
     28018       225  PVCL2     CC7            13.3001040894       12.1347000101      -11.0321168444  MEMB      225             0.0000000000
     28019       225  PVCL2     H7R            13.0907058718       11.0729114939      -11.2832708067  MEMB      225             0.0000000000
     28020       225  PVCL2     H7S            12.2896260908       12.5499092483      -10.8299865958  MEMB      225             0.0000000000
     28021       225  PVCL2     CC8            14.1851530507       12.0756985478       -9.7388635899  MEMB      225             0.0000000000
     28022       225  PVCL2     H8R            15.1415040756       11.5436807807       -9.9303613705  MEMB      225             0.0000000000
     28023       225  PVCL2     H8S            13.6229610458       11.3679047301       -9.0928843222  MEMB      225             0.0000000000
     28024       225  PVCL2     CC9            14.5219897393       13.3856221716       -8.9407864422  MEMB      225             0.0000000000
     28025       225  PVCL2     H9R            13.6927675863       14.0674099117       -8.6546456927  MEMB      225             0.0000000000
     28026       225  PVCL2     H9S            15.1114796825       14.0435761157       -9.6145217011  MEMB      225             0.0000000000
     28027       225  PVCL2     CC10           15.3069720235       13.0993034998       -7.6703524285  MEMB      225             0.0000000000
     28028       225  PVCL2     H10R           16.1445012115       12.4099543114       -7.9104846639  MEMB      225             0.0000000000
     28029       225  PVCL2     H10S           14.6793908595       12.4945823471       -6.9813122690  MEMB      225             0.0000000000
     28030       225  PVCL2     CC11           15.8889710811       14.3449410971       -6.9933729237  MEMB      225             0.0000000000
     28031       225  PVCL2     H11R           16.9128613334       14.5661616593       -7.3290967965  MEMB      225             0.0000000000
     28032       225  PVCL2     CC12           15.1478178753       15.1774740818       -6.1555995592  MEMB      225             0.0000000000
     28033       225  PVCL2     H12R           15.6789457306       15.9651550732       -5.6011074249  MEMB      225             0.0000000000
     28034       225  PVCL2     CC13           13.6967529969       14.9945120764       -5.7247677857  MEMB      225             0.0000000000
     28035       225  PVCL2     H13R           13.2088852336       14.1578405524       -6.2690895033  MEMB      225             0.0000000000
     28036       225  PVCL2     H13S           13.0502621804       15.8735639852       -5.9336654761  MEMB      225             0.0000000000
     28037       225  PVCL2     CC14           13.5528192449       14.7216595538       -4.3085360401  MEMB      225             0.0000000000
     28038       225  PVCL2     H14R           13.8062214775       13.6570274895       -4.1170497101  MEMB      225             0.0000000000
     28039       225  PVCL2     H14S           12.4755525087       14.6931474364       -4.0383429190  MEMB      225             0.0000000000
     28040       225  PVCL2     CC15           14.1669621271       15.6344861907       -3.2746043889  MEMB      225             0.0000000000
     28041       225  PVCL2     H15R           14.0266009350       16.7227041860       -3.4489634371  MEMB      225             0.0000000000
     28042       225  PVCL2     H15S           15.2678732015       15.4874638987       -3.3010639027  MEMB      225             0.0000000000
     28043       225  PVCL2     CC16           13.9337515020       15.2075857344       -1.8292935021  MEMB      225             0.0000000000
     28044       225  PVCL2     H16R           14.2178163242       14.1381698145       -1.7294036005  MEMB      225             0.0000000000
     28045       225  PVCL2     H16S           12.8513424577       15.0451741935       -1.6386760816  MEMB      225             0.0000000000
     28046       225  PVCL2     CC17           14.8677625021       15.9898340316       -0.7911693103  MEMB      225             0.0000000000
     28047       225  PVCL2     H17R           14.7014871988       17.0803936407       -0.6594375552  MEMB      225             0.0000000000
     28048       225  PVCL2     H17S           15.9132779233       15.7944614245       -1.1121808269  MEMB      225             0.0000000000
     28049       225  PVCL2     CC18           14.9363151466       15.3712478391        0.6249129055  MEMB      225             0.0000000000
     28050       225  PVCL2     H18R           14.0779026203       15.5485787802        1.3075569883  MEMB      225             0.0000000000
     28051       225  PVCL2     H18S           15.8463855013       15.6083614443        1.2164110437  MEMB      225             0.0000000000
     28052       225  PVCL2     H18T           14.9447983902       14.2658388774        0.5139156407  MEMB      225             0.0000000000
     28053       225  PVCL2     CD3            18.3911832805       14.6262315149      -13.1212242334  MEMB      225             0.0000000000
     28054       225  PVCL2     H3X            18.7639122648       13.7562575374      -12.5393825746  MEMB      225             0.0000000000
     28055       225  PVCL2     H3Y            17.2861831205       14.7076095236      -13.2029124070  MEMB      225             0.0000000000
     28056       225  PVCL2     CD4            19.0115181650       15.6935101207      -12.2727411470  MEMB      225             0.0000000000
     28057       225  PVCL2     H4X            20.0457140071       15.9131302512      -12.6141021161  MEMB      225             0.0000000000
     28058       225  PVCL2     H4Y            19.1517140608       15.2804835801      -11.2509412877  MEMB      225             0.0000000000
     28059       225  PVCL2     CD5            18.3939632327       17.1294060740      -12.4826553255  MEMB      225             0.0000000000
     28060       225  PVCL2     H5X            17.3181419512       17.1445732541      -12.2057093292  MEMB      225             0.0000000000
     28061       225  PVCL2     H5Y            18.4839122719       17.5928224398      -13.4883771192  MEMB      225             0.0000000000
     28062       225  PVCL2     CD6            19.2807878578       18.1815028219      -11.7668029043  MEMB      225             0.0000000000
     28063       225  PVCL2     H6X            18.7258382445       19.1355077091      -11.8941864794  MEMB      225             0.0000000000
     28064       225  PVCL2     H6Y            20.3401261985       18.1881196023      -12.1015849550  MEMB      225             0.0000000000
     28065       225  PVCL2     CD7            19.4317486740       17.9005754685      -10.2454719990  MEMB      225             0.0000000000
     28066       225  PVCL2     H7X            19.8257754727       18.8944978178       -9.9435073367  MEMB      225             0.0000000000
     28067       225  PVCL2     H7Y            20.0937134762       17.0391454518      -10.0129591923  MEMB      225             0.0000000000
     28068       225  PVCL2     CD8            18.0963837511       17.7732405655       -9.4848174621  MEMB      225             0.0000000000
     28069       225  PVCL2     H8X            17.6848000926       16.7494402846       -9.6142503561  MEMB      225             0.0000000000
     28070       225  PVCL2     H8Y            17.3246541733       18.4808128548       -9.8564302051  MEMB      225             0.0000000000
     28071       225  PVCL2     CD9            18.3560676243       18.0605674746       -7.9661939393  MEMB      225             0.0000000000
     28072       225  PVCL2     H9X            17.4011196785       18.1651732671       -7.4081145347  MEMB      225             0.0000000000
     28073       225  PVCL2     H9Y            18.9633717652       18.9902823411       -7.9998548489  MEMB      225             0.0000000000
     28074       225  PVCL2     CD10           19.1871124753       16.9441622328       -7.3139076021  MEMB      225             0.0000000000
     28075       225  PVCL2     H10X           20.2578776799       16.9911923741       -7.6064324614  MEMB      225             0.0000000000
     28076       225  PVCL2     H10Y           18.8452114622       15.9860140546       -7.7604239880  MEMB      225             0.0000000000
     28077       225  PVCL2     CD11           18.9856203224       16.8132751346       -5.8245807018  MEMB      225             0.0000000000
     28078       225  PVCL2     H11X           17.9157560512       16.6445641907       -5.5770975344  MEMB      225             0.0000000000
     28079       225  PVCL2     H11Y           19.2468429899       17.8369287649       -5.4807542905  MEMB      225             0.0000000000
     28080       225  PVCL2     CD12           19.6500405730       15.5540727990       -5.1572396128  MEMB      225             0.0000000000
     28081       225  PVCL2     H12X           20.7389946562       15.7392382051       -5.0380150328  MEMB      225             0.0000000000
     28082       225  PVCL2     H12Y           19.4985768992       14.7153038215       -5.8698729485  MEMB      225             0.0000000000
     28083       225  PVCL2     CD13           18.9788950839       15.2162825344       -3.7789108016  MEMB      225             0.0000000000
     28084       225  PVCL2     H13X           17.8920054221       15.1212606537       -3.9885845280  MEMB      225             0.0000000000
     28085       225  PVCL2     H13Y           19.2003001673       15.9509839634       -2.9754721361  MEMB      225             0.0000000000
     28086       225  PVCL2     CD14           19.3776023815       13.8557762311       -3.1802061990  MEMB      225             0.0000000000
     28087       225  PVCL2     H14X           20.4852795629       13.8698698169       -3.0955079567  MEMB      225             0.0000000000
     28088       225  PVCL2     H14Y           19.1120884833       13.0078677878       -3.8471957063  MEMB      225             0.0000000000
     28089       225  PVCL2     CD15           18.9753625615       13.6103946689       -1.7351166174  MEMB      225             0.0000000000
     28090       225  PVCL2     H15X           19.2566077565       12.5721115204       -1.4572848108  MEMB      225             0.0000000000
     28091       225  PVCL2     H15Y           17.8664347177       13.5846995454       -1.7978881685  MEMB      225             0.0000000000
     28092       225  PVCL2     CD16           19.3482881462       14.6351239643       -0.6786067527  MEMB      225             0.0000000000
     28093       225  PVCL2     H16X           20.4196023083       14.9067028644       -0.7919737529  MEMB      225             0.0000000000
     28094       225  PVCL2     H16Y           19.0509699089       14.1737306346        0.2873329777  MEMB      225             0.0000000000
     28095       225  PVCL2     H16Z           18.6864640326       15.5260139744       -0.7298333244  MEMB      225             0.0000000000
     28096       226  OYPE      N              -4.0196804328       20.1143310359      -21.2619544466  MEMB      226             0.0000000000
     28097       226  OYPE      HN1            -3.6609342784       20.8447461171      -21.9095614774  MEMB      226             0.0000000000
     28098       226  OYPE      HN2            -3.4748262958       19.8514985558      -20.4159917553  MEMB      226             0.0000000000
     28099       226  OYPE      HN3            -4.1312775483       19.1863270409      -21.7179749335  MEMB      226             0.0000000000
     28100       226  OYPE      C12            -5.3384429970       20.6223316866      -20.8416406826  MEMB      226             0.0000000000
     28101       226  OYPE      H12A           -6.0404536845       19.7643786118      -20.7680297069  MEMB      226             0.0000000000
     28102       226  OYPE      H12B           -5.6915589590       21.2499050672      -21.6876796539  MEMB      226             0.0000000000
     28103       226  OYPE      C11            -5.2247852022       21.4261867153      -19.5591304169  MEMB      226             0.0000000000
     28104       226  OYPE      H11A           -4.3552527884       22.1175607731      -19.5744982583  MEMB      226             0.0000000000
     28105       226  OYPE      H11B           -5.0414132427       20.6808185559      -18.7559355529  MEMB      226             0.0000000000
     28106       226  OYPE      P              -6.8737242642       22.9044572901      -18.0311206686  MEMB      226             0.0000000000
     28107       226  OYPE      O13            -7.4251784440       24.2017860380      -18.4442161923  MEMB      226             0.0000000000
     28108       226  OYPE      O14            -5.7651927578       22.9239688549      -17.0332832172  MEMB      226             0.0000000000
     28109       226  OYPE      O11            -8.1018212866       22.1504692178      -17.4925479080  MEMB      226             0.0000000000
     28110       226  OYPE      O12            -6.4965565455       22.1150827571      -19.3361064643  MEMB      226             0.0000000000
     28111       226  OYPE      C1             -7.9367873065       21.1564756907      -16.4879434538  MEMB      226             0.0000000000
     28112       226  OYPE      HA             -6.9508076794       20.6569935037      -16.6005616840  MEMB      226             0.0000000000
     28113       226  OYPE      HB             -8.7502739440       20.4164805684      -16.6459547069  MEMB      226             0.0000000000
     28114       226  OYPE      C2             -8.0653204634       21.6783001759      -15.0157986217  MEMB      226             0.0000000000
     28115       226  OYPE      HS             -9.0927830046       22.0409747455      -14.7987530671  MEMB      226             0.0000000000
     28116       226  OYPE      O21            -7.1346054733       22.7498049226      -14.7361653863  MEMB      226             0.0000000000
     28117       226  OYPE      C21            -7.4883826833       23.7363869703      -13.9080459475  MEMB      226             0.0000000000
     28118       226  OYPE      O22            -8.5571039059       23.7807048425      -13.2654846316  MEMB      226             0.0000000000
     28119       226  OYPE      C22            -6.3821815864       24.7194737032      -13.7749788333  MEMB      226             0.0000000000
     28120       226  OYPE      H2R            -6.5831281139       25.5742304477      -14.4556640586  MEMB      226             0.0000000000
     28121       226  OYPE      H2S            -5.4448009711       24.2587495657      -14.1536233014  MEMB      226             0.0000000000
     28122       226  OYPE      C3             -7.8171630493       20.4693103194      -14.1046105415  MEMB      226             0.0000000000
     28123       226  OYPE      HX             -6.8409500800       20.0601219016      -14.4420923324  MEMB      226             0.0000000000
     28124       226  OYPE      HY             -8.5398816903       19.6715351934      -14.3794806672  MEMB      226             0.0000000000
     28125       226  OYPE      O31            -7.8171675906       20.8307618985      -12.6990543995  MEMB      226             0.0000000000
     28126       226  OYPE      C31            -9.0481060017       20.7258096172      -12.0981209637  MEMB      226             0.0000000000
     28127       226  OYPE      O32           -10.1217064660       20.4738704823      -12.6377669819  MEMB      226             0.0000000000
     28128       226  OYPE      C32            -8.8358602667       21.0607941628      -10.6846637901  MEMB      226             0.0000000000
     28129       226  OYPE      H2X            -8.6916696955       20.0719295258      -10.1991981433  MEMB      226             0.0000000000
     28130       226  OYPE      H2Y            -7.9108048909       21.6746699552      -10.6428284136  MEMB      226             0.0000000000
     28131       226  OYPE      C23            -6.1648381009       25.1326825707      -12.3124148661  MEMB      226             0.0000000000
     28132       226  OYPE      H3R            -7.1181003818       25.6025564265      -11.9886396780  MEMB      226             0.0000000000
     28133       226  OYPE      H3S            -5.4330511119       25.9686301673      -12.3117332429  MEMB      226             0.0000000000
     28134       226  OYPE      C24            -5.6898688202       23.9695644924      -11.4035080021  MEMB      226             0.0000000000
     28135       226  OYPE      H4R            -4.7252556547       23.5374814711      -11.7457749438  MEMB      226             0.0000000000
     28136       226  OYPE      H4S            -6.4615462695       23.1707525354      -11.3764100494  MEMB      226             0.0000000000
     28137       226  OYPE      C25            -5.3517718501       24.5035219583      -10.0143660224  MEMB      226             0.0000000000
     28138       226  OYPE      H5R            -6.3104281456       24.9046981129       -9.6214837145  MEMB      226             0.0000000000
     28139       226  OYPE      H5S            -4.6963149128       25.3916571210      -10.1405142682  MEMB      226             0.0000000000
     28140       226  OYPE      C26            -4.7252345855       23.5326823239       -9.0297871845  MEMB      226             0.0000000000
     28141       226  OYPE      H6R            -4.8299467009       23.9386882602       -8.0009450537  MEMB      226             0.0000000000
     28142       226  OYPE      H6S            -3.6499918090       23.3727879923       -9.2591511901  MEMB      226             0.0000000000
     28143       226  OYPE      C27            -5.3820144001       22.1868807673       -9.0533637818  MEMB      226             0.0000000000
     28144       226  OYPE      H7R            -5.2234218619       21.7015776300      -10.0401007878  MEMB      226             0.0000000000
     28145       226  OYPE      H7S            -6.4624375926       22.4452822056       -9.0380187491  MEMB      226             0.0000000000
     28146       226  OYPE      C28            -4.8398822178       21.3489341653       -7.8796077105  MEMB      226             0.0000000000
     28147       226  OYPE      H8R            -3.7300079098       21.2996430243       -7.8712140783  MEMB      226             0.0000000000
     28148       226  OYPE      H8S            -5.1109144705       20.3138973593       -8.1788755581  MEMB      226             0.0000000000
     28149       226  OYPE      C29            -5.4327768101       21.6578239064       -6.5245170168  MEMB      226             0.0000000000
     28150       226  OYPE      H9R            -4.9340936330       22.4497834215       -5.9464891833  MEMB      226             0.0000000000
     28151       226  OYPE      C210           -6.5534883663       21.0791883470       -6.0425541679  MEMB      226             0.0000000000
     28152       226  OYPE      H10R           -6.9259804668       21.5356333833       -5.1136258721  MEMB      226             0.0000000000
     28153       226  OYPE      C211           -7.5156732582       20.0684170636       -6.4344535686  MEMB      226             0.0000000000
     28154       226  OYPE      H11R           -7.0725106180       19.3165868589       -7.1219705881  MEMB      226             0.0000000000
     28155       226  OYPE      H11S           -8.3822188580       20.6246683938       -6.8515920321  MEMB      226             0.0000000000
     28156       226  OYPE      C212           -8.1632267320       19.2622932361       -5.2990208254  MEMB      226             0.0000000000
     28157       226  OYPE      H12R           -7.3672085200       18.6916272904       -4.7746011354  MEMB      226             0.0000000000
     28158       226  OYPE      H12S           -8.9081537807       18.5637299727       -5.7365297814  MEMB      226             0.0000000000
     28159       226  OYPE      C213           -8.7963550076       20.1347315061       -4.2511028890  MEMB      226             0.0000000000
     28160       226  OYPE      H13R           -8.0486371252       20.8461603489       -3.8398756144  MEMB      226             0.0000000000
     28161       226  OYPE      H13S           -9.0317872554       19.3780869046       -3.4723979144  MEMB      226             0.0000000000
     28162       226  OYPE      C214           -9.9559886784       21.0913480601       -4.6738964396  MEMB      226             0.0000000000
     28163       226  OYPE      H14R          -10.8319759547       20.4160627627       -4.7785736789  MEMB      226             0.0000000000
     28164       226  OYPE      H14S           -9.8465712143       21.6112297344       -5.6496383533  MEMB      226             0.0000000000
     28165       226  OYPE      C215          -10.2425563435       22.1186747348       -3.5897426411  MEMB      226             0.0000000000
     28166       226  OYPE      H15R          -11.0718130296       22.7603780889       -3.9569905313  MEMB      226             0.0000000000
     28167       226  OYPE      H15S           -9.3258132985       22.7422903203       -3.6604987059  MEMB      226             0.0000000000
     28168       226  OYPE      C216          -10.5174206371       21.8545597890       -2.1439347929  MEMB      226             0.0000000000
     28169       226  OYPE      H16R           -9.5620145271       21.4276603840       -1.7707365498  MEMB      226             0.0000000000
     28170       226  OYPE      H16S          -11.3186367453       21.0864187653       -2.1922340409  MEMB      226             0.0000000000
     28171       226  OYPE      H16T          -10.8215851128       22.6704412210       -1.4539045438  MEMB      226             0.0000000000
     28172       226  OYPE      C33           -10.0852057809       21.6444877491      -10.0338880054  MEMB      226             0.0000000000
     28173       226  OYPE      H3X            -9.9514679192       21.5168681480       -8.9383753696  MEMB      226             0.0000000000
     28174       226  OYPE      H3Y           -10.9395539421       20.9586651436      -10.2184334702  MEMB      226             0.0000000000
     28175       226  OYPE      C34           -10.5011892624       23.0838187038      -10.3058790592  MEMB      226             0.0000000000
     28176       226  OYPE      H4X           -10.6642199713       23.1244957572      -11.4040991869  MEMB      226             0.0000000000
     28177       226  OYPE      H4Y           -11.5467954823       23.1823747870       -9.9435036925  MEMB      226             0.0000000000
     28178       226  OYPE      C35            -9.5673400216       24.2994005814      -10.0949341133  MEMB      226             0.0000000000
     28179       226  OYPE      H5X            -9.9606212476       25.1944302123      -10.6227343674  MEMB      226             0.0000000000
     28180       226  OYPE      H5Y            -8.5451090301       24.1236163838      -10.4930105373  MEMB      226             0.0000000000
     28181       226  OYPE      C36            -9.4148986143       24.7778238260       -8.6716913763  MEMB      226             0.0000000000
     28182       226  OYPE      H6X            -9.0040139092       25.8077883412       -8.7400116538  MEMB      226             0.0000000000
     28183       226  OYPE      H6Y           -10.4468481219       24.8683650763       -8.2701902922  MEMB      226             0.0000000000
     28184       226  OYPE      C37            -8.5544090939       24.0280702227       -7.6765288241  MEMB      226             0.0000000000
     28185       226  OYPE      H7X            -8.8420846154       22.9549999528       -7.6673663629  MEMB      226             0.0000000000
     28186       226  OYPE      H7Y            -7.4890284697       24.0576115204       -7.9902360838  MEMB      226             0.0000000000
     28187       226  OYPE      C38            -8.7494992259       24.5798976626       -6.2184636402  MEMB      226             0.0000000000
     28188       226  OYPE      H8X            -9.7966512189       24.4378297029       -5.8755203663  MEMB      226             0.0000000000
     28189       226  OYPE      H8Y            -8.2053288998       23.9361449258       -5.4947360938  MEMB      226             0.0000000000
     28190       226  OYPE      C39            -8.5109219054       26.0352204787       -5.9611886061  MEMB      226             0.0000000000
     28191       226  OYPE      H9X            -9.1119350858       26.7186423344       -6.5790218692  MEMB      226             0.0000000000
     28192       226  OYPE      C310           -7.7372533650       26.5594718616       -5.0743193600  MEMB      226             0.0000000000
     28193       226  OYPE      H10X           -7.7714810187       27.6569057183       -5.0074807970  MEMB      226             0.0000000000
     28194       226  OYPE      C311           -6.8245465346       25.9775836153       -4.0141379457  MEMB      226             0.0000000000
     28195       226  OYPE      H11X           -6.6789722519       26.6470706902       -3.1395437522  MEMB      226             0.0000000000
     28196       226  OYPE      H11Y           -7.3866637772       25.0647320793       -3.7225097453  MEMB      226             0.0000000000
     28197       226  OYPE      C312           -5.3925790860       25.5672115167       -4.4234890372  MEMB      226             0.0000000000
     28198       226  OYPE      H12X           -4.7595861065       26.4694897958       -4.5632559179  MEMB      226             0.0000000000
     28199       226  OYPE      H12Y           -5.3368593778       25.1119476742       -5.4353942332  MEMB      226             0.0000000000
     28200       226  OYPE      C313           -4.7234431315       24.5539711084       -3.4637359894  MEMB      226             0.0000000000
     28201       226  OYPE      H13X           -5.2574152054       23.5859460350       -3.5738371539  MEMB      226             0.0000000000
     28202       226  OYPE      H13Y           -3.6515744253       24.4549144537       -3.7387021112  MEMB      226             0.0000000000
     28203       226  OYPE      C314           -4.7507954027       25.0106709785       -1.9769712236  MEMB      226             0.0000000000
     28204       226  OYPE      H14X           -4.8079552589       26.1182626445       -1.9114354583  MEMB      226             0.0000000000
     28205       226  OYPE      H14Y           -3.9384626348       24.4646892969       -1.4512898150  MEMB      226             0.0000000000
     28206       226  OYPE      C315           -5.9573292866       24.5181204817       -1.0813790797  MEMB      226             0.0000000000
     28207       226  OYPE      H15X           -6.8744683669       24.8848473224       -1.5899916166  MEMB      226             0.0000000000
     28208       226  OYPE      H15Y           -6.0154958837       25.0190783105       -0.0914385147  MEMB      226             0.0000000000
     28209       226  OYPE      C316           -6.2124095092       22.9886847162       -0.9105361628  MEMB      226             0.0000000000
     28210       226  OYPE      H16X           -5.9235932719       22.4060840781       -1.8113605825  MEMB      226             0.0000000000
     28211       226  OYPE      H16Y           -7.3138263708       22.8431280027       -0.9144455567  MEMB      226             0.0000000000
     28212       226  OYPE      C317           -5.7833216877       22.3652218835        0.3982275110  MEMB      226             0.0000000000
     28213       226  OYPE      H17X           -4.7026622297       22.5884072436        0.5273957190  MEMB      226             0.0000000000
     28214       226  OYPE      H17Y           -5.9781087088       21.2752889126        0.3064335906  MEMB      226             0.0000000000
     28215       226  OYPE      C318           -6.6054873921       22.9514348060        1.5725942750  MEMB      226             0.0000000000
     28216       226  OYPE      H18X           -6.3058342565       22.4390886757        2.5117593798  MEMB      226             0.0000000000
     28217       226  OYPE      H18Y           -6.3903597416       24.0398625767        1.6306181199  MEMB      226             0.0000000000
     28218       226  OYPE      H18Z           -7.7038197789       22.8284015151        1.4592392493  MEMB      226             0.0000000000
     28219       227  QMPE      N             -20.1539890026      -11.1416502728      -22.0213277223  MEMB      227             0.0000000000
     28220       227  QMPE      HN1           -19.5186460097      -11.4138827268      -22.7983919785  MEMB      227             0.0000000000
     28221       227  QMPE      HN2           -21.0385477350      -11.3355419311      -22.5327588726  MEMB      227             0.0000000000
     28222       227  QMPE      HN3           -20.1393428787      -10.1219284058      -21.8174825996  MEMB      227             0.0000000000
     28223       227  QMPE      C12           -19.9496889706      -11.9222769316      -20.7731820412  MEMB      227             0.0000000000
     28224       227  QMPE      H12A          -19.0813187323      -12.6149761563      -20.7937249513  MEMB      227             0.0000000000
     28225       227  QMPE      H12B          -20.8895132973      -12.4956686275      -20.6239399328  MEMB      227             0.0000000000
     28226       227  QMPE      C11           -19.5887607761      -11.0122406517      -19.6012513622  MEMB      227             0.0000000000
     28227       227  QMPE      H11A          -18.7561235392      -10.2789613507      -19.6590237261  MEMB      227             0.0000000000
     28228       227  QMPE      H11B          -19.3924257492      -11.7015983639      -18.7523935453  MEMB      227             0.0000000000
     28229       227  QMPE      P             -20.9258565666       -9.6632249529      -17.8504884023  MEMB      227             0.0000000000
     28230       227  QMPE      O13           -21.7496135448      -10.6596110515      -17.1843753215  MEMB      227             0.0000000000
     28231       227  QMPE      O14           -21.4500368199       -8.2613419406      -17.8932959920  MEMB      227             0.0000000000
     28232       227  QMPE      O11           -19.4216347490       -9.7226031741      -17.3349146594  MEMB      227             0.0000000000
     28233       227  QMPE      O12           -20.7457739705      -10.1859758233      -19.3411644991  MEMB      227             0.0000000000
     28234       227  QMPE      C1            -19.1519152851       -8.9098484659      -16.1663152891  MEMB      227             0.0000000000
     28235       227  QMPE      HA            -19.9578799567       -8.9519149995      -15.4027890297  MEMB      227             0.0000000000
     28236       227  QMPE      HB            -18.9930787398       -7.8683296385      -16.5189207096  MEMB      227             0.0000000000
     28237       227  QMPE      C2            -17.8462210426       -9.3301407928      -15.5811333031  MEMB      227             0.0000000000
     28238       227  QMPE      HS            -17.1193971940       -9.4859823426      -16.4068216703  MEMB      227             0.0000000000
     28239       227  QMPE      O21           -18.1117068199      -10.4802835893      -14.6958207767  MEMB      227             0.0000000000
     28240       227  QMPE      C21           -17.2018557707      -11.5098647399      -14.8172530981  MEMB      227             0.0000000000
     28241       227  QMPE      O22           -16.2349319727      -11.5574086341      -15.6071153068  MEMB      227             0.0000000000
     28242       227  QMPE      C22           -17.3656837594      -12.5289280875      -13.6966575887  MEMB      227             0.0000000000
     28243       227  QMPE      H2R           -16.6305450975      -13.3357544926      -13.9038379281  MEMB      227             0.0000000000
     28244       227  QMPE      H2S           -18.3984343192      -12.9193189924      -13.8205215591  MEMB      227             0.0000000000
     28245       227  QMPE      C3            -17.1734173557       -8.2206094257      -14.6679699530  MEMB      227             0.0000000000
     28246       227  QMPE      HX            -16.9511119497       -7.2951465512      -15.2410493335  MEMB      227             0.0000000000
     28247       227  QMPE      HY            -16.1695270497       -8.5670986406      -14.3416713881  MEMB      227             0.0000000000
     28248       227  QMPE      O31           -18.1467037983       -7.9154022300      -13.6200414783  MEMB      227             0.0000000000
     28249       227  QMPE      C31           -17.7264005876       -7.9002446897      -12.4342289614  MEMB      227             0.0000000000
     28250       227  QMPE      O32           -16.5924873773       -8.0817373245      -12.0395030031  MEMB      227             0.0000000000
     28251       227  QMPE      C32           -18.8828082215       -7.8119642512      -11.4390356381  MEMB      227             0.0000000000
     28252       227  QMPE      H2X           -19.3744713408       -6.8163891644      -11.4767008128  MEMB      227             0.0000000000
     28253       227  QMPE      H2Y           -19.6126352683       -8.5904412540      -11.7483044228  MEMB      227             0.0000000000
     28254       227  QMPE      C23           -17.2870672687      -11.8623380146      -12.2093351261  MEMB      227             0.0000000000
     28255       227  QMPE      H3R           -18.0573567138      -11.0853853711      -12.0161525569  MEMB      227             0.0000000000
     28256       227  QMPE      H3S           -16.2710880373      -11.4311000201      -12.0822887097  MEMB      227             0.0000000000
     28257       227  QMPE      C24           -17.4688666579      -12.9697173643      -11.1280524275  MEMB      227             0.0000000000
     28258       227  QMPE      H4R           -17.2998868611      -12.4715088656      -10.1495054084  MEMB      227             0.0000000000
     28259       227  QMPE      H4S           -16.7690235321      -13.7785903770      -11.4284927760  MEMB      227             0.0000000000
     28260       227  QMPE      C25           -18.8670310946      -13.5711637423      -11.1119499831  MEMB      227             0.0000000000
     28261       227  QMPE      H5R           -18.9287616957      -14.2874423042      -10.2649224918  MEMB      227             0.0000000000
     28262       227  QMPE      H5S           -18.9589920831      -14.0861359064      -12.0920864862  MEMB      227             0.0000000000
     28263       227  QMPE      C26           -20.0343316672      -12.6037746285      -10.8280871698  MEMB      227             0.0000000000
     28264       227  QMPE      H6R           -20.3572732511      -12.3897433057      -11.8693461855  MEMB      227             0.0000000000
     28265       227  QMPE      H6S           -19.5993369439      -11.6790971833      -10.3921139530  MEMB      227             0.0000000000
     28266       227  QMPE      C27           -21.1026566351      -13.0841858660       -9.9619246793  MEMB      227             0.0000000000
     28267       227  QMPE      H7R           -20.6155473225      -13.2750456392       -8.9818133553  MEMB      227             0.0000000000
     28268       227  QMPE      H7S           -21.5158535898      -14.0430830531      -10.3415366060  MEMB      227             0.0000000000
     28269       227  QMPE      C28           -22.1189138607      -11.9805179313       -9.6889392925  MEMB      227             0.0000000000
     28270       227  QMPE      H8R           -22.6870050909      -11.7145129421      -10.6059093849  MEMB      227             0.0000000000
     28271       227  QMPE      H8S           -21.4911454663      -11.0896136108       -9.4732602051  MEMB      227             0.0000000000
     28272       227  QMPE      C29           -23.1033722163      -12.2719959390       -8.5353770518  MEMB      227             0.0000000000
     28273       227  QMPE      H9R           -23.7619292647      -13.1551931682       -8.6788552147  MEMB      227             0.0000000000
     28274       227  QMPE      C217          -23.7415114782      -10.9984717672       -8.0543120349  MEMB      227             0.0000000000
     28275       227  QMPE      H17R          -23.2249192856      -10.0588003349       -8.2060990158  MEMB      227             0.0000000000
     28276       227  QMPE      H17S          -24.7800397320      -11.1103575693       -7.7682541904  MEMB      227             0.0000000000
     28277       227  QMPE      C210          -22.9654574066      -11.8845305231       -7.0690783689  MEMB      227             0.0000000000
     28278       227  QMPE      H10R          -23.6303586597      -12.4720220748       -6.4004374486  MEMB      227             0.0000000000
     28279       227  QMPE      C211          -21.8418249953      -11.1644790253       -6.4785654554  MEMB      227             0.0000000000
     28280       227  QMPE      H11R          -21.4101231421      -10.3410095716       -7.0867204086  MEMB      227             0.0000000000
     28281       227  QMPE      H11S          -22.2518935618      -10.6489868505       -5.5838968327  MEMB      227             0.0000000000
     28282       227  QMPE      C212          -20.6962995762      -12.0843617726       -6.0408127040  MEMB      227             0.0000000000
     28283       227  QMPE      H12R          -19.9164448255      -11.3308063419       -5.7993552943  MEMB      227             0.0000000000
     28284       227  QMPE      H12S          -20.3830768108      -12.6874661565       -6.9197195291  MEMB      227             0.0000000000
     28285       227  QMPE      C213          -21.0156622252      -13.2092423133       -5.0066664949  MEMB      227             0.0000000000
     28286       227  QMPE      H13R          -21.6794185716      -13.9650602066       -5.4783533701  MEMB      227             0.0000000000
     28287       227  QMPE      H13S          -21.4418560394      -12.7355762814       -4.0965456805  MEMB      227             0.0000000000
     28288       227  QMPE      C214          -19.7209547266      -13.9307664654       -4.5431675877  MEMB      227             0.0000000000
     28289       227  QMPE      H14R          -18.9680303032      -13.1507109068       -4.3003936312  MEMB      227             0.0000000000
     28290       227  QMPE      H14S          -19.3034874684      -14.5894124549       -5.3345137302  MEMB      227             0.0000000000
     28291       227  QMPE      C215          -19.8683908327      -14.8020744879       -3.3238526711  MEMB      227             0.0000000000
     28292       227  QMPE      H15R          -18.9123332948      -15.3531341637       -3.1949813446  MEMB      227             0.0000000000
     28293       227  QMPE      H15S          -20.6666188559      -15.5566011596       -3.4907140770  MEMB      227             0.0000000000
     28294       227  QMPE      C216          -20.3547036314      -14.0620284551       -2.0850707972  MEMB      227             0.0000000000
     28295       227  QMPE      H16R          -20.4614322199      -14.7445946674       -1.2149940739  MEMB      227             0.0000000000
     28296       227  QMPE      H16S          -21.3700352413      -13.6346230222       -2.2291090558  MEMB      227             0.0000000000
     28297       227  QMPE      H16T          -19.6278981460      -13.2563932221       -1.8462679506  MEMB      227             0.0000000000
     28298       227  QMPE      C33           -18.5897427500       -8.0118549572       -9.9156121685  MEMB      227             0.0000000000
     28299       227  QMPE      H3X           -19.3313525285       -7.5518755934       -9.2280405454  MEMB      227             0.0000000000
     28300       227  QMPE      H3Y           -17.6314289704       -7.4845671044       -9.7208735671  MEMB      227             0.0000000000
     28301       227  QMPE      C34           -18.4535015160       -9.4603661358       -9.3672484035  MEMB      227             0.0000000000
     28302       227  QMPE      H4X           -17.7069359640       -9.9343317208      -10.0397940195  MEMB      227             0.0000000000
     28303       227  QMPE      H4Y           -19.4628251355       -9.9169188641       -9.4517863243  MEMB      227             0.0000000000
     28304       227  QMPE      C35           -17.9343878901       -9.5730973267       -7.9264660505  MEMB      227             0.0000000000
     28305       227  QMPE      H5X           -16.8697763018       -9.2701259392       -7.8309057983  MEMB      227             0.0000000000
     28306       227  QMPE      H5Y           -17.8650191016      -10.6438156882       -7.6382455021  MEMB      227             0.0000000000
     28307       227  QMPE      C36           -18.7869547517       -8.8471271604       -6.8354103256  MEMB      227             0.0000000000
     28308       227  QMPE      H6X           -19.8791061675       -9.0412118541       -6.8975183062  MEMB      227             0.0000000000
     28309       227  QMPE      H6Y           -18.8637009008       -7.7867334615       -7.1578943732  MEMB      227             0.0000000000
     28310       227  QMPE      C37           -18.3745565309       -9.0120026688       -5.3601520563  MEMB      227             0.0000000000
     28311       227  QMPE      H7X           -18.1908811579      -10.0875706365       -5.1510157555  MEMB      227             0.0000000000
     28312       227  QMPE      H7Y           -17.3802500863       -8.5605167079       -5.1556128151  MEMB      227             0.0000000000
     28313       227  QMPE      C38           -19.4019339814       -8.5983244106       -4.3330562559  MEMB      227             0.0000000000
     28314       227  QMPE      H8X           -19.9292232651       -7.6759116700       -4.6577738215  MEMB      227             0.0000000000
     28315       227  QMPE      H8Y           -20.1548686392       -9.4037188535       -4.1961251425  MEMB      227             0.0000000000
     28316       227  QMPE      C39           -18.7346924444       -8.4317153009       -2.9870898908  MEMB      227             0.0000000000
     28317       227  QMPE      H9X           -18.0695603588       -7.5596206202       -3.1642089093  MEMB      227             0.0000000000
     28318       227  QMPE      H9Y           -18.1205098556       -9.2814021512       -2.6194863826  MEMB      227             0.0000000000
     28319       227  QMPE      C310          -19.6168641591       -7.9711487674       -1.8011542656  MEMB      227             0.0000000000
     28320       227  QMPE      H10X          -20.0103595401       -6.9329101826       -1.8404392706  MEMB      227             0.0000000000
     28321       227  QMPE      H10Y          -18.9245907084       -8.0369171414       -0.9346934481  MEMB      227             0.0000000000
     28322       227  QMPE      C311          -20.9740059388       -8.7886305632       -1.5007135244  MEMB      227             0.0000000000
     28323       227  QMPE      H11X          -20.9360206400       -9.7257527753       -2.0962641655  MEMB      227             0.0000000000
     28324       227  QMPE      H11Y          -21.7867849558       -8.1435954734       -1.8977535610  MEMB      227             0.0000000000
     28325       227  QMPE      C312          -21.2256013231       -9.1104439412        0.0056093266  MEMB      227             0.0000000000
     28326       227  QMPE      H12X          -21.6422869066       -8.2123885684        0.5097818703  MEMB      227             0.0000000000
     28327       227  QMPE      H12Y          -20.2471367152       -9.3761339697        0.4598512969  MEMB      227             0.0000000000
     28328       227  QMPE      C313          -22.0785472937      -10.3861965231        0.2140202402  MEMB      227             0.0000000000
     28329       227  QMPE      H13X          -22.9031009408      -10.0651793826        0.8858690651  MEMB      227             0.0000000000
     28330       227  QMPE      H13Y          -22.5751404259      -10.7538172848       -0.7093268496  MEMB      227             0.0000000000
     28331       227  QMPE      C314          -21.3394072791      -11.5201261706        0.8808375411  MEMB      227             0.0000000000
     28332       227  QMPE      H14X          -21.2955182860      -11.1305078294        1.9203524346  MEMB      227             0.0000000000
     28333       227  QMPE      H14Y          -20.4043252408      -11.7564394479        0.3293861142  MEMB      227             0.0000000000
     28334       227  QMPE      C315          -22.1325495631      -12.8356816322        1.0591707706  MEMB      227             0.0000000000
     28335       227  QMPE      H15X          -22.2613805048      -13.2702349371        0.0448299814  MEMB      227             0.0000000000
     28336       227  QMPE      H15Y          -21.4950717881      -13.4157010031        1.7602572081  MEMB      227             0.0000000000
     28337       227  QMPE      H15Z          -23.0883615854      -12.6134820855        1.5801040010  MEMB      227             0.0000000000
     28338       228  QMPE      N               7.6390552099      -23.6152254777      -21.2349316861  MEMB      228             0.0000000000
     28339       228  QMPE      HN1             7.7081662962      -22.5851470754      -21.3604794059  MEMB      228             0.0000000000
     28340       228  QMPE      HN2             8.4579039736      -23.7445868529      -20.6069567634  MEMB      228             0.0000000000
     28341       228  QMPE      HN3             7.6318447434      -23.9539854150      -22.2181860769  MEMB      228             0.0000000000
     28342       228  QMPE      C12             6.4462231460      -23.8875467842      -20.5191523960  MEMB      228             0.0000000000
     28343       228  QMPE      H12A            6.5100678045      -24.9901889424      -20.3990473703  MEMB      228             0.0000000000
     28344       228  QMPE      H12B            5.5595576293      -23.6489538131      -21.1446270570  MEMB      228             0.0000000000
     28345       228  QMPE      C11             6.4351393151      -23.2893524787      -19.0188688195  MEMB      228             0.0000000000
     28346       228  QMPE      H11A            7.3266358342      -23.4820402700      -18.3844979121  MEMB      228             0.0000000000
     28347       228  QMPE      H11B            5.7321233648      -24.0288269644      -18.5792473057  MEMB      228             0.0000000000
     28348       228  QMPE      P               4.9289748144      -21.3848852942      -18.2828573729  MEMB      228             0.0000000000
     28349       228  QMPE      O13             3.6374029151      -21.9177439171      -18.8426841957  MEMB      228             0.0000000000
     28350       228  QMPE      O14             4.9904160928      -19.9510003624      -18.0947921247  MEMB      228             0.0000000000
     28351       228  QMPE      O11             5.2762798257      -22.1322045789      -16.9327123381  MEMB      228             0.0000000000
     28352       228  QMPE      O12             6.0943967345      -21.9444482858      -19.0740010485  MEMB      228             0.0000000000
     28353       228  QMPE      C1              4.2661925543      -22.4683903614      -16.0248311365  MEMB      228             0.0000000000
     28354       228  QMPE      HA              4.7787573154      -23.2287625413      -15.3975891295  MEMB      228             0.0000000000
     28355       228  QMPE      HB              3.4418932835      -23.0527170891      -16.4867983393  MEMB      228             0.0000000000
     28356       228  QMPE      C2              3.7971896953      -21.3210778203      -15.1676038621  MEMB      228             0.0000000000
     28357       228  QMPE      HS              3.2120187733      -20.6080994850      -15.7869244540  MEMB      228             0.0000000000
     28358       228  QMPE      O21             4.9481783318      -20.5537730532      -14.8192689181  MEMB      228             0.0000000000
     28359       228  QMPE      C21             4.6167264085      -19.4201584590      -14.1382635559  MEMB      228             0.0000000000
     28360       228  QMPE      O22             3.5844377659      -18.8137495712      -14.1719416657  MEMB      228             0.0000000000
     28361       228  QMPE      C22             5.9412262630      -18.7900630138      -13.6940991942  MEMB      228             0.0000000000
     28362       228  QMPE      H2R             5.8311343627      -17.6969865008      -13.5286177771  MEMB      228             0.0000000000
     28363       228  QMPE      H2S             6.7405645990      -19.0059773668      -14.4348829839  MEMB      228             0.0000000000
     28364       228  QMPE      C3              3.0958515676      -21.7650955898      -13.8560249417  MEMB      228             0.0000000000
     28365       228  QMPE      HX              2.1726692498      -22.3325583215      -14.1010588603  MEMB      228             0.0000000000
     28366       228  QMPE      HY              2.6831764201      -20.8760059473      -13.3330151169  MEMB      228             0.0000000000
     28367       228  QMPE      O31             3.9649915299      -22.5751323402      -13.0986928861  MEMB      228             0.0000000000
     28368       228  QMPE      C31             3.5724366181      -22.7832002360      -11.8347120653  MEMB      228             0.0000000000
     28369       228  QMPE      O32             2.4944205186      -22.4389850987      -11.3286458229  MEMB      228             0.0000000000
     28370       228  QMPE      C32             4.6984102332      -23.5824728464      -11.1677469908  MEMB      228             0.0000000000
     28371       228  QMPE      H2X             5.0020166922      -24.4842628472      -11.7412610334  MEMB      228             0.0000000000
     28372       228  QMPE      H2Y             5.6300606167      -22.9780843259      -11.1351405112  MEMB      228             0.0000000000
     28373       228  QMPE      C23             6.3007698697      -19.3681766194      -12.3148229394  MEMB      228             0.0000000000
     28374       228  QMPE      H3R             7.3959120243      -19.2792705232      -12.1502613696  MEMB      228             0.0000000000
     28375       228  QMPE      H3S             5.9942788871      -20.4344620916      -12.2563456055  MEMB      228             0.0000000000
     28376       228  QMPE      C24             5.6713989839      -18.7593619295      -11.0624244692  MEMB      228             0.0000000000
     28377       228  QMPE      H4R             6.1152106446      -17.7528948546      -10.9062974122  MEMB      228             0.0000000000
     28378       228  QMPE      H4S             6.0581930116      -19.4093616421      -10.2486606056  MEMB      228             0.0000000000
     28379       228  QMPE      C25             4.0831573703      -18.6798053523      -10.9173597656  MEMB      228             0.0000000000
     28380       228  QMPE      H5R             3.5971697398      -19.6579215977      -11.1208923443  MEMB      228             0.0000000000
     28381       228  QMPE      H5S             3.7553697406      -17.9583847492      -11.6960953067  MEMB      228             0.0000000000
     28382       228  QMPE      C26             3.8514534029      -18.4355969704       -9.3456945805  MEMB      228             0.0000000000
     28383       228  QMPE      H6R             4.1561980928      -17.4014121159       -9.0775282589  MEMB      228             0.0000000000
     28384       228  QMPE      H6S             4.3679505958      -19.1516955632       -8.6713396931  MEMB      228             0.0000000000
     28385       228  QMPE      C27             2.3627098795      -18.5306151893       -9.0319093635  MEMB      228             0.0000000000
     28386       228  QMPE      H7R             1.9744928146      -19.4755237837       -9.4686654534  MEMB      228             0.0000000000
     28387       228  QMPE      H7S             1.7473201734      -17.7362702752       -9.5058635397  MEMB      228             0.0000000000
     28388       228  QMPE      C28             2.0839644982      -18.4904542560       -7.5018378448  MEMB      228             0.0000000000
     28389       228  QMPE      H8R             2.5781274711      -17.5234540188       -7.2672437458  MEMB      228             0.0000000000
     28390       228  QMPE      H8S             2.5771374842      -19.3765457101       -7.0480280457  MEMB      228             0.0000000000
     28391       228  QMPE      C29             0.5884845089      -18.2499908579       -7.3114496234  MEMB      228             0.0000000000
     28392       228  QMPE      H9R            -0.0074091639      -18.2144807991       -8.2484501221  MEMB      228             0.0000000000
     28393       228  QMPE      C217            0.1357171352      -17.3174559543       -6.1708539370  MEMB      228             0.0000000000
     28394       228  QMPE      H17R            0.9544269773      -16.8565992527       -5.6321380213  MEMB      228             0.0000000000
     28395       228  QMPE      H17S           -0.7954708458      -16.8488673271       -6.4644564231  MEMB      228             0.0000000000
     28396       228  QMPE      C210           -0.0369100241      -18.8426222566       -6.0695778404  MEMB      228             0.0000000000
     28397       228  QMPE      H10R           -1.1139868370      -19.1125098373       -6.0323323986  MEMB      228             0.0000000000
     28398       228  QMPE      C211            0.8581025844      -19.4610395225       -4.9180947821  MEMB      228             0.0000000000
     28399       228  QMPE      H11R            1.8067272921      -18.9015575933       -4.7717650961  MEMB      228             0.0000000000
     28400       228  QMPE      H11S            0.2054768041      -19.3104885767       -4.0316770628  MEMB      228             0.0000000000
     28401       228  QMPE      C212            1.1507938707      -20.9411670925       -5.1501725604  MEMB      228             0.0000000000
     28402       228  QMPE      H12R            1.7297036847      -20.9381151045       -6.0984207695  MEMB      228             0.0000000000
     28403       228  QMPE      H12S            0.2319339970      -21.5626759947       -5.2113613000  MEMB      228             0.0000000000
     28404       228  QMPE      C213            2.1039509238      -21.4426612203       -4.0595466026  MEMB      228             0.0000000000
     28405       228  QMPE      H13R            3.0149959055      -20.8082618301       -4.1026185638  MEMB      228             0.0000000000
     28406       228  QMPE      H13S            2.4588972374      -22.4739890388       -4.2709630705  MEMB      228             0.0000000000
     28407       228  QMPE      C214            1.6872122774      -21.2924622582       -2.5258201443  MEMB      228             0.0000000000
     28408       228  QMPE      H14R            0.6949276852      -21.7796938650       -2.4149247113  MEMB      228             0.0000000000
     28409       228  QMPE      H14S            1.5794014787      -20.2355583618       -2.2007780363  MEMB      228             0.0000000000
     28410       228  QMPE      C215            2.6397626163      -21.8477467411       -1.4623524910  MEMB      228             0.0000000000
     28411       228  QMPE      H15R            2.3680451797      -21.4644487353       -0.4555885832  MEMB      228             0.0000000000
     28412       228  QMPE      H15S            3.6133397001      -21.3368409138       -1.6218656613  MEMB      228             0.0000000000
     28413       228  QMPE      C216            2.7705678726      -23.3520908525       -1.4254548409  MEMB      228             0.0000000000
     28414       228  QMPE      H16R            2.9902915254      -23.8360273610       -2.4010817417  MEMB      228             0.0000000000
     28415       228  QMPE      H16S            1.8337913915      -23.7400324206       -0.9712835811  MEMB      228             0.0000000000
     28416       228  QMPE      H16T            3.5071067578      -23.7091626541       -0.6742352170  MEMB      228             0.0000000000
     28417       228  QMPE      C33             4.2795227185      -24.0334303919       -9.7711176720  MEMB      228             0.0000000000
     28418       228  QMPE      H3X             4.9409554917      -24.8635277280       -9.4428404705  MEMB      228             0.0000000000
     28419       228  QMPE      H3Y             3.2328450463      -24.4059629267       -9.7736205953  MEMB      228             0.0000000000
     28420       228  QMPE      C34             4.4990401946      -22.9142547271       -8.6895252623  MEMB      228             0.0000000000
     28421       228  QMPE      H4X             3.8643207941      -22.0310952262       -8.9164202119  MEMB      228             0.0000000000
     28422       228  QMPE      H4Y             5.5273464104      -22.4960422669       -8.7343098007  MEMB      228             0.0000000000
     28423       228  QMPE      C35             4.2899905361      -23.3619351808       -7.1928663146  MEMB      228             0.0000000000
     28424       228  QMPE      H5X             4.9296129844      -24.2666886097       -7.1114712108  MEMB      228             0.0000000000
     28425       228  QMPE      H5Y             3.2199855533      -23.6223900562       -7.0459870718  MEMB      228             0.0000000000
     28426       228  QMPE      C36             4.7526613207      -22.3397398531       -6.1345862899  MEMB      228             0.0000000000
     28427       228  QMPE      H6X             4.3853278860      -22.8570731379       -5.2225817684  MEMB      228             0.0000000000
     28428       228  QMPE      H6Y             4.3452739568      -21.3103420267       -6.2278421957  MEMB      228             0.0000000000
     28429       228  QMPE      C37             6.3032215482      -22.1284848596       -6.1119897264  MEMB      228             0.0000000000
     28430       228  QMPE      H7X             6.8013432919      -23.0992328147       -5.9025997872  MEMB      228             0.0000000000
     28431       228  QMPE      H7Y             6.5242181590      -21.7452004259       -7.1310945531  MEMB      228             0.0000000000
     28432       228  QMPE      C38             6.7339068367      -21.0427741533       -5.1307021097  MEMB      228             0.0000000000
     28433       228  QMPE      H8X             7.8118678223      -20.8044291761       -5.0061506750  MEMB      228             0.0000000000
     28434       228  QMPE      H8Y             6.2250161415      -20.1240167013       -5.4929665924  MEMB      228             0.0000000000
     28435       228  QMPE      C39             6.2686449910      -21.2576563506       -3.7006769356  MEMB      228             0.0000000000
     28436       228  QMPE      H9X             6.7272805153      -22.2009552010       -3.3343953668  MEMB      228             0.0000000000
     28437       228  QMPE      H9Y             5.1938871913      -21.5390139757       -3.6933036145  MEMB      228             0.0000000000
     28438       228  QMPE      C310            6.6752590977      -19.9588505503       -2.9566973574  MEMB      228             0.0000000000
     28439       228  QMPE      H10X            7.7731749676      -19.7911625628       -2.9846640793  MEMB      228             0.0000000000
     28440       228  QMPE      H10Y            6.5144773385      -20.0586761082       -1.8619337944  MEMB      228             0.0000000000
     28441       228  QMPE      C311            5.9485947487      -18.6867812358       -3.3915586867  MEMB      228             0.0000000000
     28442       228  QMPE      H11X            4.8670212190      -18.8263695887       -3.1793440595  MEMB      228             0.0000000000
     28443       228  QMPE      H11Y            6.1705281261      -18.3596368227       -4.4298479221  MEMB      228             0.0000000000
     28444       228  QMPE      C312            6.2186578347      -17.5179747847       -2.3854052205  MEMB      228             0.0000000000
     28445       228  QMPE      H12X            5.9748958537      -16.5789137557       -2.9267610265  MEMB      228             0.0000000000
     28446       228  QMPE      H12Y            7.2695345943      -17.4226914676       -2.0376992288  MEMB      228             0.0000000000
     28447       228  QMPE      C313            5.2281249430      -17.6153373882       -1.1935437684  MEMB      228             0.0000000000
     28448       228  QMPE      H13X            4.2261498491      -17.2963382179       -1.5521614400  MEMB      228             0.0000000000
     28449       228  QMPE      H13Y            5.0615614336      -18.6239722888       -0.7585344256  MEMB      228             0.0000000000
     28450       228  QMPE      C314            5.6376643489      -16.6095357469       -0.0546340777  MEMB      228             0.0000000000
     28451       228  QMPE      H14X            5.5705511544      -15.6188551806       -0.5530000297  MEMB      228             0.0000000000
     28452       228  QMPE      H14Y            6.6945335802      -16.8447169224        0.1944404462  MEMB      228             0.0000000000
     28453       228  QMPE      C315            4.7579905804      -16.7904238197        1.2494368398  MEMB      228             0.0000000000
     28454       228  QMPE      H15X            4.6457767269      -17.8414293093        1.5916593785  MEMB      228             0.0000000000
     28455       228  QMPE      H15Y            5.2389737788      -16.3270615000        2.1372832172  MEMB      228             0.0000000000
     28456       228  QMPE      H15Z            3.7560466811      -16.3117605564        1.2132289270  MEMB      228             0.0000000000
     28457       229  PMPE      N             -15.3054552002      -18.7078430034      -21.2002191739  MEMB      229             0.0000000000
     28458       229  PMPE      HN1           -16.3077005819      -18.6939097754      -21.4775456983  MEMB      229             0.0000000000
     28459       229  PMPE      HN2           -14.7746049853      -19.1612906162      -21.9710521328  MEMB      229             0.0000000000
     28460       229  PMPE      HN3           -15.1023147750      -19.2908925250      -20.3633277995  MEMB      229             0.0000000000
     28461       229  PMPE      C12           -14.7981063646      -17.3071853859      -21.0555889301  MEMB      229             0.0000000000
     28462       229  PMPE      H12A          -14.6727142193      -16.9660773743      -22.1054666735  MEMB      229             0.0000000000
     28463       229  PMPE      H12B          -13.7979964734      -17.3659464345      -20.5753302000  MEMB      229             0.0000000000
     28464       229  PMPE      C11           -15.7203974548      -16.2289229984      -20.4744184990  MEMB      229             0.0000000000
     28465       229  PMPE      H11A          -16.5576795966      -15.9374721475      -21.1439975489  MEMB      229             0.0000000000
     28466       229  PMPE      H11B          -15.0912982123      -15.3614685426      -20.1810281599  MEMB      229             0.0000000000
     28467       229  PMPE      P             -15.6959317719      -16.7010337918      -17.8081962571  MEMB      229             0.0000000000
     28468       229  PMPE      O13           -16.3129649681      -15.5792573916      -17.0580045194  MEMB      229             0.0000000000
     28469       229  PMPE      O14           -14.2049401907      -16.7134886475      -17.9131588250  MEMB      229             0.0000000000
     28470       229  PMPE      O11           -16.1258938833      -18.1024174263      -17.1945450945  MEMB      229             0.0000000000
     28471       229  PMPE      O12           -16.4021061892      -16.7972625815      -19.2958686977  MEMB      229             0.0000000000
     28472       229  PMPE      C1            -16.2063711087      -19.3983061697      -17.7779824944  MEMB      229             0.0000000000
     28473       229  PMPE      HA            -15.5002901566      -19.5424149082      -18.6235612345  MEMB      229             0.0000000000
     28474       229  PMPE      HB            -17.2060566157      -19.4557326096      -18.2592848836  MEMB      229             0.0000000000
     28475       229  PMPE      C2            -15.9459832703      -20.5781411268      -16.7105639929  MEMB      229             0.0000000000
     28476       229  PMPE      HS            -16.5732296154      -21.4606775963      -16.9595864832  MEMB      229             0.0000000000
     28477       229  PMPE      O21           -16.2483395171      -20.1768474085      -15.3870900237  MEMB      229             0.0000000000
     28478       229  PMPE      C21           -17.4708430368      -19.6743664851      -15.0791388585  MEMB      229             0.0000000000
     28479       229  PMPE      O22           -18.4290337175      -19.6415977264      -15.8743574927  MEMB      229             0.0000000000
     28480       229  PMPE      C22           -17.2322830730      -18.8866160933      -13.7121541363  MEMB      229             0.0000000000
     28481       229  PMPE      H2R           -18.1840426321      -18.3613132716      -13.4829569131  MEMB      229             0.0000000000
     28482       229  PMPE      H2S           -16.4238489702      -18.1247686696      -13.6936124983  MEMB      229             0.0000000000
     28483       229  PMPE      C3            -14.4729839767      -21.0679099187      -16.8165769268  MEMB      229             0.0000000000
     28484       229  PMPE      HX            -14.4202791832      -21.6312171708      -17.7727297776  MEMB      229             0.0000000000
     28485       229  PMPE      HY            -14.2362127424      -21.8818134032      -16.0983698710  MEMB      229             0.0000000000
     28486       229  PMPE      O31           -13.4486862237      -20.0233734452      -16.6989850753  MEMB      229             0.0000000000
     28487       229  PMPE      C31           -13.1965603222      -19.5197285778      -15.4560231123  MEMB      229             0.0000000000
     28488       229  PMPE      O32           -13.6819181032      -20.0412026693      -14.4193101409  MEMB      229             0.0000000000
     28489       229  PMPE      C32           -12.4018704515      -18.3290748921      -15.4542042364  MEMB      229             0.0000000000
     28490       229  PMPE      H2X           -12.8553215861      -17.3847266450      -15.8242168429  MEMB      229             0.0000000000
     28491       229  PMPE      H2Y           -11.4434168399      -18.4303479651      -16.0068629495  MEMB      229             0.0000000000
     28492       229  PMPE      C23           -16.9569568623      -19.8757878772      -12.6439391391  MEMB      229             0.0000000000
     28493       229  PMPE      H3R           -15.8874153115      -20.1764536859      -12.6425271839  MEMB      229             0.0000000000
     28494       229  PMPE      H3S           -17.5627216736      -20.8053070603      -12.5859375518  MEMB      229             0.0000000000
     28495       229  PMPE      C24           -17.3395871250      -19.3574448383      -11.2276381344  MEMB      229             0.0000000000
     28496       229  PMPE      H4R           -17.7770843034      -18.3391427438      -11.1503201078  MEMB      229             0.0000000000
     28497       229  PMPE      H4S           -16.4673556549      -19.2501509684      -10.5479162296  MEMB      229             0.0000000000
     28498       229  PMPE      C25           -18.2496418775      -20.3570887543      -10.5242061036  MEMB      229             0.0000000000
     28499       229  PMPE      H5R           -17.8888638371      -21.3985517274      -10.6639032470  MEMB      229             0.0000000000
     28500       229  PMPE      H5S           -19.2156774013      -20.2728484625      -11.0664239056  MEMB      229             0.0000000000
     28501       229  PMPE      C26           -18.5006137467      -19.8359231841       -9.0479212802  MEMB      229             0.0000000000
     28502       229  PMPE      H6R           -19.3613210828      -20.3431820103       -8.5619237773  MEMB      229             0.0000000000
     28503       229  PMPE      H6S           -18.7036651888      -18.7436542346       -9.0416160084  MEMB      229             0.0000000000
     28504       229  PMPE      C27           -17.3021167166      -20.0696005556       -8.1176015916  MEMB      229             0.0000000000
     28505       229  PMPE      H7R           -17.4129501992      -19.4145286886       -7.2271423222  MEMB      229             0.0000000000
     28506       229  PMPE      H7S           -16.3090810207      -19.9282701853       -8.5953325454  MEMB      229             0.0000000000
     28507       229  PMPE      C28           -17.2463388523      -21.5960262179       -7.5863524910  MEMB      229             0.0000000000
     28508       229  PMPE      H8R           -17.2351413298      -22.3771607890       -8.3763042244  MEMB      229             0.0000000000
     28509       229  PMPE      H8S           -18.2282409107      -21.7252032209       -7.0828613882  MEMB      229             0.0000000000
     28510       229  PMPE      C29           -16.0630061834      -21.7583680116       -6.6413821584  MEMB      229             0.0000000000
     28511       229  PMPE      H9R           -15.0489174580      -21.7770233699       -7.0948102520  MEMB      229             0.0000000000
     28512       229  PMPE      C217          -16.2044431642      -22.7392248817       -5.4928002782  MEMB      229             0.0000000000
     28513       229  PMPE      H17R          -15.2475961531      -23.1139332817       -5.1508548525  MEMB      229             0.0000000000
     28514       229  PMPE      H17S          -17.1784620724      -23.1764140012       -5.3110264606  MEMB      229             0.0000000000
     28515       229  PMPE      C210          -16.1975296806      -21.1797900007       -5.2166930353  MEMB      229             0.0000000000
     28516       229  PMPE      H10R          -15.2599962222      -20.8860644908       -4.6979664382  MEMB      229             0.0000000000
     28517       229  PMPE      C211          -17.5169620154      -20.6404731827       -4.6788842950  MEMB      229             0.0000000000
     28518       229  PMPE      H11R          -18.3964075099      -21.2228641400       -5.0277644447  MEMB      229             0.0000000000
     28519       229  PMPE      H11S          -17.5854922076      -19.5649602948       -4.9488773423  MEMB      229             0.0000000000
     28520       229  PMPE      C212          -17.5765284413      -20.5605475736       -3.1681637406  MEMB      229             0.0000000000
     28521       229  PMPE      H12R          -18.4685757006      -20.0247681384       -2.7789157909  MEMB      229             0.0000000000
     28522       229  PMPE      H12S          -16.5989499045      -20.1330579231       -2.8584643948  MEMB      229             0.0000000000
     28523       229  PMPE      C213          -17.6918402175      -21.9612125907       -2.4293034404  MEMB      229             0.0000000000
     28524       229  PMPE      H13R          -16.9222557882      -22.6774682453       -2.7885234805  MEMB      229             0.0000000000
     28525       229  PMPE      H13S          -18.6895317912      -22.3532473746       -2.7212644256  MEMB      229             0.0000000000
     28526       229  PMPE      C214          -17.9232277329      -21.6614320654       -0.9414082627  MEMB      229             0.0000000000
     28527       229  PMPE      H14R          -18.7998353996      -20.9800293624       -0.9017803166  MEMB      229             0.0000000000
     28528       229  PMPE      H14S          -17.0622606561      -21.1297226122       -0.4827777720  MEMB      229             0.0000000000
     28529       229  PMPE      C215          -18.2328576633      -22.7634220931        0.1371136467  MEMB      229             0.0000000000
     28530       229  PMPE      H15R          -18.9700630676      -23.4542082012       -0.3251244087  MEMB      229             0.0000000000
     28531       229  PMPE      H15S          -18.7273586630      -22.1792604704        0.9424361511  MEMB      229             0.0000000000
     28532       229  PMPE      C216          -16.9806082570      -23.4526313472        0.6947168079  MEMB      229             0.0000000000
     28533       229  PMPE      H16R          -17.1557822924      -24.0733525419        1.5993390313  MEMB      229             0.0000000000
     28534       229  PMPE      H16S          -16.3131368748      -23.8700082776       -0.0892473137  MEMB      229             0.0000000000
     28535       229  PMPE      H16T          -16.3632292479      -22.6515949749        1.1546135278  MEMB      229             0.0000000000
     28536       229  PMPE      C33           -12.0935123467      -17.9971074954      -13.9875982678  MEMB      229             0.0000000000
     28537       229  PMPE      H3X           -11.2269197031      -17.3115382205      -13.8721270548  MEMB      229             0.0000000000
     28538       229  PMPE      H3Y           -11.8654915951      -18.9192440562      -13.4114111612  MEMB      229             0.0000000000
     28539       229  PMPE      C34           -13.2463023071      -17.1495079327      -13.2399104661  MEMB      229             0.0000000000
     28540       229  PMPE      H4X           -14.1526813805      -17.6817462254      -13.5997998025  MEMB      229             0.0000000000
     28541       229  PMPE      H4Y           -13.2754088051      -16.1117112556      -13.6354503631  MEMB      229             0.0000000000
     28542       229  PMPE      C35           -13.1691161934      -17.2446812294      -11.7880678751  MEMB      229             0.0000000000
     28543       229  PMPE      H5X           -12.2291874517      -16.8494387718      -11.3468896604  MEMB      229             0.0000000000
     28544       229  PMPE      H5Y           -13.1451892556      -18.3254952517      -11.5319636079  MEMB      229             0.0000000000
     28545       229  PMPE      C36           -14.2868453289      -16.5289588450      -11.0954489760  MEMB      229             0.0000000000
     28546       229  PMPE      H6X           -15.2867349067      -16.9466165132      -11.3406105330  MEMB      229             0.0000000000
     28547       229  PMPE      H6Y           -14.3431948937      -15.4586002022      -11.3878154432  MEMB      229             0.0000000000
     28548       229  PMPE      C37           -14.1608580095      -16.6873192137       -9.5819229910  MEMB      229             0.0000000000
     28549       229  PMPE      H7X           -13.1410607756      -16.3418474859       -9.3080920108  MEMB      229             0.0000000000
     28550       229  PMPE      H7Y           -14.2070066219      -17.7249804262       -9.1876508868  MEMB      229             0.0000000000
     28551       229  PMPE      C38           -15.1473580092      -15.7877661237       -8.9428401428  MEMB      229             0.0000000000
     28552       229  PMPE      H8X           -16.1367583936      -16.0317632526       -9.3854156357  MEMB      229             0.0000000000
     28553       229  PMPE      H8Y           -15.0426539686      -14.7293123202       -9.2638283475  MEMB      229             0.0000000000
     28554       229  PMPE      C39           -15.1107337961      -15.8257884568       -7.3966064921  MEMB      229             0.0000000000
     28555       229  PMPE      H9X           -14.3860467773      -15.0616816162       -7.0426418744  MEMB      229             0.0000000000
     28556       229  PMPE      H9Y           -14.7300949899      -16.8069329872       -7.0405299367  MEMB      229             0.0000000000
     28557       229  PMPE      C310          -16.4933980726      -15.5559725106       -6.8149291235  MEMB      229             0.0000000000
     28558       229  PMPE      H10X          -17.0761121744      -16.3853089431       -7.2698645777  MEMB      229             0.0000000000
     28559       229  PMPE      H10Y          -17.0077226347      -14.6716426859       -7.2482321271  MEMB      229             0.0000000000
     28560       229  PMPE      C311          -16.5905624140      -15.6671145374       -5.3154647667  MEMB      229             0.0000000000
     28561       229  PMPE      H11X          -15.9980181921      -14.8749971736       -4.8097349985  MEMB      229             0.0000000000
     28562       229  PMPE      H11Y          -16.1126132804      -16.6534648001       -5.1338085292  MEMB      229             0.0000000000
     28563       229  PMPE      C312          -18.0445101469      -15.5757120439       -4.8259300651  MEMB      229             0.0000000000
     28564       229  PMPE      H12X          -18.7147663846      -16.0933895100       -5.5450177451  MEMB      229             0.0000000000
     28565       229  PMPE      H12Y          -18.3784509782      -14.5161398366       -4.8364927751  MEMB      229             0.0000000000
     28566       229  PMPE      C313          -18.0842586758      -16.0236645925       -3.3821410432  MEMB      229             0.0000000000
     28567       229  PMPE      H13X          -17.5026755502      -15.2644664003       -2.8167202914  MEMB      229             0.0000000000
     28568       229  PMPE      H13Y          -17.6232691190      -17.0342924901       -3.3611435119  MEMB      229             0.0000000000
     28569       229  PMPE      C314          -19.4774593734      -16.2679727997       -2.8021287907  MEMB      229             0.0000000000
     28570       229  PMPE      H14X          -19.4676240789      -16.9385758488       -1.9163997203  MEMB      229             0.0000000000
     28571       229  PMPE      H14Y          -20.0305356909      -16.8379946206       -3.5789829909  MEMB      229             0.0000000000
     28572       229  PMPE      C315          -20.2311076944      -15.0012113968       -2.4050552057  MEMB      229             0.0000000000
     28573       229  PMPE      H15X          -19.5130740145      -14.1554478304       -2.4636448994  MEMB      229             0.0000000000
     28574       229  PMPE      H15Y          -20.4314543124      -15.1265844179       -1.3194840488  MEMB      229             0.0000000000
     28575       229  PMPE      C316          -21.4526945875      -14.7714538893       -3.3092433766  MEMB      229             0.0000000000
     28576       229  PMPE      H16X          -21.2876578192      -14.5310196223       -4.3812860267  MEMB      229             0.0000000000
     28577       229  PMPE      H16Y          -21.9845398372      -13.8805573431       -2.9120456321  MEMB      229             0.0000000000
     28578       229  PMPE      H16Z          -22.0023577240      -15.7359324590       -3.3536538722  MEMB      229             0.0000000000
     28579       230  PMPE      N              -0.6797180320      -23.1686618141      -21.5766094383  MEMB      230             0.0000000000
     28580       230  PMPE      HN1            -1.0153335697      -22.5040879122      -22.3027664720  MEMB      230             0.0000000000
     28581       230  PMPE      HN2             0.3511218670      -23.3020687541      -21.6108413065  MEMB      230             0.0000000000
     28582       230  PMPE      HN3            -1.1511542579      -24.0955904015      -21.5889064270  MEMB      230             0.0000000000
     28583       230  PMPE      C12            -1.1202049420      -22.4230870527      -20.3356834814  MEMB      230             0.0000000000
     28584       230  PMPE      H12A           -0.6309122522      -21.4568925083      -20.5834366372  MEMB      230             0.0000000000
     28585       230  PMPE      H12B           -0.6487761230      -22.9281470992      -19.4656317056  MEMB      230             0.0000000000
     28586       230  PMPE      C11            -2.6637047325      -22.2395558624      -20.1404274836  MEMB      230             0.0000000000
     28587       230  PMPE      H11A           -3.1959151987      -22.1417016220      -21.1107355503  MEMB      230             0.0000000000
     28588       230  PMPE      H11B           -2.8820163620      -21.2981494164      -19.5923262797  MEMB      230             0.0000000000
     28589       230  PMPE      P              -3.3625859209      -23.4731933290      -17.9197026510  MEMB      230             0.0000000000
     28590       230  PMPE      O13            -4.3709304287      -24.4578692726      -17.5211753290  MEMB      230             0.0000000000
     28591       230  PMPE      O14            -3.4724447821      -22.1245567608      -17.3355712560  MEMB      230             0.0000000000
     28592       230  PMPE      O11            -1.9104911834      -24.0183603177      -17.6444022233  MEMB      230             0.0000000000
     28593       230  PMPE      O12            -3.3080727841      -23.3861603837      -19.5264281517  MEMB      230             0.0000000000
     28594       230  PMPE      C1             -1.4296445523      -25.2866673770      -18.0215929231  MEMB      230             0.0000000000
     28595       230  PMPE      HA             -1.0615372354      -25.2797750455      -19.0698154498  MEMB      230             0.0000000000
     28596       230  PMPE      HB             -2.2455861528      -26.0396724233      -18.0608838689  MEMB      230             0.0000000000
     28597       230  PMPE      C2             -0.4673229855      -25.9109413979      -16.9764546789  MEMB      230             0.0000000000
     28598       230  PMPE      HS             -0.2379182529      -26.9128847710      -17.3981230412  MEMB      230             0.0000000000
     28599       230  PMPE      O21            -1.2245899944      -26.0310292034      -15.7792036621  MEMB      230             0.0000000000
     28600       230  PMPE      C21            -1.0078434939      -27.0963561861      -15.0703547561  MEMB      230             0.0000000000
     28601       230  PMPE      O22            -0.0871441280      -27.8699684669      -15.0308334988  MEMB      230             0.0000000000
     28602       230  PMPE      C22            -2.2337639672      -27.3036196592      -14.1483306258  MEMB      230             0.0000000000
     28603       230  PMPE      H2R            -1.8385128857      -27.9275008287      -13.3183487008  MEMB      230             0.0000000000
     28604       230  PMPE      H2S            -2.9643266559      -27.8820424046      -14.7533317821  MEMB      230             0.0000000000
     28605       230  PMPE      C3              0.8302479716      -25.0978332981      -16.5896209426  MEMB      230             0.0000000000
     28606       230  PMPE      HX              1.5107605931      -25.0355638485      -17.4656040841  MEMB      230             0.0000000000
     28607       230  PMPE      HY              1.4606329007      -25.6680775334      -15.8742486193  MEMB      230             0.0000000000
     28608       230  PMPE      O31             0.5162074200      -23.7680718567      -16.1509399845  MEMB      230             0.0000000000
     28609       230  PMPE      C31             0.4450318793      -23.5573821044      -14.8519231225  MEMB      230             0.0000000000
     28610       230  PMPE      O32             0.5875192739      -24.3803268783      -13.9561803344  MEMB      230             0.0000000000
     28611       230  PMPE      C32            -0.0747064337      -22.0750970540      -14.6686140845  MEMB      230             0.0000000000
     28612       230  PMPE      H2X            -0.3781093049      -21.6238710263      -15.6374601869  MEMB      230             0.0000000000
     28613       230  PMPE      H2Y             0.5964974022      -21.5030309054      -13.9929318468  MEMB      230             0.0000000000
     28614       230  PMPE      C23            -2.8382927198      -25.9873283664      -13.7250296326  MEMB      230             0.0000000000
     28615       230  PMPE      H3R            -3.4984481958      -25.5041729715      -14.4767455218  MEMB      230             0.0000000000
     28616       230  PMPE      H3S            -1.9860007286      -25.2845966235      -13.6063396068  MEMB      230             0.0000000000
     28617       230  PMPE      C24            -3.5822072593      -25.8689956630      -12.4126390539  MEMB      230             0.0000000000
     28618       230  PMPE      H4R            -3.8049071023      -24.7996770537      -12.2094558178  MEMB      230             0.0000000000
     28619       230  PMPE      H4S            -2.7829819419      -26.0797815896      -11.6702580951  MEMB      230             0.0000000000
     28620       230  PMPE      C25            -4.8254050576      -26.8518060682      -12.3231785235  MEMB      230             0.0000000000
     28621       230  PMPE      H5R            -4.5130848476      -27.8902456773      -12.5648813903  MEMB      230             0.0000000000
     28622       230  PMPE      H5S            -5.5902842202      -26.6758776934      -13.1095180672  MEMB      230             0.0000000000
     28623       230  PMPE      C26            -5.6604310698      -26.7466539663      -11.0352883214  MEMB      230             0.0000000000
     28624       230  PMPE      H6R            -6.5192139667      -27.4515001680      -11.0329976658  MEMB      230             0.0000000000
     28625       230  PMPE      H6S            -6.0705248916      -25.7141497402      -11.0441739332  MEMB      230             0.0000000000
     28626       230  PMPE      C27            -4.8545518627      -27.0128898796       -9.7353362344  MEMB      230             0.0000000000
     28627       230  PMPE      H7R            -4.1995135314      -26.1211034578       -9.6355230399  MEMB      230             0.0000000000
     28628       230  PMPE      H7S            -4.1414430784      -27.8525870621       -9.8792301455  MEMB      230             0.0000000000
     28629       230  PMPE      C28            -5.6552897507      -27.3059649338       -8.4115198912  MEMB      230             0.0000000000
     28630       230  PMPE      H8R            -4.8852112138      -27.1470598738       -7.6266323017  MEMB      230             0.0000000000
     28631       230  PMPE      H8S            -5.9631549291      -28.3711204442       -8.4821159436  MEMB      230             0.0000000000
     28632       230  PMPE      C29            -6.8658220121      -26.4603164555       -8.2909207067  MEMB      230             0.0000000000
     28633       230  PMPE      H9R            -7.5700821310      -26.3601145626       -9.1443250216  MEMB      230             0.0000000000
     28634       230  PMPE      C217           -6.4327491305      -25.0929468180       -7.8380704446  MEMB      230             0.0000000000
     28635       230  PMPE      H17R           -6.9862748610      -24.3724508496       -8.4274631869  MEMB      230             0.0000000000
     28636       230  PMPE      H17S           -5.3919736865      -25.0459836516       -7.5423174764  MEMB      230             0.0000000000
     28637       230  PMPE      C210           -7.2990586684      -25.9699286844       -6.9315759643  MEMB      230             0.0000000000
     28638       230  PMPE      H10R           -8.3750700547      -25.6939199431       -6.9499912785  MEMB      230             0.0000000000
     28639       230  PMPE      C211           -6.7876995853      -26.6460688501       -5.7954404850  MEMB      230             0.0000000000
     28640       230  PMPE      H11R           -5.6818600622      -26.7509929608       -5.7746853936  MEMB      230             0.0000000000
     28641       230  PMPE      H11S           -7.1091170629      -27.7094532488       -5.7804223011  MEMB      230             0.0000000000
     28642       230  PMPE      C212           -7.1103697134      -25.9311048943       -4.4971808762  MEMB      230             0.0000000000
     28643       230  PMPE      H12R           -6.7475373060      -26.5276513166       -3.6330016949  MEMB      230             0.0000000000
     28644       230  PMPE      H12S           -8.2112308277      -25.9318704187       -4.3474290916  MEMB      230             0.0000000000
     28645       230  PMPE      C213           -6.6864775755      -24.4763266073       -4.4277147441  MEMB      230             0.0000000000
     28646       230  PMPE      H13R           -7.4080297287      -24.0563641701       -5.1607325093  MEMB      230             0.0000000000
     28647       230  PMPE      H13S           -5.6469511676      -24.3070626379       -4.7813476719  MEMB      230             0.0000000000
     28648       230  PMPE      C214           -7.0050008541      -23.9060823257       -3.0206947586  MEMB      230             0.0000000000
     28649       230  PMPE      H14R           -7.6374877733      -24.5379017755       -2.3610833566  MEMB      230             0.0000000000
     28650       230  PMPE      H14S           -7.5039339190      -22.9227643582       -3.1566076768  MEMB      230             0.0000000000
     28651       230  PMPE      C215           -5.6778443201      -23.5793841767       -2.2388821783  MEMB      230             0.0000000000
     28652       230  PMPE      H15R           -6.0372842308      -22.8212616792       -1.5106132405  MEMB      230             0.0000000000
     28653       230  PMPE      H15S           -4.9919180647      -23.1815042450       -3.0170320139  MEMB      230             0.0000000000
     28654       230  PMPE      C216           -5.0005646208      -24.7174183679       -1.4939326436  MEMB      230             0.0000000000
     28655       230  PMPE      H16R           -4.3423018715      -24.3300061153       -0.6871347647  MEMB      230             0.0000000000
     28656       230  PMPE      H16S           -5.7659336746      -25.3468646864       -0.9916083928  MEMB      230             0.0000000000
     28657       230  PMPE      H16T           -4.3555518879      -25.1863313210       -2.2674955253  MEMB      230             0.0000000000
     28658       230  PMPE      C33            -1.4291713191      -22.2717755616      -13.9441869934  MEMB      230             0.0000000000
     28659       230  PMPE      H3X            -1.3218859960      -22.8161784949      -12.9816712669  MEMB      230             0.0000000000
     28660       230  PMPE      H3Y            -2.0934295448      -23.0216989401      -14.4244958453  MEMB      230             0.0000000000
     28661       230  PMPE      C34            -2.3748755187      -21.0081353978      -13.6803034039  MEMB      230             0.0000000000
     28662       230  PMPE      H4X            -3.3939148531      -21.3735106882      -13.4305423854  MEMB      230             0.0000000000
     28663       230  PMPE      H4Y            -2.4945183022      -20.4376491127      -14.6261109094  MEMB      230             0.0000000000
     28664       230  PMPE      C35            -1.7307394169      -20.0635594545      -12.6622133005  MEMB      230             0.0000000000
     28665       230  PMPE      H5X            -2.3360722294      -19.1333778168      -12.7137432270  MEMB      230             0.0000000000
     28666       230  PMPE      H5Y            -0.6804271809      -19.7423444478      -12.8295051762  MEMB      230             0.0000000000
     28667       230  PMPE      C36            -1.5534688610      -20.5322839676      -11.2075941933  MEMB      230             0.0000000000
     28668       230  PMPE      H6X            -0.9617520975      -19.9139105593      -10.4992108090  MEMB      230             0.0000000000
     28669       230  PMPE      H6Y            -1.0632444708      -21.5197573441      -11.0701256464  MEMB      230             0.0000000000
     28670       230  PMPE      C37            -2.9823017823      -20.7266896301      -10.5698868225  MEMB      230             0.0000000000
     28671       230  PMPE      H7X            -3.5506913518      -21.4873133670      -11.1466934866  MEMB      230             0.0000000000
     28672       230  PMPE      H7Y            -3.5719346064      -19.7925093981      -10.6880469782  MEMB      230             0.0000000000
     28673       230  PMPE      C38            -3.0396602239      -21.0308919074       -9.0884784069  MEMB      230             0.0000000000
     28674       230  PMPE      H8X            -3.9714187447      -20.6844468529       -8.5923710556  MEMB      230             0.0000000000
     28675       230  PMPE      H8Y            -2.2147535361      -20.5758688756       -8.4995779316  MEMB      230             0.0000000000
     28676       230  PMPE      C39            -2.9909873325      -22.5727812327       -8.7783314099  MEMB      230             0.0000000000
     28677       230  PMPE      H9X            -2.0866565808      -22.9614292196       -9.2935594587  MEMB      230             0.0000000000
     28678       230  PMPE      H9Y            -3.8907299120      -22.9950354218       -9.2748044424  MEMB      230             0.0000000000
     28679       230  PMPE      C310           -2.5934858149      -22.8904719584       -7.3553790136  MEMB      230             0.0000000000
     28680       230  PMPE      H10X           -3.4615523319      -22.8319533833       -6.6644683949  MEMB      230             0.0000000000
     28681       230  PMPE      H10Y           -1.7549640987      -22.1772246922       -7.2054430470  MEMB      230             0.0000000000
     28682       230  PMPE      C311           -2.0151889558      -24.3118428975       -7.1235264657  MEMB      230             0.0000000000
     28683       230  PMPE      H11X           -1.5118432410      -24.4437352364       -8.1051420695  MEMB      230             0.0000000000
     28684       230  PMPE      H11Y           -2.7658341057      -25.1278764032       -7.0532252101  MEMB      230             0.0000000000
     28685       230  PMPE      C312           -1.0940401588      -24.4553782393       -5.8871389821  MEMB      230             0.0000000000
     28686       230  PMPE      H12X           -0.4627996988      -23.5607813364       -6.0756931192  MEMB      230             0.0000000000
     28687       230  PMPE      H12Y           -0.4934990651      -25.3879200399       -5.9506780352  MEMB      230             0.0000000000
     28688       230  PMPE      C313           -1.7908411139      -24.2460835214       -4.5977082224  MEMB      230             0.0000000000
     28689       230  PMPE      H13X           -2.6619630889      -24.9323625751       -4.6647054195  MEMB      230             0.0000000000
     28690       230  PMPE      H13Y           -2.1944922027      -23.2123059711       -4.6495811918  MEMB      230             0.0000000000
     28691       230  PMPE      C314           -0.9317654757      -24.3413771968       -3.3199524750  MEMB      230             0.0000000000
     28692       230  PMPE      H14X           -1.6324776722      -24.1734109509       -2.4743102946  MEMB      230             0.0000000000
     28693       230  PMPE      H14Y           -0.2267032444      -23.4831756275       -3.3463760292  MEMB      230             0.0000000000
     28694       230  PMPE      C315           -0.2199968584      -25.6313816796       -3.1193259920  MEMB      230             0.0000000000
     28695       230  PMPE      H15X            0.7105955623      -25.7843332661       -3.7066288293  MEMB      230             0.0000000000
     28696       230  PMPE      H15Y           -1.0181011155      -26.4028623733       -3.1658901715  MEMB      230             0.0000000000
     28697       230  PMPE      C316            0.4219411957      -25.7945415005       -1.6635442060  MEMB      230             0.0000000000
     28698       230  PMPE      H16X            1.2507215430      -25.0750339753       -1.4910529642  MEMB      230             0.0000000000
     28699       230  PMPE      H16Y            0.8447784977      -26.8122176098       -1.5226012754  MEMB      230             0.0000000000
     28700       230  PMPE      H16Z           -0.3453173498      -25.8259633156       -0.8606443760  MEMB      230             0.0000000000
     28701       231  PMPG      C13             0.8326559642       21.1194991774      -18.7548406304  MEMB      231             0.0000000000
     28702       231  PMPG      H13A            1.3757323600       21.3944819722      -17.8254464837  MEMB      231             0.0000000000
     28703       231  PMPG      H13B           -0.2334444819       21.4079651423      -18.6342662933  MEMB      231             0.0000000000
     28704       231  PMPG      OC3             0.7728788182       19.7514606817      -18.9509334015  MEMB      231             0.0000000000
     28705       231  PMPG      HO3             0.8102701600       19.4473326751      -18.0411487628  MEMB      231             0.0000000000
     28706       231  PMPG      C12             1.5146265607       21.9637413636      -19.9095890241  MEMB      231             0.0000000000
     28707       231  PMPG      H12A            1.1806825023       21.5279811299      -20.8798330267  MEMB      231             0.0000000000
     28708       231  PMPG      OC2             2.9356258983       21.8394098613      -19.8364901166  MEMB      231             0.0000000000
     28709       231  PMPG      HO2             3.2491273914       22.4968183562      -20.4954648694  MEMB      231             0.0000000000
     28710       231  PMPG      C11             1.0572869694       23.4420755455      -19.8272914062  MEMB      231             0.0000000000
     28711       231  PMPG      H11A           -0.0523946586       23.4914398649      -19.8494493511  MEMB      231             0.0000000000
     28712       231  PMPG      H11B            1.3017261080       23.9310494395      -20.7944909119  MEMB      231             0.0000000000
     28713       231  PMPG      P               2.7786864162       25.0444787324      -18.6188036073  MEMB      231             0.0000000000
     28714       231  PMPG      O13             2.4223960799       26.4497190983      -18.2658333082  MEMB      231             0.0000000000
     28715       231  PMPG      O14             3.6280690242       24.6983720740      -19.8118716948  MEMB      231             0.0000000000
     28716       231  PMPG      O11             3.4043077588       24.3230563322      -17.3343315218  MEMB      231             0.0000000000
     28717       231  PMPG      O12             1.5410200145       24.1695801329      -18.6900152925  MEMB      231             0.0000000000
     28718       231  PMPG      C1              4.8266816381       24.3837907340      -17.0783605938  MEMB      231             0.0000000000
     28719       231  PMPG      HA              5.1432688991       25.4447456841      -16.9863384968  MEMB      231             0.0000000000
     28720       231  PMPG      HB              5.4375838352       23.8406509305      -17.8307690462  MEMB      231             0.0000000000
     28721       231  PMPG      C2              5.2366003271       23.7600105742      -15.7393691219  MEMB      231             0.0000000000
     28722       231  PMPG      HS              6.3180022050       23.5070228856      -15.7691730658  MEMB      231             0.0000000000
     28723       231  PMPG      O21             4.4010995383       22.6201590361      -15.5235951809  MEMB      231             0.0000000000
     28724       231  PMPG      C21             4.8550428043       21.3751026206      -15.5224158022  MEMB      231             0.0000000000
     28725       231  PMPG      O22             6.0144950101       21.1051259037      -15.7506193755  MEMB      231             0.0000000000
     28726       231  PMPG      C22             3.8001302735       20.3623735801      -14.9977485060  MEMB      231             0.0000000000
     28727       231  PMPG      H2R             4.3252206613       19.5566389319      -14.4415175148  MEMB      231             0.0000000000
     28728       231  PMPG      H2S             3.3289644579       19.8937821293      -15.8881110278  MEMB      231             0.0000000000
     28729       231  PMPG      C3              5.0990428081       24.7697873662      -14.4551768357  MEMB      231             0.0000000000
     28730       231  PMPG      HX              5.9930319081       25.4200432730      -14.5659569737  MEMB      231             0.0000000000
     28731       231  PMPG      HY              5.3044912935       24.1160132879      -13.5807107474  MEMB      231             0.0000000000
     28732       231  PMPG      O31             3.8174872533       25.5154726945      -14.4005724310  MEMB      231             0.0000000000
     28733       231  PMPG      C31             3.6004169691       25.9639435295      -13.1979633425  MEMB      231             0.0000000000
     28734       231  PMPG      O32             4.4231480263       25.9242682075      -12.2530166193  MEMB      231             0.0000000000
     28735       231  PMPG      C32             2.1126107424       26.5028930841      -13.1885730965  MEMB      231             0.0000000000
     28736       231  PMPG      H2X             1.5100703081       26.0864470320      -14.0239408083  MEMB      231             0.0000000000
     28737       231  PMPG      H2Y             2.1636109080       27.6052724040      -13.3169461627  MEMB      231             0.0000000000
     28738       231  PMPG      C23             2.7166406423       21.0343877753      -14.1511269674  MEMB      231             0.0000000000
     28739       231  PMPG      H3R             1.9494117422       20.2377784075      -14.0457963286  MEMB      231             0.0000000000
     28740       231  PMPG      H3S             2.2294991761       21.9080211630      -14.6346336679  MEMB      231             0.0000000000
     28741       231  PMPG      C24             3.2030006624       21.2949292761      -12.6693575115  MEMB      231             0.0000000000
     28742       231  PMPG      H4R             3.9990213485       22.0699595655      -12.6698484855  MEMB      231             0.0000000000
     28743       231  PMPG      H4S             3.6941619385       20.4176244436      -12.1966864120  MEMB      231             0.0000000000
     28744       231  PMPG      C25             2.0021524988       21.7412814596      -11.8627322922  MEMB      231             0.0000000000
     28745       231  PMPG      H5R             1.2915675956       20.8873693742      -11.8477534760  MEMB      231             0.0000000000
     28746       231  PMPG      H5S             1.5991542984       22.6818825808      -12.2953788492  MEMB      231             0.0000000000
     28747       231  PMPG      C26             2.4030970661       21.8982548951      -10.3675260698  MEMB      231             0.0000000000
     28748       231  PMPG      H6R             2.7642627914       20.9051520573      -10.0245574337  MEMB      231             0.0000000000
     28749       231  PMPG      H6S             1.4580814181       22.2188313224       -9.8791636066  MEMB      231             0.0000000000
     28750       231  PMPG      C27             3.4152102946       23.0680870473      -10.0266716659  MEMB      231             0.0000000000
     28751       231  PMPG      H7R             3.0616621351       24.0056409790      -10.5065856834  MEMB      231             0.0000000000
     28752       231  PMPG      H7S             4.4586981062       22.9486234882      -10.3888634196  MEMB      231             0.0000000000
     28753       231  PMPG      C28             3.6912172451       23.2425557945       -8.5092777014  MEMB      231             0.0000000000
     28754       231  PMPG      H8R             4.3006106660       22.3831911466       -8.1564994913  MEMB      231             0.0000000000
     28755       231  PMPG      H8S             2.8010879932       23.4085341105       -7.8655059593  MEMB      231             0.0000000000
     28756       231  PMPG      C29             4.3655940718       24.6905799763       -8.3057353281  MEMB      231             0.0000000000
     28757       231  PMPG      H9R             5.4057459296       24.7069241753       -8.6957840784  MEMB      231             0.0000000000
     28758       231  PMPG      C217            3.4561877770       25.8491080119       -8.3429818066  MEMB      231             0.0000000000
     28759       231  PMPG      H17R            3.9017611047       26.5961807394       -8.9881443608  MEMB      231             0.0000000000
     28760       231  PMPG      H17S            2.3812625460       25.7422829213       -8.2654375322  MEMB      231             0.0000000000
     28761       231  PMPG      C210            4.1803109003       25.4622303705       -7.0459453650  MEMB      231             0.0000000000
     28762       231  PMPG      H10R            4.9396541026       26.2438343999       -6.8295806719  MEMB      231             0.0000000000
     28763       231  PMPG      C211            3.2871320682       25.1131715107       -5.8660336541  MEMB      231             0.0000000000
     28764       231  PMPG      H11R            2.4029077618       24.5326099264       -6.2057638001  MEMB      231             0.0000000000
     28765       231  PMPG      H11S            3.8415143264       24.4889741223       -5.1329863922  MEMB      231             0.0000000000
     28766       231  PMPG      C212            2.7255061920       26.4017780666       -5.2387271194  MEMB      231             0.0000000000
     28767       231  PMPG      H12R            2.2133433236       26.9853264062       -6.0333851143  MEMB      231             0.0000000000
     28768       231  PMPG      H12S            3.6451020393       27.0009190495       -5.0664070690  MEMB      231             0.0000000000
     28769       231  PMPG      C213            1.8850619031       26.2210929794       -3.9266263646  MEMB      231             0.0000000000
     28770       231  PMPG      H13R            0.9991875276       25.5792358661       -4.1204486834  MEMB      231             0.0000000000
     28771       231  PMPG      H13S            1.5323795558       27.2009614852       -3.5395938460  MEMB      231             0.0000000000
     28772       231  PMPG      C214            2.5480867981       25.4832071222       -2.7352796023  MEMB      231             0.0000000000
     28773       231  PMPG      H14R            2.6928724606       24.4579476050       -3.1380215229  MEMB      231             0.0000000000
     28774       231  PMPG      H14S            1.8743651970       25.3982473780       -1.8559614677  MEMB      231             0.0000000000
     28775       231  PMPG      C215            3.8846011953       26.0444118918       -2.2886264333  MEMB      231             0.0000000000
     28776       231  PMPG      H15R            4.6548521715       25.9697040087       -3.0857787905  MEMB      231             0.0000000000
     28777       231  PMPG      H15S            4.2150977217       25.4682131391       -1.3980706164  MEMB      231             0.0000000000
     28778       231  PMPG      C216            3.8676884048       27.5981861071       -1.9808843035  MEMB      231             0.0000000000
     28779       231  PMPG      H16R            4.8403078926       27.7725467582       -1.4730164421  MEMB      231             0.0000000000
     28780       231  PMPG      H16S            3.0505505893       27.8494251749       -1.2713174966  MEMB      231             0.0000000000
     28781       231  PMPG      H16T            3.7890342644       28.1908247156       -2.9173218369  MEMB      231             0.0000000000
     28782       231  PMPG      C33             1.3754113042       26.1931637270      -11.8180173579  MEMB      231             0.0000000000
     28783       231  PMPG      H3X             2.0630240698       26.4248878213      -10.9767006534  MEMB      231             0.0000000000
     28784       231  PMPG      H3Y             1.0411615218       25.1336463578      -11.8226190214  MEMB      231             0.0000000000
     28785       231  PMPG      C34             0.1405238025       27.0999086498      -11.5342429265  MEMB      231             0.0000000000
     28786       231  PMPG      H4X            -0.5132108880       26.9357569259      -12.4174224221  MEMB      231             0.0000000000
     28787       231  PMPG      H4Y             0.4139915638       28.1764858919      -11.5114828896  MEMB      231             0.0000000000
     28788       231  PMPG      C35            -0.5543281735       26.7544623178      -10.2233906680  MEMB      231             0.0000000000
     28789       231  PMPG      H5X            -1.3201723865       27.4516501534       -9.8212293821  MEMB      231             0.0000000000
     28790       231  PMPG      H5Y             0.2102626003       26.8188412892       -9.4199130648  MEMB      231             0.0000000000
     28791       231  PMPG      C36            -1.1028373032       25.3440783083      -10.1947778876  MEMB      231             0.0000000000
     28792       231  PMPG      H6X            -0.3411978743       24.5623610923      -10.4024899078  MEMB      231             0.0000000000
     28793       231  PMPG      H6Y            -1.8970732561       25.1885400934      -10.9559071372  MEMB      231             0.0000000000
     28794       231  PMPG      C37            -1.7901369410       24.8713129087       -8.9430901080  MEMB      231             0.0000000000
     28795       231  PMPG      H7X            -2.2669782411       23.8976175227       -9.1857023155  MEMB      231             0.0000000000
     28796       231  PMPG      H7Y            -2.5722776545       25.6257065270       -8.7118609548  MEMB      231             0.0000000000
     28797       231  PMPG      C38            -0.8957314338       24.6854598084       -7.6661307031  MEMB      231             0.0000000000
     28798       231  PMPG      H8X            -0.6580809224       25.6830592560       -7.2387683347  MEMB      231             0.0000000000
     28799       231  PMPG      H8Y             0.0202808973       24.2562339528       -8.1254867327  MEMB      231             0.0000000000
     28800       231  PMPG      C39            -1.5204902273       23.7284806646       -6.6723381015  MEMB      231             0.0000000000
     28801       231  PMPG      H9X            -1.9190317546       22.8071926576       -7.1484824704  MEMB      231             0.0000000000
     28802       231  PMPG      H9Y            -2.3602600827       24.2812842309       -6.1995633916  MEMB      231             0.0000000000
     28803       231  PMPG      C310           -0.3641483535       23.1902342630       -5.7501874397  MEMB      231             0.0000000000
     28804       231  PMPG      H10X            0.1577398815       24.0392652270       -5.2591681854  MEMB      231             0.0000000000
     28805       231  PMPG      H10Y            0.3504097528       22.6565621936       -6.4126986890  MEMB      231             0.0000000000
     28806       231  PMPG      C311           -0.9421140743       22.2648323244       -4.6384364822  MEMB      231             0.0000000000
     28807       231  PMPG      H11X           -1.5133940124       21.4462589395       -5.1261834215  MEMB      231             0.0000000000
     28808       231  PMPG      H11Y           -1.6347362624       22.9288696526       -4.0783915030  MEMB      231             0.0000000000
     28809       231  PMPG      C312            0.1297423752       21.6520933918       -3.6753995648  MEMB      231             0.0000000000
     28810       231  PMPG      H12X            0.8058835424       22.4193146395       -3.2412051737  MEMB      231             0.0000000000
     28811       231  PMPG      H12Y            0.8273861396       20.9995613623       -4.2426882821  MEMB      231             0.0000000000
     28812       231  PMPG      C313           -0.5730339730       21.1358150521       -2.4026892985  MEMB      231             0.0000000000
     28813       231  PMPG      H13X           -1.2545646830       20.2891257510       -2.6328075596  MEMB      231             0.0000000000
     28814       231  PMPG      H13Y           -1.3019599422       21.8515372392       -1.9659641299  MEMB      231             0.0000000000
     28815       231  PMPG      C314            0.3925103910       20.6326192274       -1.2774550087  MEMB      231             0.0000000000
     28816       231  PMPG      H14X            0.8210031802       19.7705611365       -1.8320458968  MEMB      231             0.0000000000
     28817       231  PMPG      H14Y           -0.2028846573       20.1964427792       -0.4470471091  MEMB      231             0.0000000000
     28818       231  PMPG      C315            1.5873568885       21.5285296157       -0.8498580836  MEMB      231             0.0000000000
     28819       231  PMPG      H15X            2.1911415008       21.8641820375       -1.7199749049  MEMB      231             0.0000000000
     28820       231  PMPG      H15Y            2.2201958483       21.0670738069       -0.0618902810  MEMB      231             0.0000000000
     28821       231  PMPG      C316            1.0567763547       22.7916257225       -0.1982800189  MEMB      231             0.0000000000
     28822       231  PMPG      H16X            1.9527727815       23.2938206965        0.2251737823  MEMB      231             0.0000000000
     28823       231  PMPG      H16Y            0.2748400418       22.6450479351        0.5772282484  MEMB      231             0.0000000000
     28824       231  PMPG      H16Z            0.6087733557       23.4630397398       -0.9617049370  MEMB      231             0.0000000000
     28825       232  PMPE      N             -27.9565262589       -3.6009161530      -19.7267240462  MEMB      232             0.0000000000
     28826       232  PMPE      HN1           -28.4897699290       -4.2658999241      -20.3225829158  MEMB      232             0.0000000000
     28827       232  PMPE      HN2           -27.4097615619       -4.1196396407      -19.0100831714  MEMB      232             0.0000000000
     28828       232  PMPE      HN3           -28.5667879644       -2.8687083436      -19.3107283729  MEMB      232             0.0000000000
     28829       232  PMPE      C12           -26.8917575670       -2.8846585615      -20.4909087202  MEMB      232             0.0000000000
     28830       232  PMPE      H12A          -27.3675800459       -2.0339632443      -21.0240422667  MEMB      232             0.0000000000
     28831       232  PMPE      H12B          -26.5228088244       -3.6064457758      -21.2506593742  MEMB      232             0.0000000000
     28832       232  PMPE      C11           -25.7759055669       -2.4630347568      -19.5708833239  MEMB      232             0.0000000000
     28833       232  PMPE      H11A          -26.0178591643       -1.9718872494      -18.6041602327  MEMB      232             0.0000000000
     28834       232  PMPE      H11B          -25.2428531494       -1.7626736171      -20.2488731958  MEMB      232             0.0000000000
     28835       232  PMPE      P             -23.5766625925       -3.4811548353      -18.4668248105  MEMB      232             0.0000000000
     28836       232  PMPE      O13           -22.7764789122       -2.2667305845      -18.8355405685  MEMB      232             0.0000000000
     28837       232  PMPE      O14           -22.8606502104       -4.7560121392      -18.4992177249  MEMB      232             0.0000000000
     28838       232  PMPE      O11           -24.1789288896       -3.2327951903      -17.0827842400  MEMB      232             0.0000000000
     28839       232  PMPE      O12           -24.8302308007       -3.5466793805      -19.3271165646  MEMB      232             0.0000000000
     28840       232  PMPE      C1            -24.9225829439       -4.0681525679      -16.2999851659  MEMB      232             0.0000000000
     28841       232  PMPE      HA            -24.2323713023       -4.8139160271      -15.8508018420  MEMB      232             0.0000000000
     28842       232  PMPE      HB            -25.6996220729       -4.6076106794      -16.8826653644  MEMB      232             0.0000000000
     28843       232  PMPE      C2            -25.6461069266       -3.3150654468      -15.1094169888  MEMB      232             0.0000000000
     28844       232  PMPE      HS            -26.3429992923       -2.5708997232      -15.5508687429  MEMB      232             0.0000000000
     28845       232  PMPE      O21           -24.5586657576       -2.7640242563      -14.2944454727  MEMB      232             0.0000000000
     28846       232  PMPE      C21           -24.9134682484       -1.7568172697      -13.5357892423  MEMB      232             0.0000000000
     28847       232  PMPE      O22           -25.9644050927       -1.1270414226      -13.6156373325  MEMB      232             0.0000000000
     28848       232  PMPE      C22           -23.6631394409       -1.3486707323      -12.6266274594  MEMB      232             0.0000000000
     28849       232  PMPE      H2R           -22.9474299693       -0.8134605542      -13.2866506906  MEMB      232             0.0000000000
     28850       232  PMPE      H2S           -23.1191307761       -2.2387924011      -12.2444506737  MEMB      232             0.0000000000
     28851       232  PMPE      C3            -26.5159842087       -4.3241763252      -14.3445094873  MEMB      232             0.0000000000
     28852       232  PMPE      HX            -25.7884434844       -5.0547032083      -13.9305820969  MEMB      232             0.0000000000
     28853       232  PMPE      HY            -27.1320271784       -4.9423868468      -15.0319887854  MEMB      232             0.0000000000
     28854       232  PMPE      O31           -27.4326443868       -3.7194897280      -13.4331395030  MEMB      232             0.0000000000
     28855       232  PMPE      C31           -27.0166395202       -3.6625570451      -12.1325555438  MEMB      232             0.0000000000
     28856       232  PMPE      O32           -25.9463439352       -4.0240196695      -11.6908070442  MEMB      232             0.0000000000
     28857       232  PMPE      C32           -28.1955599602       -3.0589079071      -11.2752210706  MEMB      232             0.0000000000
     28858       232  PMPE      H2X           -29.1167825065       -3.6665885318      -11.4032623250  MEMB      232             0.0000000000
     28859       232  PMPE      H2Y           -28.3889823480       -2.0524908327      -11.7042124614  MEMB      232             0.0000000000
     28860       232  PMPE      C23           -24.1555635591       -0.5598533635      -11.3412183780  MEMB      232             0.0000000000
     28861       232  PMPE      H3R           -24.9371248814       -1.1361423623      -10.8014270706  MEMB      232             0.0000000000
     28862       232  PMPE      H3S           -24.5838462304        0.2989152693      -11.9010496444  MEMB      232             0.0000000000
     28863       232  PMPE      C24           -23.1011395221        0.0105781277      -10.4360326273  MEMB      232             0.0000000000
     28864       232  PMPE      H4R           -23.6617244267        0.7569906332       -9.8335927643  MEMB      232             0.0000000000
     28865       232  PMPE      H4S           -22.2210345008        0.4835596307      -10.9218560572  MEMB      232             0.0000000000
     28866       232  PMPE      C25           -22.4442041386       -1.1465487382       -9.6700336276  MEMB      232             0.0000000000
     28867       232  PMPE      H5R           -21.9364814719       -1.8718717771      -10.3411859227  MEMB      232             0.0000000000
     28868       232  PMPE      H5S           -23.3123122595       -1.6710428986       -9.2165852130  MEMB      232             0.0000000000
     28869       232  PMPE      C26           -21.5519967133       -0.6417384666       -8.4995901944  MEMB      232             0.0000000000
     28870       232  PMPE      H6R           -22.2394949495       -0.2310268518       -7.7295356281  MEMB      232             0.0000000000
     28871       232  PMPE      H6S           -20.8574250374        0.1244169552       -8.9056648037  MEMB      232             0.0000000000
     28872       232  PMPE      C27           -20.7671842747       -1.8111163957       -7.9119969407  MEMB      232             0.0000000000
     28873       232  PMPE      H7R           -19.9873189126       -1.4520844693       -7.2068546109  MEMB      232             0.0000000000
     28874       232  PMPE      H7S           -20.3478570256       -2.4348939433       -8.7301577843  MEMB      232             0.0000000000
     28875       232  PMPE      C28           -21.7840547773       -2.7062939340       -7.1374326694  MEMB      232             0.0000000000
     28876       232  PMPE      H8R           -22.3638235607       -3.3365658361       -7.8452078037  MEMB      232             0.0000000000
     28877       232  PMPE      H8S           -22.6100688613       -2.1147732103       -6.6878497882  MEMB      232             0.0000000000
     28878       232  PMPE      C29           -21.0301902906       -3.4336551296       -6.0035254167  MEMB      232             0.0000000000
     28879       232  PMPE      H9R           -20.9100867161       -2.8294084563       -5.0789811535  MEMB      232             0.0000000000
     28880       232  PMPE      C217          -19.9089572591       -4.4891991291       -6.3544959613  MEMB      232             0.0000000000
     28881       232  PMPE      H17R          -19.1722596644       -4.6587784716       -5.5789903918  MEMB      232             0.0000000000
     28882       232  PMPE      H17S          -19.9527095659       -4.7537862526       -7.4037665088  MEMB      232             0.0000000000
     28883       232  PMPE      C210          -21.3533587388       -4.8633901809       -5.7880836581  MEMB      232             0.0000000000
     28884       232  PMPE      H10R          -21.3327243974       -5.1209348510       -4.7075443465  MEMB      232             0.0000000000
     28885       232  PMPE      C211          -22.3786113309       -5.4985816445       -6.6717604807  MEMB      232             0.0000000000
     28886       232  PMPE      H11R          -22.2920522074       -6.6058848561       -6.6451523360  MEMB      232             0.0000000000
     28887       232  PMPE      H11S          -22.1557892929       -5.2417201157       -7.7294433844  MEMB      232             0.0000000000
     28888       232  PMPE      C212          -23.7652310753       -5.0345287870       -6.3341799411  MEMB      232             0.0000000000
     28889       232  PMPE      H12R          -24.5498412764       -5.5576913356       -6.9215547381  MEMB      232             0.0000000000
     28890       232  PMPE      H12S          -23.8570109902       -3.9604043254       -6.6027954193  MEMB      232             0.0000000000
     28891       232  PMPE      C213          -24.1223230618       -5.1609310921       -4.8896165807  MEMB      232             0.0000000000
     28892       232  PMPE      H13R          -25.1788166473       -4.8204667809       -4.8424330031  MEMB      232             0.0000000000
     28893       232  PMPE      H13S          -23.5478823111       -4.4438924511       -4.2649603391  MEMB      232             0.0000000000
     28894       232  PMPE      C214          -24.1176187521       -6.5532091280       -4.2855647054  MEMB      232             0.0000000000
     28895       232  PMPE      H14R          -23.0650498296       -6.8974432534       -4.1965557770  MEMB      232             0.0000000000
     28896       232  PMPE      H14S          -24.7237759095       -7.1866963988       -4.9679054309  MEMB      232             0.0000000000
     28897       232  PMPE      C215          -24.5804603432       -6.5551797389       -2.7922344298  MEMB      232             0.0000000000
     28898       232  PMPE      H15R          -23.8365158736       -5.9468023813       -2.2347903892  MEMB      232             0.0000000000
     28899       232  PMPE      H15S          -24.5022400131       -7.5569647178       -2.3182834546  MEMB      232             0.0000000000
     28900       232  PMPE      C216          -25.9347203819       -5.8383534003       -2.4929551982  MEMB      232             0.0000000000
     28901       232  PMPE      H16R          -26.7670890893       -6.0814840871       -3.1874838241  MEMB      232             0.0000000000
     28902       232  PMPE      H16S          -26.0729368866       -6.0692169195       -1.4150304799  MEMB      232             0.0000000000
     28903       232  PMPE      H16T          -25.7195624640       -4.7544924598       -2.6081660071  MEMB      232             0.0000000000
     28904       232  PMPE      C33           -27.9097689492       -2.9423507338       -9.7965117516  MEMB      232             0.0000000000
     28905       232  PMPE      H3X           -28.7627926727       -2.3664487879       -9.3781717535  MEMB      232             0.0000000000
     28906       232  PMPE      H3Y           -26.9545190176       -2.4123829127       -9.5941439423  MEMB      232             0.0000000000
     28907       232  PMPE      C34           -27.9524680405       -4.3101986870       -9.0813423726  MEMB      232             0.0000000000
     28908       232  PMPE      H4X           -27.1426250561       -4.9788270294       -9.4438492725  MEMB      232             0.0000000000
     28909       232  PMPE      H4Y           -28.9798454647       -4.7003268107       -9.2444880935  MEMB      232             0.0000000000
     28910       232  PMPE      C35           -27.6856276527       -4.3545781761       -7.5697653985  MEMB      232             0.0000000000
     28911       232  PMPE      H5X           -26.6729469228       -4.0049605693       -7.2755444471  MEMB      232             0.0000000000
     28912       232  PMPE      H5Y           -27.8631090932       -5.3698902397       -7.1550816530  MEMB      232             0.0000000000
     28913       232  PMPE      C36           -28.6384014914       -3.4557070854       -6.7911672089  MEMB      232             0.0000000000
     28914       232  PMPE      H6X           -29.6447229234       -3.9184620091       -6.7045906112  MEMB      232             0.0000000000
     28915       232  PMPE      H6Y           -28.7591757787       -2.4363038280       -7.2160813691  MEMB      232             0.0000000000
     28916       232  PMPE      C37           -28.1172919951       -3.0039687871       -5.4321261811  MEMB      232             0.0000000000
     28917       232  PMPE      H7X           -27.8612411966       -3.8088605428       -4.7103863873  MEMB      232             0.0000000000
     28918       232  PMPE      H7Y           -29.0163866699       -2.4737094670       -5.0516331358  MEMB      232             0.0000000000
     28919       232  PMPE      C38           -26.9953418672       -2.0805353156       -5.3094685309  MEMB      232             0.0000000000
     28920       232  PMPE      H8X           -27.1705906607       -1.2622355044       -6.0402177718  MEMB      232             0.0000000000
     28921       232  PMPE      H8Y           -26.1432513583       -2.7685438805       -5.4963035486  MEMB      232             0.0000000000
     28922       232  PMPE      C39           -26.9047759551       -1.5272257978       -3.8842858873  MEMB      232             0.0000000000
     28923       232  PMPE      H9X           -26.8680259194       -2.3099379320       -3.0966743098  MEMB      232             0.0000000000
     28924       232  PMPE      H9Y           -27.8161710675       -0.9038032062       -3.7617117567  MEMB      232             0.0000000000
     28925       232  PMPE      C310          -25.7994323313       -0.5543952222       -3.4542100363  MEMB      232             0.0000000000
     28926       232  PMPE      H10X          -26.0404383574        0.1058532165       -2.5937988759  MEMB      232             0.0000000000
     28927       232  PMPE      H10Y          -25.6758138957        0.1434732012       -4.3097920376  MEMB      232             0.0000000000
     28928       232  PMPE      C311          -24.4706856842       -1.3321271401       -3.0829408875  MEMB      232             0.0000000000
     28929       232  PMPE      H11X          -23.5247533824       -0.7971139729       -3.3137956374  MEMB      232             0.0000000000
     28930       232  PMPE      H11Y          -24.4791414979       -2.2565522369       -3.6991294772  MEMB      232             0.0000000000
     28931       232  PMPE      C312          -24.5473331820       -1.9532422836       -1.6633981564  MEMB      232             0.0000000000
     28932       232  PMPE      H12X          -25.4654907625       -2.5667691921       -1.5413646528  MEMB      232             0.0000000000
     28933       232  PMPE      H12Y          -24.5716054408       -1.0702560116       -0.9895533171  MEMB      232             0.0000000000
     28934       232  PMPE      C313          -23.3300672310       -2.8080513001       -1.3687886547  MEMB      232             0.0000000000
     28935       232  PMPE      H13X          -22.4058752708       -2.1932258929       -1.4154786296  MEMB      232             0.0000000000
     28936       232  PMPE      H13Y          -23.2382268496       -3.7170996270       -2.0008642106  MEMB      232             0.0000000000
     28937       232  PMPE      C314          -23.5375624777       -3.4000947752        0.0164055574  MEMB      232             0.0000000000
     28938       232  PMPE      H14X          -24.4591800161       -4.0141576365       -0.0723002737  MEMB      232             0.0000000000
     28939       232  PMPE      H14Y          -23.6924331450       -2.7106537608        0.8737315582  MEMB      232             0.0000000000
     28940       232  PMPE      C315          -22.4014344906       -4.3322984408        0.2938611628  MEMB      232             0.0000000000
     28941       232  PMPE      H15X          -22.4445211367       -5.0770836130       -0.5294003957  MEMB      232             0.0000000000
     28942       232  PMPE      H15Y          -22.5392381936       -4.8188121353        1.2831206177  MEMB      232             0.0000000000
     28943       232  PMPE      C316          -21.0152905338       -3.7401212005        0.2331151950  MEMB      232             0.0000000000
     28944       232  PMPE      H16X          -20.2607309800       -4.4758895657        0.5846915651  MEMB      232             0.0000000000
     28945       232  PMPE      H16Y          -20.8151888064       -2.8530938464        0.8714440804  MEMB      232             0.0000000000
     28946       232  PMPE      H16Z          -20.7594976045       -3.4989417453       -0.8207933556  MEMB      232             0.0000000000
     28947       233  QMPE      N              26.9983795818        1.7025868015      -15.9959532959  MEMB      233             0.0000000000
     28948       233  QMPE      HN1            27.8078018839        2.3129912516      -16.2279915338  MEMB      233             0.0000000000
     28949       233  QMPE      HN2            26.7243606139        2.2530291542      -15.1571879960  MEMB      233             0.0000000000
     28950       233  QMPE      HN3            27.2234878233        0.7603810895      -15.6175687722  MEMB      233             0.0000000000
     28951       233  QMPE      C12            25.8964161923        1.4234158093      -16.9501822331  MEMB      233             0.0000000000
     28952       233  QMPE      H12A           25.4897411666        2.3634412160      -17.3806338356  MEMB      233             0.0000000000
     28953       233  QMPE      H12B           25.0501957073        0.8710095946      -16.4885769819  MEMB      233             0.0000000000
     28954       233  QMPE      C11            26.4549075461        0.7360365344      -18.2275177455  MEMB      233             0.0000000000
     28955       233  QMPE      H11A           27.1233058306       -0.0755901715      -17.8685934086  MEMB      233             0.0000000000
     28956       233  QMPE      H11B           26.9056652986        1.5523568949      -18.8314710339  MEMB      233             0.0000000000
     28957       233  QMPE      P              24.6658458870        0.9676699485      -20.2578217994  MEMB      233             0.0000000000
     28958       233  QMPE      O13            23.9480983963       -0.0382731769      -21.1142942767  MEMB      233             0.0000000000
     28959       233  QMPE      O14            25.6583303653        1.7430867970      -20.8944043593  MEMB      233             0.0000000000
     28960       233  QMPE      O11            23.6291225458        1.9141025981      -19.4960343215  MEMB      233             0.0000000000
     28961       233  QMPE      O12            25.4096282881        0.2349368901      -19.0637919686  MEMB      233             0.0000000000
     28962       233  QMPE      C1             22.8198179849        1.3766851487      -18.5125378602  MEMB      233             0.0000000000
     28963       233  QMPE      HA             23.3574946613        0.7087970924      -17.8060321953  MEMB      233             0.0000000000
     28964       233  QMPE      HB             21.9757045567        0.8734305416      -19.0307350870  MEMB      233             0.0000000000
     28965       233  QMPE      C2             22.3432208952        2.6206953242      -17.6809544713  MEMB      233             0.0000000000
     28966       233  QMPE      HS             21.5437430807        3.1004275706      -18.2851175187  MEMB      233             0.0000000000
     28967       233  QMPE      O21            23.3541820671        3.4542377607      -17.2999778993  MEMB      233             0.0000000000
     28968       233  QMPE      C21            23.1011503419        4.6991317166      -16.9711826774  MEMB      233             0.0000000000
     28969       233  QMPE      O22            21.9716365146        5.2363504634      -16.9430572176  MEMB      233             0.0000000000
     28970       233  QMPE      C22            24.3843230672        5.3976088398      -16.5965181944  MEMB      233             0.0000000000
     28971       233  QMPE      H2R            24.3649290694        6.3979746620      -17.0794394635  MEMB      233             0.0000000000
     28972       233  QMPE      H2S            25.3603282030        4.9323015111      -16.8519083343  MEMB      233             0.0000000000
     28973       233  QMPE      C3             21.6028030823        2.0681686422      -16.4911171874  MEMB      233             0.0000000000
     28974       233  QMPE      HX             20.8296752155        1.3437712125      -16.8255455752  MEMB      233             0.0000000000
     28975       233  QMPE      HY             21.1008724109        2.9833384355      -16.1105247275  MEMB      233             0.0000000000
     28976       233  QMPE      O31            22.4524567713        1.4841958493      -15.5385866382  MEMB      233             0.0000000000
     28977       233  QMPE      C31            21.9702844828        0.4226052030      -14.8040631113  MEMB      233             0.0000000000
     28978       233  QMPE      O32            20.8090574911        0.0512815616      -14.8836015502  MEMB      233             0.0000000000
     28979       233  QMPE      C32            23.1224707119       -0.1461209678      -13.9414257753  MEMB      233             0.0000000000
     28980       233  QMPE      H2X            23.1674762286       -1.2552704775      -13.9870628797  MEMB      233             0.0000000000
     28981       233  QMPE      H2Y            24.1172073707        0.2035500633      -14.2914973159  MEMB      233             0.0000000000
     28982       233  QMPE      C23            24.4266872167        5.6327914659      -15.0365117334  MEMB      233             0.0000000000
     28983       233  QMPE      H3R            23.4223146392        5.9832532270      -14.7159912828  MEMB      233             0.0000000000
     28984       233  QMPE      H3S            25.2569993018        6.3005870784      -14.7219457558  MEMB      233             0.0000000000
     28985       233  QMPE      C24            24.6138937480        4.3162488542      -14.2743505952  MEMB      233             0.0000000000
     28986       233  QMPE      H4R            25.7134937604        4.1852368842      -14.1847033986  MEMB      233             0.0000000000
     28987       233  QMPE      H4S            24.0868219882        3.4967324993      -14.8081195034  MEMB      233             0.0000000000
     28988       233  QMPE      C25            23.9429327990        4.3078209238      -12.8933855742  MEMB      233             0.0000000000
     28989       233  QMPE      H5R            24.1290003439        3.2952991341      -12.4756542030  MEMB      233             0.0000000000
     28990       233  QMPE      H5S            22.8394362060        4.3803156522      -12.9999735594  MEMB      233             0.0000000000
     28991       233  QMPE      C26            24.3941975172        5.3376998777      -11.8364058410  MEMB      233             0.0000000000
     28992       233  QMPE      H6R            24.0802551631        6.3471131158      -12.1782337326  MEMB      233             0.0000000000
     28993       233  QMPE      H6S            25.4939239964        5.3179064397      -11.6797820178  MEMB      233             0.0000000000
     28994       233  QMPE      C27            23.7490779594        4.9815055268      -10.4576359976  MEMB      233             0.0000000000
     28995       233  QMPE      H7R            24.2451988142        4.0572262735      -10.0917222128  MEMB      233             0.0000000000
     28996       233  QMPE      H7S            22.7002647009        4.6724260553      -10.6545667620  MEMB      233             0.0000000000
     28997       233  QMPE      C28            23.7880094438        6.0824683073       -9.3669868898  MEMB      233             0.0000000000
     28998       233  QMPE      H8R            23.3113499366        7.0020443575       -9.7688526049  MEMB      233             0.0000000000
     28999       233  QMPE      H8S            24.8489379044        6.3570479508       -9.1843456097  MEMB      233             0.0000000000
     29000       233  QMPE      C29            23.1832553926        5.5032936903       -8.0221916618  MEMB      233             0.0000000000
     29001       233  QMPE      H9R            23.3609406177        4.4196445480       -7.8535094644  MEMB      233             0.0000000000
     29002       233  QMPE      C217           21.7361147978        6.0494022306       -7.9331346915  MEMB      233             0.0000000000
     29003       233  QMPE      H17R           21.5703602384        6.7152345992       -8.7710383159  MEMB      233             0.0000000000
     29004       233  QMPE      H17S           21.0476429763        5.2989687882       -7.5646986293  MEMB      233             0.0000000000
     29005       233  QMPE      C210           22.6991798957        6.4064921821       -6.9163938699  MEMB      233             0.0000000000
     29006       233  QMPE      H10R           22.3883771628        5.9313854566       -5.9614083048  MEMB      233             0.0000000000
     29007       233  QMPE      C211           22.8807088892        7.9580443123       -6.9978341739  MEMB      233             0.0000000000
     29008       233  QMPE      H11R           22.8140935530        8.4204010188       -8.0058568685  MEMB      233             0.0000000000
     29009       233  QMPE      H11S           22.1951392697        8.4860812674       -6.3010613856  MEMB      233             0.0000000000
     29010       233  QMPE      C212           24.3071079938        8.2530122840       -6.4632874031  MEMB      233             0.0000000000
     29011       233  QMPE      H12R           24.7226495913        9.2732699076       -6.6072346952  MEMB      233             0.0000000000
     29012       233  QMPE      H12S           24.9397146935        7.5208901718       -7.0092978418  MEMB      233             0.0000000000
     29013       233  QMPE      C213           24.4506115322        7.9830470032       -4.9215889246  MEMB      233             0.0000000000
     29014       233  QMPE      H13R           25.5327073249        8.0534661689       -4.6798638041  MEMB      233             0.0000000000
     29015       233  QMPE      H13S           24.2952652187        6.9311048387       -4.5997100658  MEMB      233             0.0000000000
     29016       233  QMPE      C214           23.6682615696        9.0021579696       -4.0982724216  MEMB      233             0.0000000000
     29017       233  QMPE      H14R           22.5669437595        8.8582186340       -4.0717874717  MEMB      233             0.0000000000
     29018       233  QMPE      H14S           23.8409660510       10.0077908996       -4.5378133798  MEMB      233             0.0000000000
     29019       233  QMPE      C215           24.1261772637        9.2643834201       -2.5812710891  MEMB      233             0.0000000000
     29020       233  QMPE      H15R           24.1266402252        8.2046526617       -2.2476672903  MEMB      233             0.0000000000
     29021       233  QMPE      H15S           23.3191347384        9.7689382974       -2.0081838175  MEMB      233             0.0000000000
     29022       233  QMPE      C216           25.5305178923        9.9736723862       -2.4467932017  MEMB      233             0.0000000000
     29023       233  QMPE      H16R           25.9348351656        9.9749190019       -1.4119754010  MEMB      233             0.0000000000
     29024       233  QMPE      H16S           25.3902633276       11.0318283919       -2.7549423158  MEMB      233             0.0000000000
     29025       233  QMPE      H16T           26.1728985928        9.5317900747       -3.2382529466  MEMB      233             0.0000000000
     29026       233  QMPE      C33            22.9505666359        0.2172239623      -12.4748183821  MEMB      233             0.0000000000
     29027       233  QMPE      H3X            22.1190979716       -0.3920608904      -12.0603878596  MEMB      233             0.0000000000
     29028       233  QMPE      H3Y            22.6693512462        1.2903620908      -12.4147029606  MEMB      233             0.0000000000
     29029       233  QMPE      C34            24.2009108237       -0.0255906409      -11.5814244461  MEMB      233             0.0000000000
     29030       233  QMPE      H4X            24.9440092076        0.7998828810      -11.6082482248  MEMB      233             0.0000000000
     29031       233  QMPE      H4Y            24.5610493247       -1.0536633095      -11.7997993833  MEMB      233             0.0000000000
     29032       233  QMPE      C35            23.9248423228       -0.1137798353      -10.1022919995  MEMB      233             0.0000000000
     29033       233  QMPE      H5X            23.0346072333       -0.7569225806       -9.9344534493  MEMB      233             0.0000000000
     29034       233  QMPE      H5Y            23.6902208955        0.8795909812       -9.6635579432  MEMB      233             0.0000000000
     29035       233  QMPE      C36            25.1862014591       -0.6865262101       -9.4076681203  MEMB      233             0.0000000000
     29036       233  QMPE      H6X            25.4886569521       -1.6223759245       -9.9244147514  MEMB      233             0.0000000000
     29037       233  QMPE      H6Y            24.9070309168       -0.9759366485       -8.3719915134  MEMB      233             0.0000000000
     29038       233  QMPE      C37            26.3815868084        0.2485193622       -9.3736242070  MEMB      233             0.0000000000
     29039       233  QMPE      H7X            26.9820774826        0.2868072665      -10.3075757724  MEMB      233             0.0000000000
     29040       233  QMPE      H7Y            26.0496672526        1.2504789290       -9.0268852022  MEMB      233             0.0000000000
     29041       233  QMPE      C38            27.4639390245       -0.0027228752       -8.2888018466  MEMB      233             0.0000000000
     29042       233  QMPE      H8X            28.0124499102       -0.9609030138       -8.4126858198  MEMB      233             0.0000000000
     29043       233  QMPE      H8Y            28.1428700548        0.8756062395       -8.2450818192  MEMB      233             0.0000000000
     29044       233  QMPE      C39            26.7856043585       -0.0134286569       -6.8241552743  MEMB      233             0.0000000000
     29045       233  QMPE      H9X            26.4023157456       -1.0449573495       -6.6713196328  MEMB      233             0.0000000000
     29046       233  QMPE      H9Y            25.8794023609        0.6259837354       -6.7588019290  MEMB      233             0.0000000000
     29047       233  QMPE      C310           27.6921547894        0.4118495306       -5.6016139409  MEMB      233             0.0000000000
     29048       233  QMPE      H10X           28.2738457696        1.3082377457       -5.9056615072  MEMB      233             0.0000000000
     29049       233  QMPE      H10Y           28.3670299995       -0.4569071271       -5.4462893450  MEMB      233             0.0000000000
     29050       233  QMPE      C311           26.9170071106        0.4588010933       -4.3206498369  MEMB      233             0.0000000000
     29051       233  QMPE      H11X           27.6005727610        0.1238202689       -3.5114233569  MEMB      233             0.0000000000
     29052       233  QMPE      H11Y           26.0278825113       -0.2068147916       -4.2935595487  MEMB      233             0.0000000000
     29053       233  QMPE      C312           26.3127419349        1.8931107239       -4.0638402632  MEMB      233             0.0000000000
     29054       233  QMPE      H12X           25.3915770984        1.9675276399       -4.6804744682  MEMB      233             0.0000000000
     29055       233  QMPE      H12Y           27.0071128520        2.6239384537       -4.5308098862  MEMB      233             0.0000000000
     29056       233  QMPE      C313           25.9043372127        2.1775820257       -2.5867979028  MEMB      233             0.0000000000
     29057       233  QMPE      H13X           26.2598890689        1.3539142914       -1.9314537846  MEMB      233             0.0000000000
     29058       233  QMPE      H13Y           26.5017606620        3.0881195175       -2.3669605900  MEMB      233             0.0000000000
     29059       233  QMPE      C314           24.4218530918        2.5915136559       -2.5309835444  MEMB      233             0.0000000000
     29060       233  QMPE      H14X           23.8473279984        1.7399030644       -2.9540679010  MEMB      233             0.0000000000
     29061       233  QMPE      H14Y           24.2765069004        3.4932936112       -3.1634295191  MEMB      233             0.0000000000
     29062       233  QMPE      C315           23.8476515290        2.8948998453       -1.1650588457  MEMB      233             0.0000000000
     29063       233  QMPE      H15X           24.4782245245        3.6690581769       -0.6778434643  MEMB      233             0.0000000000
     29064       233  QMPE      H15Y           22.7624245193        3.1288981417       -1.2080482308  MEMB      233             0.0000000000
     29065       233  QMPE      H15Z           23.9747184267        1.9837875374       -0.5421234031  MEMB      233             0.0000000000
     29066       234  PMPG      C13           -13.8947116080       23.4147092522      -18.6427616850  MEMB      234             0.0000000000
     29067       234  PMPG      H13A          -13.5044268502       23.4032696173      -17.6026329240  MEMB      234             0.0000000000
     29068       234  PMPG      H13B          -13.5745547555       24.3371380844      -19.1728046628  MEMB      234             0.0000000000
     29069       234  PMPG      OC3           -15.3550737025       23.4772148069      -18.5619052485  MEMB      234             0.0000000000
     29070       234  PMPG      HO3           -15.5883950804       22.9614733761      -17.7865525244  MEMB      234             0.0000000000
     29071       234  PMPG      C12           -13.2474435536       22.2026048370      -19.4125518064  MEMB      234             0.0000000000
     29072       234  PMPG      H12A          -12.1489736145       22.2405966178      -19.2262739022  MEMB      234             0.0000000000
     29073       234  PMPG      OC2           -13.4611728970       22.3416539847      -20.8179079863  MEMB      234             0.0000000000
     29074       234  PMPG      HO2           -13.1448935184       21.4832732878      -21.1754926251  MEMB      234             0.0000000000
     29075       234  PMPG      C11           -13.7090156417       20.7917317410      -18.9873084745  MEMB      234             0.0000000000
     29076       234  PMPG      H11A          -13.4967423187       20.6688340022      -17.9037231544  MEMB      234             0.0000000000
     29077       234  PMPG      H11B          -13.1314474404       20.1045064127      -19.6418751055  MEMB      234             0.0000000000
     29078       234  PMPG      P             -15.5736782473       19.2268270644      -18.7223702738  MEMB      234             0.0000000000
     29079       234  PMPG      O13           -14.8271749009       18.2027294410      -19.4695987699  MEMB      234             0.0000000000
     29080       234  PMPG      O14           -17.0289354400       19.1514086688      -18.9067231220  MEMB      234             0.0000000000
     29081       234  PMPG      O11           -15.1787902870       19.0473999656      -17.2257630809  MEMB      234             0.0000000000
     29082       234  PMPG      O12           -15.0912617224       20.6832692431      -19.2531095558  MEMB      234             0.0000000000
     29083       234  PMPG      C1            -15.5302806370       20.1885428589      -16.4172314866  MEMB      234             0.0000000000
     29084       234  PMPG      HA            -16.3544802476       20.0054436743      -15.6950883662  MEMB      234             0.0000000000
     29085       234  PMPG      HB            -15.7795229422       21.1786596136      -16.8552588635  MEMB      234             0.0000000000
     29086       234  PMPG      C2            -14.3574312300       20.4977474932      -15.4474986568  MEMB      234             0.0000000000
     29087       234  PMPG      HS            -13.4681081281       20.8919253598      -15.9842008611  MEMB      234             0.0000000000
     29088       234  PMPG      O21           -14.1447047746       19.2194988294      -14.8017995282  MEMB      234             0.0000000000
     29089       234  PMPG      C21           -12.9734906835       19.1816715978      -14.0809599940  MEMB      234             0.0000000000
     29090       234  PMPG      O22           -11.9902909107       19.9134810355      -14.2319605736  MEMB      234             0.0000000000
     29091       234  PMPG      C22           -13.0877485435       18.0428208745      -12.9896460914  MEMB      234             0.0000000000
     29092       234  PMPG      H2R           -12.6480956664       17.1231540853      -13.4315050430  MEMB      234             0.0000000000
     29093       234  PMPG      H2S           -14.1693842733       17.8857447322      -12.7903667330  MEMB      234             0.0000000000
     29094       234  PMPG      C3            -14.8212018022       21.5422006658      -14.3897582178  MEMB      234             0.0000000000
     29095       234  PMPG      HX            -14.9573511932       22.5680037136      -14.7941251043  MEMB      234             0.0000000000
     29096       234  PMPG      HY            -13.9561957732       21.5549212989      -13.6926758119  MEMB      234             0.0000000000
     29097       234  PMPG      O31           -16.0018725491       21.0444070964      -13.7128197641  MEMB      234             0.0000000000
     29098       234  PMPG      C31           -16.3797092105       21.9072192192      -12.7090192668  MEMB      234             0.0000000000
     29099       234  PMPG      O32           -15.7341796542       22.8609277503      -12.3420152400  MEMB      234             0.0000000000
     29100       234  PMPG      C32           -17.8330611980       21.7043390661      -12.5133014435  MEMB      234             0.0000000000
     29101       234  PMPG      H2X           -18.2177903030       20.8497481337      -13.1099413370  MEMB      234             0.0000000000
     29102       234  PMPG      H2Y           -18.3165109845       22.6643392469      -12.7943658149  MEMB      234             0.0000000000
     29103       234  PMPG      C23           -12.0918215088       18.3612214895      -11.8226125489  MEMB      234             0.0000000000
     29104       234  PMPG      H3R           -11.2526005312       18.9582890075      -12.2391933460  MEMB      234             0.0000000000
     29105       234  PMPG      H3S           -11.5789220890       17.4063282126      -11.5788219920  MEMB      234             0.0000000000
     29106       234  PMPG      C24           -12.7810159778       18.8145780863      -10.4799957845  MEMB      234             0.0000000000
     29107       234  PMPG      H4R           -11.9395107384       18.9114401984       -9.7611028322  MEMB      234             0.0000000000
     29108       234  PMPG      H4S           -13.3130469564       17.9237146968      -10.0829740412  MEMB      234             0.0000000000
     29109       234  PMPG      C25           -13.5383540443       20.1056237132      -10.6419872173  MEMB      234             0.0000000000
     29110       234  PMPG      H5R           -14.0991646664       20.3831079560       -9.7239373345  MEMB      234             0.0000000000
     29111       234  PMPG      H5S           -14.2976104053       19.9440451850      -11.4368101908  MEMB      234             0.0000000000
     29112       234  PMPG      C26           -12.6141664983       21.2876850291      -11.0139232671  MEMB      234             0.0000000000
     29113       234  PMPG      H6R           -13.1969004696       22.1854004606      -11.3119988709  MEMB      234             0.0000000000
     29114       234  PMPG      H6S           -12.1637279433       20.8859748494      -11.9466906196  MEMB      234             0.0000000000
     29115       234  PMPG      C27           -11.4649158257       21.6193083816       -9.9740319139  MEMB      234             0.0000000000
     29116       234  PMPG      H7R           -10.8471469799       22.4972186997      -10.2603120850  MEMB      234             0.0000000000
     29117       234  PMPG      H7S           -10.8216702102       20.7153173203      -10.0319648985  MEMB      234             0.0000000000
     29118       234  PMPG      C28           -11.9659531790       21.7419348319       -8.5265038828  MEMB      234             0.0000000000
     29119       234  PMPG      H8R           -11.0556876887       22.1178766643       -8.0123006111  MEMB      234             0.0000000000
     29120       234  PMPG      H8S           -12.3396945961       20.7845097081       -8.1046325184  MEMB      234             0.0000000000
     29121       234  PMPG      C29           -13.0675919723       22.7676021701       -8.3488815353  MEMB      234             0.0000000000
     29122       234  PMPG      H9R           -13.3058434758       23.4811556447       -9.1664380804  MEMB      234             0.0000000000
     29123       234  PMPG      C217          -14.2964314377       22.3888308365       -7.6136012282  MEMB      234             0.0000000000
     29124       234  PMPG      H17R          -15.1494218219       22.9508225072       -7.9734093828  MEMB      234             0.0000000000
     29125       234  PMPG      H17S          -14.2418035362       21.3072107552       -7.6119200291  MEMB      234             0.0000000000
     29126       234  PMPG      C210          -13.1628274793       23.3216118240       -7.0088241664  MEMB      234             0.0000000000
     29127       234  PMPG      H10R          -13.4958289404       24.3809227522       -7.0447569528  MEMB      234             0.0000000000
     29128       234  PMPG      C211          -12.4976642121       22.8524918607       -5.7951785390  MEMB      234             0.0000000000
     29129       234  PMPG      H11R          -11.8697325374       21.9542719179       -5.9774519173  MEMB      234             0.0000000000
     29130       234  PMPG      H11S          -11.7096996277       23.5661456333       -5.4724853589  MEMB      234             0.0000000000
     29131       234  PMPG      C212          -13.5571656747       22.5224067684       -4.7807672167  MEMB      234             0.0000000000
     29132       234  PMPG      H12R          -12.9729544260       22.0394556611       -3.9685009735  MEMB      234             0.0000000000
     29133       234  PMPG      H12S          -14.3029446695       21.7681456881       -5.1112592632  MEMB      234             0.0000000000
     29134       234  PMPG      C213          -14.4073118689       23.6519513746       -4.1730614080  MEMB      234             0.0000000000
     29135       234  PMPG      H13R          -14.6782973656       24.2895466713       -5.0416001403  MEMB      234             0.0000000000
     29136       234  PMPG      H13S          -13.8097300568       24.3194173405       -3.5160177012  MEMB      234             0.0000000000
     29137       234  PMPG      C214          -15.5832509725       23.1807860986       -3.2738798852  MEMB      234             0.0000000000
     29138       234  PMPG      H14R          -16.2716240495       22.5794239874       -3.9054073908  MEMB      234             0.0000000000
     29139       234  PMPG      H14S          -16.1866306180       24.0574558559       -2.9549685522  MEMB      234             0.0000000000
     29140       234  PMPG      C215          -15.0053925308       22.4032913025       -2.0997611044  MEMB      234             0.0000000000
     29141       234  PMPG      H15R          -14.1442338547       22.9187958319       -1.6233360094  MEMB      234             0.0000000000
     29142       234  PMPG      H15S          -14.6592061791       21.4741196813       -2.6008760027  MEMB      234             0.0000000000
     29143       234  PMPG      C216          -16.0899874644       21.9479226329       -1.0833018288  MEMB      234             0.0000000000
     29144       234  PMPG      H16R          -15.5788398466       22.0019468178       -0.0983503223  MEMB      234             0.0000000000
     29145       234  PMPG      H16S          -16.4324797641       20.9393951155       -1.3993579899  MEMB      234             0.0000000000
     29146       234  PMPG      H16T          -16.9470270928       22.6310339444       -1.2654091067  MEMB      234             0.0000000000
     29147       234  PMPG      C33           -18.1433563823       21.5462054878      -11.1130338803  MEMB      234             0.0000000000
     29148       234  PMPG      H3X           -19.2228922771       21.7130679810      -10.9103514103  MEMB      234             0.0000000000
     29149       234  PMPG      H3Y           -17.5966976507       22.2971717361      -10.5034967948  MEMB      234             0.0000000000
     29150       234  PMPG      C34           -17.8667577527       20.0896110846      -10.6517924638  MEMB      234             0.0000000000
     29151       234  PMPG      H4X           -16.7648493348       20.0251767410      -10.7781528077  MEMB      234             0.0000000000
     29152       234  PMPG      H4Y           -18.3690003332       19.4402868105      -11.4004250713  MEMB      234             0.0000000000
     29153       234  PMPG      C35           -18.2782282961       19.9289003431       -9.1192469365  MEMB      234             0.0000000000
     29154       234  PMPG      H5X           -19.3828549320       20.0475666858       -9.1129557621  MEMB      234             0.0000000000
     29155       234  PMPG      H5Y           -17.8782956544       20.7752129148       -8.5208078911  MEMB      234             0.0000000000
     29156       234  PMPG      C36           -17.8616908660       18.6947015800       -8.4652621343  MEMB      234             0.0000000000
     29157       234  PMPG      H6X           -17.9908413913       17.7996526877       -9.1106523973  MEMB      234             0.0000000000
     29158       234  PMPG      H6Y           -18.5630881286       18.5137159719       -7.6228805806  MEMB      234             0.0000000000
     29159       234  PMPG      C37           -16.4306296754       18.6725244891       -7.8414726878  MEMB      234             0.0000000000
     29160       234  PMPG      H7X           -16.4037565860       19.4939050317       -7.0938547262  MEMB      234             0.0000000000
     29161       234  PMPG      H7Y           -15.7446907581       18.8370359005       -8.6998112215  MEMB      234             0.0000000000
     29162       234  PMPG      C38           -16.0778323493       17.3897556458       -7.1128086625  MEMB      234             0.0000000000
     29163       234  PMPG      H8X           -16.4579313111       16.5636646307       -7.7511028163  MEMB      234             0.0000000000
     29164       234  PMPG      H8Y           -16.6480164838       17.3022516435       -6.1633066024  MEMB      234             0.0000000000
     29165       234  PMPG      C39           -14.6290900478       17.1656245566       -6.7736024501  MEMB      234             0.0000000000
     29166       234  PMPG      H9X           -13.8982170075       17.2986220259       -7.5997124010  MEMB      234             0.0000000000
     29167       234  PMPG      H9Y           -14.4554261377       16.1432334296       -6.3750080804  MEMB      234             0.0000000000
     29168       234  PMPG      C310          -14.3758376948       18.1668926723       -5.6304376135  MEMB      234             0.0000000000
     29169       234  PMPG      H10X          -15.1869378852       18.0149896707       -4.8865538205  MEMB      234             0.0000000000
     29170       234  PMPG      H10Y          -14.3139998701       19.1940872758       -6.0492075600  MEMB      234             0.0000000000
     29171       234  PMPG      C311          -12.9360975973       18.0708645015       -5.0132573997  MEMB      234             0.0000000000
     29172       234  PMPG      H11X          -12.2498769469       18.5231527266       -5.7608251786  MEMB      234             0.0000000000
     29173       234  PMPG      H11Y          -12.7447323706       16.9884914790       -4.8514879312  MEMB      234             0.0000000000
     29174       234  PMPG      C312          -12.6634215789       18.7322232235       -3.7555434982  MEMB      234             0.0000000000
     29175       234  PMPG      H12X          -13.3114296486       18.3253860223       -2.9500057861  MEMB      234             0.0000000000
     29176       234  PMPG      H12Y          -12.9775239619       19.7969341916       -3.8008314764  MEMB      234             0.0000000000
     29177       234  PMPG      C313          -11.2008859172       18.6744151811       -3.3299284330  MEMB      234             0.0000000000
     29178       234  PMPG      H13X          -10.5827545925       19.2312588221       -4.0662433792  MEMB      234             0.0000000000
     29179       234  PMPG      H13Y          -10.8525845666       17.6194470209       -3.3229129312  MEMB      234             0.0000000000
     29180       234  PMPG      C314          -11.0322294336       19.0960548313       -1.8240014429  MEMB      234             0.0000000000
     29181       234  PMPG      H14X          -11.1699118482       20.1984083819       -1.8105530653  MEMB      234             0.0000000000
     29182       234  PMPG      H14Y           -9.9668028460       18.9981349218       -1.5246726317  MEMB      234             0.0000000000
     29183       234  PMPG      C315          -11.9336217777       18.3622983934       -0.9141035511  MEMB      234             0.0000000000
     29184       234  PMPG      H15X          -12.0612473407       17.2906153761       -1.1777865460  MEMB      234             0.0000000000
     29185       234  PMPG      H15Y          -12.9813413336       18.7317541699       -0.9244507715  MEMB      234             0.0000000000
     29186       234  PMPG      C316          -11.2944976747       18.1408971504        0.4991516011  MEMB      234             0.0000000000
     29187       234  PMPG      H16X          -11.2635014233       19.0968548625        1.0643988159  MEMB      234             0.0000000000
     29188       234  PMPG      H16Y          -10.2936837280       17.6587222611        0.4850334157  MEMB      234             0.0000000000
     29189       234  PMPG      H16Z          -12.0332908414       17.4599073331        0.9732381740  MEMB      234             0.0000000000
     29190       235  PMPE      N              10.9255124913      -21.4257167406      -19.1991880354  MEMB      235             0.0000000000
     29191       235  PMPE      HN1            11.2088532418      -21.9313556192      -18.3356792374  MEMB      235             0.0000000000
     29192       235  PMPE      HN2            10.0400415948      -20.9153642708      -19.0066217247  MEMB      235             0.0000000000
     29193       235  PMPE      HN3            10.7734818065      -22.1622846120      -19.9174877895  MEMB      235             0.0000000000
     29194       235  PMPE      C12            11.9686569558      -20.4071447355      -19.6129899523  MEMB      235             0.0000000000
     29195       235  PMPE      H12A           12.0403287185      -19.6733685674      -18.7818722718  MEMB      235             0.0000000000
     29196       235  PMPE      H12B           11.5660371085      -19.8752302322      -20.5014072246  MEMB      235             0.0000000000
     29197       235  PMPE      C11            13.3257893974      -21.1085411612      -19.9075382858  MEMB      235             0.0000000000
     29198       235  PMPE      H11A           13.9194194844      -20.1798804213      -20.0472294671  MEMB      235             0.0000000000
     29199       235  PMPE      H11B           13.3553085934      -21.6000675542      -20.9034555579  MEMB      235             0.0000000000
     29200       235  PMPE      P              15.3704875880      -22.2793047201      -18.6691007686  MEMB      235             0.0000000000
     29201       235  PMPE      O13            16.0805206608      -22.4740945226      -19.9768757685  MEMB      235             0.0000000000
     29202       235  PMPE      O14            15.4619800991      -23.3656610008      -17.6753384931  MEMB      235             0.0000000000
     29203       235  PMPE      O11            15.8289163685      -20.8781428214      -18.0590143189  MEMB      235             0.0000000000
     29204       235  PMPE      O12            13.8435804413      -22.0136662992      -18.8999543774  MEMB      235             0.0000000000
     29205       235  PMPE      C1             15.1076392027      -20.0454760943      -17.2160530185  MEMB      235             0.0000000000
     29206       235  PMPE      HA             14.0219628299      -20.2497441964      -17.3339609205  MEMB      235             0.0000000000
     29207       235  PMPE      HB             15.1975998490      -18.9513426529      -17.3866404303  MEMB      235             0.0000000000
     29208       235  PMPE      C2             15.5582033891      -20.1497174951      -15.7107927740  MEMB      235             0.0000000000
     29209       235  PMPE      HS             16.3913830636      -19.4148552087      -15.7212819676  MEMB      235             0.0000000000
     29210       235  PMPE      O21            15.9240742398      -21.4587288358      -15.3154473617  MEMB      235             0.0000000000
     29211       235  PMPE      C21            17.2915372783      -21.7585341361      -15.2381797556  MEMB      235             0.0000000000
     29212       235  PMPE      O22            18.1628736934      -21.0544738965      -15.6216669719  MEMB      235             0.0000000000
     29213       235  PMPE      C22            17.4970608891      -23.1669706947      -14.7353388768  MEMB      235             0.0000000000
     29214       235  PMPE      H2R            18.2419382101      -23.6156996427      -15.4268020867  MEMB      235             0.0000000000
     29215       235  PMPE      H2S            16.5624219793      -23.7541965895      -14.8615804790  MEMB      235             0.0000000000
     29216       235  PMPE      C3             14.3823624999      -19.6253004584      -14.8136658852  MEMB      235             0.0000000000
     29217       235  PMPE      HX             13.3914565953      -20.1066453942      -14.9576571416  MEMB      235             0.0000000000
     29218       235  PMPE      HY             14.2096033310      -18.5651352198      -15.0974349037  MEMB      235             0.0000000000
     29219       235  PMPE      O31            14.7689667226      -19.8454010560      -13.4435352663  MEMB      235             0.0000000000
     29220       235  PMPE      C31            15.7189250130      -19.0125482446      -13.0146306502  MEMB      235             0.0000000000
     29221       235  PMPE      O32            16.0066358087      -18.0049702995      -13.5889126177  MEMB      235             0.0000000000
     29222       235  PMPE      C32            16.4011270583      -19.5282449814      -11.8053991785  MEMB      235             0.0000000000
     29223       235  PMPE      H2X            17.4405761068      -19.8548195339      -12.0226914159  MEMB      235             0.0000000000
     29224       235  PMPE      H2Y            15.9204645652      -20.4337433999      -11.3771970347  MEMB      235             0.0000000000
     29225       235  PMPE      C23            17.9196325323      -23.2444296604      -13.2827178947  MEMB      235             0.0000000000
     29226       235  PMPE      H3R            18.5295765357      -22.3783851215      -12.9476712914  MEMB      235             0.0000000000
     29227       235  PMPE      H3S            18.6061278099      -24.0949722981      -13.0836648132  MEMB      235             0.0000000000
     29228       235  PMPE      C24            16.7485928798      -23.2892182514      -12.3229477008  MEMB      235             0.0000000000
     29229       235  PMPE      H4R            16.1993766358      -22.3666561105      -12.6085378724  MEMB      235             0.0000000000
     29230       235  PMPE      H4S            17.1645257051      -23.1919501359      -11.2973457532  MEMB      235             0.0000000000
     29231       235  PMPE      C25            15.7911195159      -24.5797702079      -12.4335176871  MEMB      235             0.0000000000
     29232       235  PMPE      H5R            16.3884199632      -25.5070847788      -12.5663353511  MEMB      235             0.0000000000
     29233       235  PMPE      H5S            15.1025061125      -24.2739742978      -13.2499863048  MEMB      235             0.0000000000
     29234       235  PMPE      C26            14.8450991797      -24.5781446958      -11.1673517896  MEMB      235             0.0000000000
     29235       235  PMPE      H6R            15.3095510265      -24.8009934014      -10.1830019962  MEMB      235             0.0000000000
     29236       235  PMPE      H6S            14.0500092660      -25.3526205422      -11.2157277160  MEMB      235             0.0000000000
     29237       235  PMPE      C27            14.1827017455      -23.2291509224      -10.9062103751  MEMB      235             0.0000000000
     29238       235  PMPE      H7R            13.6081600754      -22.9834051093      -11.8248136664  MEMB      235             0.0000000000
     29239       235  PMPE      H7S            15.0010379928      -22.4786935334      -10.8679944213  MEMB      235             0.0000000000
     29240       235  PMPE      C28            13.3300063733      -23.1049418393       -9.6213180373  MEMB      235             0.0000000000
     29241       235  PMPE      H8R            13.2072518190      -22.0462464537       -9.3076043703  MEMB      235             0.0000000000
     29242       235  PMPE      H8S            13.9030227194      -23.6028939405       -8.8101351778  MEMB      235             0.0000000000
     29243       235  PMPE      C29            12.0115797338      -23.8387965017       -9.7677890103  MEMB      235             0.0000000000
     29244       235  PMPE      H9R            12.1248348365      -24.8908471159      -10.1064387964  MEMB      235             0.0000000000
     29245       235  PMPE      C217           11.0226780024      -22.9326749519      -10.5259859560  MEMB      235             0.0000000000
     29246       235  PMPE      H17R           10.4799519058      -23.4668118507      -11.2960734948  MEMB      235             0.0000000000
     29247       235  PMPE      H17S           11.3414840286      -21.8981621389      -10.4938146874  MEMB      235             0.0000000000
     29248       235  PMPE      C210           10.6346449060      -23.4661601227       -9.1900596539  MEMB      235             0.0000000000
     29249       235  PMPE      H10R            9.8224475922      -24.2162313401       -9.2998298386  MEMB      235             0.0000000000
     29250       235  PMPE      C211           10.6135797503      -22.5321409627       -7.9757492389  MEMB      235             0.0000000000
     29251       235  PMPE      H11R            9.5944218392      -22.1519395723       -7.7497302940  MEMB      235             0.0000000000
     29252       235  PMPE      H11S           11.2324151656      -21.6179363942       -8.1006250771  MEMB      235             0.0000000000
     29253       235  PMPE      C212           11.2299714825      -23.2966077183       -6.7938013689  MEMB      235             0.0000000000
     29254       235  PMPE      H12R           12.1982581778      -23.7672634416       -7.0680731317  MEMB      235             0.0000000000
     29255       235  PMPE      H12S           10.6121241924      -24.1816540308       -6.5305933318  MEMB      235             0.0000000000
     29256       235  PMPE      C213           11.2842002708      -22.3961715734       -5.5597843406  MEMB      235             0.0000000000
     29257       235  PMPE      H13R           10.2711396494      -22.0573349421       -5.2544662319  MEMB      235             0.0000000000
     29258       235  PMPE      H13S           11.9778488428      -21.5332770804       -5.6524424312  MEMB      235             0.0000000000
     29259       235  PMPE      C214           11.9466262395      -23.2930747021       -4.4755389818  MEMB      235             0.0000000000
     29260       235  PMPE      H14R           12.9830777835      -23.5019255086       -4.8168169836  MEMB      235             0.0000000000
     29261       235  PMPE      H14S           11.4149665864      -24.2534987376       -4.3045279134  MEMB      235             0.0000000000
     29262       235  PMPE      C215           12.1199260675      -22.5595856542       -3.1300994325  MEMB      235             0.0000000000
     29263       235  PMPE      H15R           11.1283360043      -22.3087459681       -2.6963376244  MEMB      235             0.0000000000
     29264       235  PMPE      H15S           12.5589251193      -21.5488922267       -3.2718725564  MEMB      235             0.0000000000
     29265       235  PMPE      C216           13.0019220936      -23.2739942048       -2.1088784341  MEMB      235             0.0000000000
     29266       235  PMPE      H16R           12.7175313083      -22.8885764550       -1.1064326624  MEMB      235             0.0000000000
     29267       235  PMPE      H16S           12.8613286481      -24.3735018717       -2.0337967852  MEMB      235             0.0000000000
     29268       235  PMPE      H16T           14.0756864163      -23.0998732422       -2.3347829602  MEMB      235             0.0000000000
     29269       235  PMPE      C33            16.3244011946      -18.4433975015      -10.7514112913  MEMB      235             0.0000000000
     29270       235  PMPE      H3X            15.2898199367      -18.0395251416      -10.7222561450  MEMB      235             0.0000000000
     29271       235  PMPE      H3Y            17.0799428057      -17.6360123256      -10.8591460986  MEMB      235             0.0000000000
     29272       235  PMPE      C34            16.4368530279      -18.9976241509       -9.3039682242  MEMB      235             0.0000000000
     29273       235  PMPE      H4X            15.8811892802      -18.2146141994       -8.7449922119  MEMB      235             0.0000000000
     29274       235  PMPE      H4Y            17.5181773646      -19.0692741909       -9.0591728709  MEMB      235             0.0000000000
     29275       235  PMPE      C35            15.8097388839      -20.2286890714       -8.9393197229  MEMB      235             0.0000000000
     29276       235  PMPE      H5X            16.3609362265      -21.0946755436       -9.3642549077  MEMB      235             0.0000000000
     29277       235  PMPE      H5Y            14.7520402775      -20.3423545535       -9.2597487048  MEMB      235             0.0000000000
     29278       235  PMPE      C36            15.7482122056      -20.4750806555       -7.4300210797  MEMB      235             0.0000000000
     29279       235  PMPE      H6X            15.2689925049      -21.4504836529       -7.1992430384  MEMB      235             0.0000000000
     29280       235  PMPE      H6Y            15.0320743320      -19.7097318782       -7.0616345620  MEMB      235             0.0000000000
     29281       235  PMPE      C37            17.1536730173      -20.3281818038       -6.8034778602  MEMB      235             0.0000000000
     29282       235  PMPE      H7X            17.4676306267      -19.2627017026       -6.8259196136  MEMB      235             0.0000000000
     29283       235  PMPE      H7Y            17.9300123108      -20.8649158731       -7.3895960146  MEMB      235             0.0000000000
     29284       235  PMPE      C38            17.3920305087      -20.7911526260       -5.3943941225  MEMB      235             0.0000000000
     29285       235  PMPE      H8X            18.3779520559      -20.4419373324       -5.0197896469  MEMB      235             0.0000000000
     29286       235  PMPE      H8Y            17.3255732245      -21.8987876593       -5.3391781757  MEMB      235             0.0000000000
     29287       235  PMPE      C39            16.3230003653      -20.2197980856       -4.4319131612  MEMB      235             0.0000000000
     29288       235  PMPE      H9X            15.4214317587      -20.6875048873       -4.8821855865  MEMB      235             0.0000000000
     29289       235  PMPE      H9Y            16.2369817948      -19.1247174288       -4.5984074331  MEMB      235             0.0000000000
     29290       235  PMPE      C310           16.3332207053      -20.5921577522       -2.9441249674  MEMB      235             0.0000000000
     29291       235  PMPE      H10X           17.3040440219      -20.4506619133       -2.4227782920  MEMB      235             0.0000000000
     29292       235  PMPE      H10Y           16.0125004148      -21.6517663150       -2.8509099858  MEMB      235             0.0000000000
     29293       235  PMPE      C311           15.2059554661      -19.7497305971       -2.1764984565  MEMB      235             0.0000000000
     29294       235  PMPE      H11X           15.3501265340      -20.1666982718       -1.1568558949  MEMB      235             0.0000000000
     29295       235  PMPE      H11Y           14.1446460415      -19.9988595115       -2.3906912792  MEMB      235             0.0000000000
     29296       235  PMPE      C312           15.3650167200      -18.2438541919       -2.2519110194  MEMB      235             0.0000000000
     29297       235  PMPE      H12X           15.2215967096      -17.8699356298       -3.2882195032  MEMB      235             0.0000000000
     29298       235  PMPE      H12Y           16.3494520710      -17.9310032085       -1.8428468372  MEMB      235             0.0000000000
     29299       235  PMPE      C313           14.2470266101      -17.5380480762       -1.3772036786  MEMB      235             0.0000000000
     29300       235  PMPE      H13X           13.9990761569      -18.0826246929       -0.4411071586  MEMB      235             0.0000000000
     29301       235  PMPE      H13Y           13.3066848362      -17.5753510647       -1.9677023771  MEMB      235             0.0000000000
     29302       235  PMPE      C314           14.4851207129      -16.0765011234       -1.0042126577  MEMB      235             0.0000000000
     29303       235  PMPE      H14X           13.5837574956      -15.6528766813       -0.5118631049  MEMB      235             0.0000000000
     29304       235  PMPE      H14Y           14.6962887159      -15.5768592541       -1.9737941315  MEMB      235             0.0000000000
     29305       235  PMPE      C315           15.8127769209      -15.8023651429       -0.2148683463  MEMB      235             0.0000000000
     29306       235  PMPE      H15X           15.7247469059      -14.7306330783        0.0643476376  MEMB      235             0.0000000000
     29307       235  PMPE      H15Y           16.5953645733      -15.9680276713       -0.9858645462  MEMB      235             0.0000000000
     29308       235  PMPE      C316           16.0832080372      -16.6016271757        1.0736461126  MEMB      235             0.0000000000
     29309       235  PMPE      H16X           15.9397091234      -17.6909624232        0.9090906792  MEMB      235             0.0000000000
     29310       235  PMPE      H16Y           15.3762604529      -16.2559276414        1.8578888842  MEMB      235             0.0000000000
     29311       235  PMPE      H16Z           17.1062917087      -16.3352611894        1.4152147967  MEMB      235             0.0000000000
     29312       236  PMPE      N              -8.6549596641      -25.6730552665      -19.3485727891  MEMB      236             0.0000000000
     29313       236  PMPE      HN1            -9.1617252844      -26.4261542145      -19.8561461291  MEMB      236             0.0000000000
     29314       236  PMPE      HN2            -7.6428650679      -25.8651909030      -19.2059254782  MEMB      236             0.0000000000
     29315       236  PMPE      HN3            -9.1564519292      -25.6607066653      -18.4375552490  MEMB      236             0.0000000000
     29316       236  PMPE      C12            -8.9716022879      -24.4701556001      -20.1053393230  MEMB      236             0.0000000000
     29317       236  PMPE      H12A           -8.4013291248      -24.5878800070      -21.0515162466  MEMB      236             0.0000000000
     29318       236  PMPE      H12B           -8.7142317799      -23.6288253804      -19.4269258064  MEMB      236             0.0000000000
     29319       236  PMPE      C11           -10.5029966823      -24.3882305017      -20.4289172096  MEMB      236             0.0000000000
     29320       236  PMPE      H11A          -10.7120605151      -25.2546544155      -21.0921839950  MEMB      236             0.0000000000
     29321       236  PMPE      H11B          -10.8831745709      -23.5164299641      -21.0031554679  MEMB      236             0.0000000000
     29322       236  PMPE      P             -11.9830784896      -23.5376596169      -18.4065075178  MEMB      236             0.0000000000
     29323       236  PMPE      O13           -12.5228238219      -24.0532535962      -17.1050364785  MEMB      236             0.0000000000
     29324       236  PMPE      O14           -12.9302839627      -22.7386941108      -19.1848566063  MEMB      236             0.0000000000
     29325       236  PMPE      O11           -10.7334377719      -22.6639718863      -18.1399367671  MEMB      236             0.0000000000
     29326       236  PMPE      O12           -11.3580693193      -24.6988682195      -19.2808333108  MEMB      236             0.0000000000
     29327       236  PMPE      C1            -10.6672595604      -21.4566562425      -17.3520648390  MEMB      236             0.0000000000
     29328       236  PMPE      HA            -11.5624925271      -20.8628882139      -17.6354698450  MEMB      236             0.0000000000
     29329       236  PMPE      HB             -9.8547135621      -20.8014280865      -17.7325461478  MEMB      236             0.0000000000
     29330       236  PMPE      C2            -10.3650200129      -21.6523040156      -15.9122046059  MEMB      236             0.0000000000
     29331       236  PMPE      HS             -9.3625352848      -22.1243390546      -15.8314079035  MEMB      236             0.0000000000
     29332       236  PMPE      O21           -11.3961472956      -22.4337472855      -15.3387186865  MEMB      236             0.0000000000
     29333       236  PMPE      C21           -11.0349770560      -23.2384806709      -14.3539057990  MEMB      236             0.0000000000
     29334       236  PMPE      O22            -9.9240882456      -23.3577141726      -13.8546728678  MEMB      236             0.0000000000
     29335       236  PMPE      C22           -12.3193376828      -23.7199803351      -13.6348284574  MEMB      236             0.0000000000
     29336       236  PMPE      H2R           -13.0952546542      -24.0076686707      -14.3761171756  MEMB      236             0.0000000000
     29337       236  PMPE      H2S           -12.6710282899      -22.8626138496      -13.0220012479  MEMB      236             0.0000000000
     29338       236  PMPE      C3            -10.2742975579      -20.2201862026      -15.2206399005  MEMB      236             0.0000000000
     29339       236  PMPE      HX            -11.3311293727      -19.9087549465      -15.0776771771  MEMB      236             0.0000000000
     29340       236  PMPE      HY             -9.7272616013      -19.5372603266      -15.9052453760  MEMB      236             0.0000000000
     29341       236  PMPE      O31            -9.5914115795      -20.3983314063      -13.9621774466  MEMB      236             0.0000000000
     29342       236  PMPE      C31           -10.3026853596      -20.2205425608      -12.8403887252  MEMB      236             0.0000000000
     29343       236  PMPE      O32           -11.4711767791      -19.8517465736      -12.7343661256  MEMB      236             0.0000000000
     29344       236  PMPE      C32            -9.4264231684      -20.5332404295      -11.6725387598  MEMB      236             0.0000000000
     29345       236  PMPE      H2X            -8.4472592499      -20.0100351332      -11.7151412841  MEMB      236             0.0000000000
     29346       236  PMPE      H2Y            -9.1979181754      -21.6182970894      -11.7415207753  MEMB      236             0.0000000000
     29347       236  PMPE      C23           -12.1336152425      -24.9995081620      -12.7669943055  MEMB      236             0.0000000000
     29348       236  PMPE      H3R           -11.4670949841      -24.8539299627      -11.8901369188  MEMB      236             0.0000000000
     29349       236  PMPE      H3S           -11.5905061049      -25.7791634480      -13.3427468731  MEMB      236             0.0000000000
     29350       236  PMPE      C24           -13.3954703762      -25.7823462362      -12.3027120328  MEMB      236             0.0000000000
     29351       236  PMPE      H4R           -13.9391961620      -26.1352757028      -13.2050003575  MEMB      236             0.0000000000
     29352       236  PMPE      H4S           -14.0211846753      -25.1065416746      -11.6813497864  MEMB      236             0.0000000000
     29353       236  PMPE      C25           -13.1119544412      -26.9833317669      -11.3093247368  MEMB      236             0.0000000000
     29354       236  PMPE      H5R           -12.4876456582      -27.6658242566      -11.9247625095  MEMB      236             0.0000000000
     29355       236  PMPE      H5S           -14.0952227181      -27.4654099363      -11.1219612612  MEMB      236             0.0000000000
     29356       236  PMPE      C26           -12.4308120631      -26.6108232892       -9.9541149821  MEMB      236             0.0000000000
     29357       236  PMPE      H6R           -12.4099413501      -25.5002223474       -9.9328809376  MEMB      236             0.0000000000
     29358       236  PMPE      H6S           -11.3801441006      -26.9626539009      -10.0355578574  MEMB      236             0.0000000000
     29359       236  PMPE      C27           -13.0459401893      -27.1387610614       -8.6784892550  MEMB      236             0.0000000000
     29360       236  PMPE      H7R           -12.7784027122      -28.2168149307       -8.6551480034  MEMB      236             0.0000000000
     29361       236  PMPE      H7S           -14.1548508144      -27.2058535476       -8.6667910982  MEMB      236             0.0000000000
     29362       236  PMPE      C28           -12.4597903165      -26.4009468336       -7.4297543496  MEMB      236             0.0000000000
     29363       236  PMPE      H8R           -12.9648211028      -26.7059894930       -6.4883647988  MEMB      236             0.0000000000
     29364       236  PMPE      H8S           -12.6252752896      -25.3443645788       -7.7307021537  MEMB      236             0.0000000000
     29365       236  PMPE      C29           -10.9817103424      -26.5800256591       -7.4567469755  MEMB      236             0.0000000000
     29366       236  PMPE      H9R           -10.4182722909      -26.1441474254       -8.3093125529  MEMB      236             0.0000000000
     29367       236  PMPE      C217          -10.5292561017      -28.0076857086       -7.3096446275  MEMB      236             0.0000000000
     29368       236  PMPE      H17R           -9.6732092064      -28.2646797303       -7.9212217170  MEMB      236             0.0000000000
     29369       236  PMPE      H17S          -11.2185476890      -28.7755138537       -6.9806975439  MEMB      236             0.0000000000
     29370       236  PMPE      C210          -10.2281323001      -27.0243666422       -6.2130973559  MEMB      236             0.0000000000
     29371       236  PMPE      H10R           -9.1700144294      -26.7045748699       -6.1015587619  MEMB      236             0.0000000000
     29372       236  PMPE      C211          -10.9809015349      -27.3248665769       -4.8848129240  MEMB      236             0.0000000000
     29373       236  PMPE      H11R          -10.3630026536      -28.0480110601       -4.3107195323  MEMB      236             0.0000000000
     29374       236  PMPE      H11S          -11.9182798255      -27.8648028201       -5.1380162809  MEMB      236             0.0000000000
     29375       236  PMPE      C212          -11.1309413825      -26.0341676157       -4.0004211901  MEMB      236             0.0000000000
     29376       236  PMPE      H12R          -11.8947340373      -25.4680887848       -4.5753094758  MEMB      236             0.0000000000
     29377       236  PMPE      H12S          -10.1575079036      -25.5110194671       -4.1147197451  MEMB      236             0.0000000000
     29378       236  PMPE      C213          -11.5204451133      -26.3037769435       -2.5151147860  MEMB      236             0.0000000000
     29379       236  PMPE      H13R          -11.7974417726      -25.3337026651       -2.0497658481  MEMB      236             0.0000000000
     29380       236  PMPE      H13S          -10.6230798804      -26.6802912355       -1.9791170428  MEMB      236             0.0000000000
     29381       236  PMPE      C214          -12.6838714069      -27.1703614362       -2.1649719810  MEMB      236             0.0000000000
     29382       236  PMPE      H14R          -12.4662742802      -28.1808417026       -2.5722830615  MEMB      236             0.0000000000
     29383       236  PMPE      H14S          -13.5677989638      -26.7674934730       -2.7041299493  MEMB      236             0.0000000000
     29384       236  PMPE      C215          -13.0101127666      -27.2209903944       -0.6797007563  MEMB      236             0.0000000000
     29385       236  PMPE      H15R          -12.8800294317      -26.2047704146       -0.2499372341  MEMB      236             0.0000000000
     29386       236  PMPE      H15S          -12.1043418938      -27.8117677153       -0.4249810250  MEMB      236             0.0000000000
     29387       236  PMPE      C216          -14.3555933085      -27.8328447089       -0.4583795009  MEMB      236             0.0000000000
     29388       236  PMPE      H16R          -15.2384946285      -27.3192608883       -0.8954590406  MEMB      236             0.0000000000
     29389       236  PMPE      H16S          -14.3623057114      -28.8104168557       -0.9862329596  MEMB      236             0.0000000000
     29390       236  PMPE      H16T          -14.4982360906      -28.0853206419        0.6141089287  MEMB      236             0.0000000000
     29391       236  PMPE      C33           -10.1904805170      -20.2525304486      -10.3631352755  MEMB      236             0.0000000000
     29392       236  PMPE      H3X           -10.8538116194      -19.3613971542      -10.3770781877  MEMB      236             0.0000000000
     29393       236  PMPE      H3Y            -9.3554613636      -20.1106238640       -9.6441601141  MEMB      236             0.0000000000
     29394       236  PMPE      C34           -11.0247224026      -21.4336177087       -9.8696210669  MEMB      236             0.0000000000
     29395       236  PMPE      H4X           -10.8950315393      -21.8109214281       -8.8327296531  MEMB      236             0.0000000000
     29396       236  PMPE      H4Y           -10.9104316034      -22.3221340531      -10.5267332197  MEMB      236             0.0000000000
     29397       236  PMPE      C35           -12.5804095458      -21.2827049945       -9.9965311975  MEMB      236             0.0000000000
     29398       236  PMPE      H5X           -12.9522746848      -22.2941817258       -9.7264346498  MEMB      236             0.0000000000
     29399       236  PMPE      H5Y           -12.9229838671      -21.1140447706      -11.0398513505  MEMB      236             0.0000000000
     29400       236  PMPE      C36           -13.2479806828      -20.2863468754       -8.9956829175  MEMB      236             0.0000000000
     29401       236  PMPE      H6X           -14.3112759810      -20.5985649143       -9.0747015870  MEMB      236             0.0000000000
     29402       236  PMPE      H6Y           -13.0775311186      -19.2405531523       -9.3297239705  MEMB      236             0.0000000000
     29403       236  PMPE      C37           -12.8346094207      -20.3769858862       -7.5413483723  MEMB      236             0.0000000000
     29404       236  PMPE      H7X           -13.3557096634      -19.5451585557       -7.0209270492  MEMB      236             0.0000000000
     29405       236  PMPE      H7Y           -11.7703726676      -20.1293519942       -7.3403546845  MEMB      236             0.0000000000
     29406       236  PMPE      C38           -13.1914294154      -21.8054791727       -6.9637714763  MEMB      236             0.0000000000
     29407       236  PMPE      H8X           -12.5479416677      -22.6042582862       -7.3906164130  MEMB      236             0.0000000000
     29408       236  PMPE      H8Y           -14.2651312695      -22.0261039438       -7.1449067466  MEMB      236             0.0000000000
     29409       236  PMPE      C39           -12.9300219540      -21.9219354091       -5.4127013716  MEMB      236             0.0000000000
     29410       236  PMPE      H9X           -13.1095742739      -23.0139585503       -5.3148894090  MEMB      236             0.0000000000
     29411       236  PMPE      H9Y           -13.6254407999      -21.1822189592       -4.9615547179  MEMB      236             0.0000000000
     29412       236  PMPE      C310          -11.4224551332      -21.7779108138       -4.9770151402  MEMB      236             0.0000000000
     29413       236  PMPE      H10X          -10.9399685010      -20.8353042803       -5.3131999945  MEMB      236             0.0000000000
     29414       236  PMPE      H10Y          -11.0385167671      -22.6676397453       -5.5204244770  MEMB      236             0.0000000000
     29415       236  PMPE      C311          -11.2331749497      -21.8295233415       -3.4748026619  MEMB      236             0.0000000000
     29416       236  PMPE      H11X          -10.1281057766      -21.7327273312       -3.4133719019  MEMB      236             0.0000000000
     29417       236  PMPE      H11Y          -11.4828909347      -22.8209383652       -3.0399929531  MEMB      236             0.0000000000
     29418       236  PMPE      C312          -11.8614461974      -20.6618536248       -2.7478969207  MEMB      236             0.0000000000
     29419       236  PMPE      H12X          -12.9539409189      -20.7164061212       -2.5534722417  MEMB      236             0.0000000000
     29420       236  PMPE      H12Y          -11.6504881090      -19.7641734956       -3.3675641774  MEMB      236             0.0000000000
     29421       236  PMPE      C313          -11.2475383112      -20.3767269679       -1.2445563032  MEMB      236             0.0000000000
     29422       236  PMPE      H13X          -11.7144651946      -19.4508119584       -0.8458330944  MEMB      236             0.0000000000
     29423       236  PMPE      H13Y          -10.1667504081      -20.1387001800       -1.3423409386  MEMB      236             0.0000000000
     29424       236  PMPE      C314          -11.3655034479      -21.5350338523       -0.1882941812  MEMB      236             0.0000000000
     29425       236  PMPE      H14X          -11.0318952615      -21.0744248081        0.7660976258  MEMB      236             0.0000000000
     29426       236  PMPE      H14Y          -10.5607733023      -22.2510771865       -0.4603472335  MEMB      236             0.0000000000
     29427       236  PMPE      C315          -12.7072145240      -22.3147768444       -0.0723983071  MEMB      236             0.0000000000
     29428       236  PMPE      H15X          -12.8098989512      -22.9586828456       -0.9719322015  MEMB      236             0.0000000000
     29429       236  PMPE      H15Y          -13.6012077659      -21.6883774196       -0.2790883697  MEMB      236             0.0000000000
     29430       236  PMPE      C316          -12.8249537531      -23.2172498606        1.1767538088  MEMB      236             0.0000000000
     29431       236  PMPE      H16X          -12.6943363993      -22.7619429368        2.1817203806  MEMB      236             0.0000000000
     29432       236  PMPE      H16Y          -12.2582487920      -24.1715326986        1.1266478970  MEMB      236             0.0000000000
     29433       236  PMPE      H16Z          -13.8636170483      -23.6111578119        1.1584195138  MEMB      236             0.0000000000
     29434       237  PMPE      N              11.6814990178       22.6452767777      -18.8872926857  MEMB      237             0.0000000000
     29435       237  PMPE      HN1            11.5971431732       23.2769984335      -18.0654582341  MEMB      237             0.0000000000
     29436       237  PMPE      HN2            12.2082283833       21.7976600844      -18.5945436288  MEMB      237             0.0000000000
     29437       237  PMPE      HN3            12.2443359494       23.1158760383      -19.6244162121  MEMB      237             0.0000000000
     29438       237  PMPE      C12            10.2079136775       22.3957727725      -19.3350984527  MEMB      237             0.0000000000
     29439       237  PMPE      H12A            9.6762666498       21.9787735872      -18.4531776642  MEMB      237             0.0000000000
     29440       237  PMPE      H12B           10.2929384583       21.8165193161      -20.2793216107  MEMB      237             0.0000000000
     29441       237  PMPE      C11             9.4639276403       23.7566773792      -19.5151941523  MEMB      237             0.0000000000
     29442       237  PMPE      H11A            8.4216811640       23.4834460609      -19.2442918365  MEMB      237             0.0000000000
     29443       237  PMPE      H11B            9.5887110918       24.0884900509      -20.5681188733  MEMB      237             0.0000000000
     29444       237  PMPE      P              10.3104396330       26.2450708182      -18.9656584835  MEMB      237             0.0000000000
     29445       237  PMPE      O13             9.3636213668       26.8770039636      -19.9468893910  MEMB      237             0.0000000000
     29446       237  PMPE      O14            11.7285590623       26.3291900092      -19.1908724115  MEMB      237             0.0000000000
     29447       237  PMPE      O11             9.9822270987       26.7656732636      -17.4829413244  MEMB      237             0.0000000000
     29448       237  PMPE      O12             9.8969013059       24.7353406134      -18.6760530988  MEMB      237             0.0000000000
     29449       237  PMPE      C1              8.6278471614       26.7887506218      -17.0479021467  MEMB      237             0.0000000000
     29450       237  PMPE      HA              7.9608346223       26.0218819095      -17.4965974970  MEMB      237             0.0000000000
     29451       237  PMPE      HB              8.1916472017       27.7941815487      -17.2299997580  MEMB      237             0.0000000000
     29452       237  PMPE      C2              8.6701010865       26.3882123426      -15.5832632579  MEMB      237             0.0000000000
     29453       237  PMPE      HS              7.6863330738       26.4523012612      -15.0709998783  MEMB      237             0.0000000000
     29454       237  PMPE      O21             9.6569301793       27.0759137499      -14.8130074129  MEMB      237             0.0000000000
     29455       237  PMPE      C21             9.2004193570       27.7383778182      -13.7409089810  MEMB      237             0.0000000000
     29456       237  PMPE      O22             8.0061614179       27.8465318915      -13.4436507883  MEMB      237             0.0000000000
     29457       237  PMPE      C22            10.2780808637       28.3507234661      -12.8881509794  MEMB      237             0.0000000000
     29458       237  PMPE      H2R            10.4884933100       29.4122961858      -13.1393707997  MEMB      237             0.0000000000
     29459       237  PMPE      H2S            11.2437344866       27.8460749938      -13.1053235207  MEMB      237             0.0000000000
     29460       237  PMPE      C3              8.9624122014       24.8279777806      -15.6578241349  MEMB      237             0.0000000000
     29461       237  PMPE      HX             10.0421538003       24.5714740722      -15.7096400679  MEMB      237             0.0000000000
     29462       237  PMPE      HY              8.5294497703       24.3151494366      -16.5431894900  MEMB      237             0.0000000000
     29463       237  PMPE      O31             8.4433025044       24.2892041054      -14.3994526146  MEMB      237             0.0000000000
     29464       237  PMPE      C31             7.1615291126       23.8353931063      -14.4655503423  MEMB      237             0.0000000000
     29465       237  PMPE      O32             6.3384910037       23.9882328127      -15.3338254805  MEMB      237             0.0000000000
     29466       237  PMPE      C32             6.9777981355       23.2530958705      -13.0928257521  MEMB      237             0.0000000000
     29467       237  PMPE      H2X             7.6575132655       22.3920344942      -12.9170947241  MEMB      237             0.0000000000
     29468       237  PMPE      H2Y             5.9899259613       22.7650546241      -12.9505382378  MEMB      237             0.0000000000
     29469       237  PMPE      C23             9.7708624977       28.2471380230      -11.4297880346  MEMB      237             0.0000000000
     29470       237  PMPE      H3R             9.8492993254       27.1736641070      -11.1544298696  MEMB      237             0.0000000000
     29471       237  PMPE      H3S             8.7240428870       28.5621859536      -11.2317108799  MEMB      237             0.0000000000
     29472       237  PMPE      C24            10.6169610504       29.1000696561      -10.3854604332  MEMB      237             0.0000000000
     29473       237  PMPE      H4R            10.0006766264       29.1903589401       -9.4654803064  MEMB      237             0.0000000000
     29474       237  PMPE      H4S            10.6815091627       30.1629771188      -10.7022928122  MEMB      237             0.0000000000
     29475       237  PMPE      C25            11.9145506107       28.3958144073       -9.9626083289  MEMB      237             0.0000000000
     29476       237  PMPE      H5R            12.5996801207       29.2499644330       -9.7746033584  MEMB      237             0.0000000000
     29477       237  PMPE      H5S            12.3791936305       27.9243310647      -10.8548705095  MEMB      237             0.0000000000
     29478       237  PMPE      C26            11.7696868717       27.4360350808       -8.7540576801  MEMB      237             0.0000000000
     29479       237  PMPE      H6R            11.2240776941       26.4831613430       -8.9233599591  MEMB      237             0.0000000000
     29480       237  PMPE      H6S            11.2330917502       27.9955494336       -7.9582374803  MEMB      237             0.0000000000
     29481       237  PMPE      C27            13.1786662677       26.9769920902       -8.1637472336  MEMB      237             0.0000000000
     29482       237  PMPE      H7R            13.6274344658       27.8838131735       -7.7048312975  MEMB      237             0.0000000000
     29483       237  PMPE      H7S            13.7557627221       26.6374015151       -9.0502907785  MEMB      237             0.0000000000
     29484       237  PMPE      C28            13.0868288188       25.8415641934       -7.0953443733  MEMB      237             0.0000000000
     29485       237  PMPE      H8R            12.3204028225       26.0761712925       -6.3260120344  MEMB      237             0.0000000000
     29486       237  PMPE      H8S            14.0482031526       25.7826351700       -6.5416226243  MEMB      237             0.0000000000
     29487       237  PMPE      C29            12.8272321451       24.5031527876       -7.7299705227  MEMB      237             0.0000000000
     29488       237  PMPE      H9R            13.4234792131       24.2870200304       -8.6421636639  MEMB      237             0.0000000000
     29489       237  PMPE      C217           11.4097484941       23.8737779883       -7.6447856139  MEMB      237             0.0000000000
     29490       237  PMPE      H17R           11.1337466857       23.6663823802       -8.6712844844  MEMB      237             0.0000000000
     29491       237  PMPE      H17S           10.8351916859       24.4370621982       -6.9198830119  MEMB      237             0.0000000000
     29492       237  PMPE      C210           12.5838191732       23.2092603591       -6.9405152042  MEMB      237             0.0000000000
     29493       237  PMPE      H10R           12.9531014437       22.2823497277       -7.4291757001  MEMB      237             0.0000000000
     29494       237  PMPE      C211           12.7212401137       23.3228564699       -5.4323889321  MEMB      237             0.0000000000
     29495       237  PMPE      H11R           12.1358785431       24.2334239120       -5.1823095757  MEMB      237             0.0000000000
     29496       237  PMPE      H11S           13.7474002923       23.4300995574       -5.0203021796  MEMB      237             0.0000000000
     29497       237  PMPE      C212           12.2511376600       22.0135249269       -4.8450172328  MEMB      237             0.0000000000
     29498       237  PMPE      H12R           12.7857418802       21.1778470039       -5.3451793397  MEMB      237             0.0000000000
     29499       237  PMPE      H12S           11.1539546511       22.0298211237       -5.0189276896  MEMB      237             0.0000000000
     29500       237  PMPE      C213           12.3396189126       21.9479611795       -3.3679304742  MEMB      237             0.0000000000
     29501       237  PMPE      H13R           12.0092288545       20.9319659409       -3.0631068825  MEMB      237             0.0000000000
     29502       237  PMPE      H13S           11.5968600887       22.6132395240       -2.8779980815  MEMB      237             0.0000000000
     29503       237  PMPE      C214           13.7220918629       22.1286810593       -2.8197104589  MEMB      237             0.0000000000
     29504       237  PMPE      H14R           14.3344847559       23.0155918800       -3.0893129459  MEMB      237             0.0000000000
     29505       237  PMPE      H14S           14.3014417966       21.2624375767       -3.2048039629  MEMB      237             0.0000000000
     29506       237  PMPE      C215           13.7723810059       21.7402020082       -1.3335147825  MEMB      237             0.0000000000
     29507       237  PMPE      H15R           13.1571259854       20.8173069354       -1.2698975615  MEMB      237             0.0000000000
     29508       237  PMPE      H15S           13.1354058742       22.5324915793       -0.8853384666  MEMB      237             0.0000000000
     29509       237  PMPE      C216           15.1204031681       21.6355587842       -0.6405200006  MEMB      237             0.0000000000
     29510       237  PMPE      H16R           15.9024350871       20.9004213941       -0.9274357319  MEMB      237             0.0000000000
     29511       237  PMPE      H16S           15.5935048424       22.6352040897       -0.5346654621  MEMB      237             0.0000000000
     29512       237  PMPE      H16T           14.9101760692       21.4523687748        0.4349176776  MEMB      237             0.0000000000
     29513       237  PMPE      C33             7.0330480166       24.3942500753      -12.1112256063  MEMB      237             0.0000000000
     29514       237  PMPE      H3X             6.2944485218       25.1464233863      -12.4619775579  MEMB      237             0.0000000000
     29515       237  PMPE      H3Y             8.0455849302       24.8216448682      -11.9486709097  MEMB      237             0.0000000000
     29516       237  PMPE      C34             6.4596775739       24.0718205814      -10.7239009663  MEMB      237             0.0000000000
     29517       237  PMPE      H4X             7.0258242700       23.3529270305      -10.0938281150  MEMB      237             0.0000000000
     29518       237  PMPE      H4Y             5.6107034038       23.3856076956      -10.9304818240  MEMB      237             0.0000000000
     29519       237  PMPE      C35             5.8215676251       25.2906174384      -10.0268108609  MEMB      237             0.0000000000
     29520       237  PMPE      H5X             5.3290136242       25.0314471319       -9.0652787527  MEMB      237             0.0000000000
     29521       237  PMPE      H5Y             4.9282641597       25.7127764114      -10.5348577731  MEMB      237             0.0000000000
     29522       237  PMPE      C36             6.8474634383       26.3721204475       -9.7198570588  MEMB      237             0.0000000000
     29523       237  PMPE      H6X             6.3420940534       27.2160347753       -9.2033965687  MEMB      237             0.0000000000
     29524       237  PMPE      H6Y             7.1239103854       26.7524541934      -10.7264578264  MEMB      237             0.0000000000
     29525       237  PMPE      C37             8.1424862832       25.9170439789       -9.0012224742  MEMB      237             0.0000000000
     29526       237  PMPE      H7X             8.7635986192       26.7999203245       -8.7384106702  MEMB      237             0.0000000000
     29527       237  PMPE      H7Y             8.7871155116       25.1993257771       -9.5522715398  MEMB      237             0.0000000000
     29528       237  PMPE      C38             7.8436163427       25.3672737399       -7.5827983004  MEMB      237             0.0000000000
     29529       237  PMPE      H8X             8.7852090820       24.9913548405       -7.1284758868  MEMB      237             0.0000000000
     29530       237  PMPE      H8Y             7.1211398025       24.5248157137       -7.6339177350  MEMB      237             0.0000000000
     29531       237  PMPE      C39             7.2976004091       26.4150260726       -6.6323104161  MEMB      237             0.0000000000
     29532       237  PMPE      H9X             6.2064881349       26.4362584598       -6.8405039330  MEMB      237             0.0000000000
     29533       237  PMPE      H9Y             7.7863931400       27.3715661885       -6.9159188428  MEMB      237             0.0000000000
     29534       237  PMPE      C310            7.3161629336       26.2498350687       -5.0370592241  MEMB      237             0.0000000000
     29535       237  PMPE      H10X            7.2601008613       25.1561925866       -4.8496444351  MEMB      237             0.0000000000
     29536       237  PMPE      H10Y            6.3392174466       26.6752648461       -4.7225630080  MEMB      237             0.0000000000
     29537       237  PMPE      C311            8.4716202826       27.0035655997       -4.4206321296  MEMB      237             0.0000000000
     29538       237  PMPE      H11X            8.3013186542       28.0947105141       -4.5419638407  MEMB      237             0.0000000000
     29539       237  PMPE      H11Y            9.4392068359       26.6975989759       -4.8728289500  MEMB      237             0.0000000000
     29540       237  PMPE      C312            8.5550764728       26.8922170920       -2.8849999360  MEMB      237             0.0000000000
     29541       237  PMPE      H12X            7.6952342402       27.3690370400       -2.3676660583  MEMB      237             0.0000000000
     29542       237  PMPE      H12Y            9.3922560615       27.5983661904       -2.6984393787  MEMB      237             0.0000000000
     29543       237  PMPE      C313            8.7930330404       25.4841016306       -2.3911278339  MEMB      237             0.0000000000
     29544       237  PMPE      H13X            9.6108646335       25.0622142803       -3.0136090373  MEMB      237             0.0000000000
     29545       237  PMPE      H13Y            7.9133806399       24.8517010906       -2.6373022532  MEMB      237             0.0000000000
     29546       237  PMPE      C314            9.1597617813       25.4076599616       -0.9009359276  MEMB      237             0.0000000000
     29547       237  PMPE      H14X            8.2403909993       25.3135420710       -0.2843157955  MEMB      237             0.0000000000
     29548       237  PMPE      H14Y            9.6739559892       26.3651264935       -0.6703206275  MEMB      237             0.0000000000
     29549       237  PMPE      C315           10.0479522401       24.2312910240       -0.5262612430  MEMB      237             0.0000000000
     29550       237  PMPE      H15X           11.0349021131       24.5115504525       -0.9525305151  MEMB      237             0.0000000000
     29551       237  PMPE      H15Y            9.7728352871       23.2531976185       -0.9756667588  MEMB      237             0.0000000000
     29552       237  PMPE      C316           10.3072195377       24.1204080947        0.9136803027  MEMB      237             0.0000000000
     29553       237  PMPE      H16X           10.7499410164       25.0678227075        1.2888114665  MEMB      237             0.0000000000
     29554       237  PMPE      H16Y           11.0025465368       23.2857509454        1.1464650127  MEMB      237             0.0000000000
     29555       237  PMPE      H16Z            9.3637009881       23.8338523042        1.4255193949  MEMB      237             0.0000000000
     29556       238  PMPE      N             -28.7696966491        9.3266756618      -20.0918041004  MEMB      238             0.0000000000
     29557       238  PMPE      HN1           -28.7952512882        8.3132850882      -19.8594541906  MEMB      238             0.0000000000
     29558       238  PMPE      HN2           -28.9172392256        9.7700998160      -19.1627151812  MEMB      238             0.0000000000
     29559       238  PMPE      HN3           -29.5856913087        9.6575377437      -20.6452324170  MEMB      238             0.0000000000
     29560       238  PMPE      C12           -27.4968404146        9.7510755988      -20.6766717739  MEMB      238             0.0000000000
     29561       238  PMPE      H12A          -27.7641078326       10.7617665136      -21.0526944938  MEMB      238             0.0000000000
     29562       238  PMPE      H12B          -27.1486255940        9.1253779305      -21.5261245318  MEMB      238             0.0000000000
     29563       238  PMPE      C11           -26.4290698894        9.7589362446      -19.5397531229  MEMB      238             0.0000000000
     29564       238  PMPE      H11A          -25.5117287802       10.0595070931      -20.0897199324  MEMB      238             0.0000000000
     29565       238  PMPE      H11B          -26.3520885419        8.7593124031      -19.0610598420  MEMB      238             0.0000000000
     29566       238  PMPE      P             -26.3443877804       12.0910837345      -18.3837441213  MEMB      238             0.0000000000
     29567       238  PMPE      O13           -26.5249705190       12.7973235742      -19.6638229872  MEMB      238             0.0000000000
     29568       238  PMPE      O14           -25.0115128233       12.2292274660      -17.7539084302  MEMB      238             0.0000000000
     29569       238  PMPE      O11           -27.3467930541       12.6944791486      -17.3368454126  MEMB      238             0.0000000000
     29570       238  PMPE      O12           -26.7564337295       10.6093101332      -18.5534500514  MEMB      238             0.0000000000
     29571       238  PMPE      C1            -28.6596247829       12.9541352638      -17.7103903962  MEMB      238             0.0000000000
     29572       238  PMPE      HA            -29.0347530010       12.1157779693      -18.3354957537  MEMB      238             0.0000000000
     29573       238  PMPE      HB            -28.6107033953       13.8763348197      -18.3280277313  MEMB      238             0.0000000000
     29574       238  PMPE      C2            -29.4973687397       13.1598343146      -16.3667060287  MEMB      238             0.0000000000
     29575       238  PMPE      HS            -29.0654333340       13.9024608381      -15.6622497407  MEMB      238             0.0000000000
     29576       238  PMPE      O21           -29.5695694478       11.9106919535      -15.6756492025  MEMB      238             0.0000000000
     29577       238  PMPE      C21           -28.6782335126       11.7566733522      -14.7074572397  MEMB      238             0.0000000000
     29578       238  PMPE      O22           -27.8507852150       12.5976551276      -14.3547904494  MEMB      238             0.0000000000
     29579       238  PMPE      C22           -28.9270969252       10.4352452874      -14.0635301450  MEMB      238             0.0000000000
     29580       238  PMPE      H2R           -29.1996807623        9.7611630637      -14.9035492269  MEMB      238             0.0000000000
     29581       238  PMPE      H2S           -29.8496861228       10.3602500577      -13.4490986913  MEMB      238             0.0000000000
     29582       238  PMPE      C3            -30.9333054261       13.7018886284      -16.6071462844  MEMB      238             0.0000000000
     29583       238  PMPE      HX            -31.2634953709       13.0847013701      -17.4699180881  MEMB      238             0.0000000000
     29584       238  PMPE      HY            -30.8949889720       14.7452709812      -16.9868906339  MEMB      238             0.0000000000
     29585       238  PMPE      O31           -31.8068497297       13.5039497078      -15.5027128145  MEMB      238             0.0000000000
     29586       238  PMPE      C31           -31.4703454312       14.0146893831      -14.3438022735  MEMB      238             0.0000000000
     29587       238  PMPE      O32           -30.5075020906       14.7003793104      -14.1425829810  MEMB      238             0.0000000000
     29588       238  PMPE      C32           -32.6158449728       13.7013969985      -13.2973063144  MEMB      238             0.0000000000
     29589       238  PMPE      H2X           -33.1118490640       12.7318495660      -13.5170317536  MEMB      238             0.0000000000
     29590       238  PMPE      H2Y           -33.4270532385       14.4601946694      -13.2752132362  MEMB      238             0.0000000000
     29591       238  PMPE      C23           -27.7014022992        9.9003740764      -13.1909374000  MEMB      238             0.0000000000
     29592       238  PMPE      H3R           -27.5803374677       10.4124937986      -12.2124701913  MEMB      238             0.0000000000
     29593       238  PMPE      H3S           -26.8184553951       10.1124047878      -13.8310690128  MEMB      238             0.0000000000
     29594       238  PMPE      C24           -27.6827968786        8.3825747718      -13.1716990277  MEMB      238             0.0000000000
     29595       238  PMPE      H4R           -26.7556773458        7.9810838930      -12.7095570099  MEMB      238             0.0000000000
     29596       238  PMPE      H4S           -27.7235932120        7.8943434239      -14.1688384643  MEMB      238             0.0000000000
     29597       238  PMPE      C25           -28.9591007993        7.7856092171      -12.4874867950  MEMB      238             0.0000000000
     29598       238  PMPE      H5R           -28.9456920799        6.6789006190      -12.3908541061  MEMB      238             0.0000000000
     29599       238  PMPE      H5S           -29.8880727726        8.0680667878      -13.0274401290  MEMB      238             0.0000000000
     29600       238  PMPE      C26           -29.1184412149        8.0402433591      -10.9392328281  MEMB      238             0.0000000000
     29601       238  PMPE      H6R           -29.4501785851        9.0813189925      -10.7381535813  MEMB      238             0.0000000000
     29602       238  PMPE      H6S           -28.2306221266        7.8512800215      -10.2986150608  MEMB      238             0.0000000000
     29603       238  PMPE      C27           -30.2307657224        7.1314162974      -10.2582138304  MEMB      238             0.0000000000
     29604       238  PMPE      H7R           -29.8477353237        6.1290570932      -10.5461114800  MEMB      238             0.0000000000
     29605       238  PMPE      H7S           -31.1919134300        7.3235629790      -10.7812774929  MEMB      238             0.0000000000
     29606       238  PMPE      C28           -30.3540027342        7.3840140258       -8.7257505085  MEMB      238             0.0000000000
     29607       238  PMPE      H8R           -30.4624413686        8.4493530453       -8.4297519743  MEMB      238             0.0000000000
     29608       238  PMPE      H8S           -29.3945877546        7.0476873074       -8.2777234858  MEMB      238             0.0000000000
     29609       238  PMPE      C29           -31.4441971364        6.4671689730       -8.1707551987  MEMB      238             0.0000000000
     29610       238  PMPE      H9R           -31.5715212273        5.5069323196       -8.7148651137  MEMB      238             0.0000000000
     29611       238  PMPE      C217          -32.6576813329        7.2335402670       -7.5922849796  MEMB      238             0.0000000000
     29612       238  PMPE      H17R          -33.6656759868        6.8496980837       -7.6897597778  MEMB      238             0.0000000000
     29613       238  PMPE      H17S          -32.4946782328        8.3024633745       -7.5312753113  MEMB      238             0.0000000000
     29614       238  PMPE      C210          -31.7320323030        6.4153878886       -6.7382183685  MEMB      238             0.0000000000
     29615       238  PMPE      H10R          -32.0751999050        5.3994479458       -6.4476615967  MEMB      238             0.0000000000
     29616       238  PMPE      C211          -31.0904386115        7.3634353422       -5.6576808358  MEMB      238             0.0000000000
     29617       238  PMPE      H11R          -31.8383030741        7.4092550178       -4.8373632204  MEMB      238             0.0000000000
     29618       238  PMPE      H11S          -30.9879507115        8.3998719186       -6.0444835291  MEMB      238             0.0000000000
     29619       238  PMPE      C212          -29.7113127200        7.0045965770       -5.1246613918  MEMB      238             0.0000000000
     29620       238  PMPE      H12R          -28.9408139557        7.3562648467       -5.8436759520  MEMB      238             0.0000000000
     29621       238  PMPE      H12S          -29.6124360489        5.8995996979       -5.0652766219  MEMB      238             0.0000000000
     29622       238  PMPE      C213          -29.3259181129        7.6880490190       -3.7857312813  MEMB      238             0.0000000000
     29623       238  PMPE      H13R          -30.1610757360        7.3805187945       -3.1207073478  MEMB      238             0.0000000000
     29624       238  PMPE      H13S          -29.2764193335        8.7960924342       -3.7216154242  MEMB      238             0.0000000000
     29625       238  PMPE      C214          -27.9987111895        7.2198421088       -3.2451031360  MEMB      238             0.0000000000
     29626       238  PMPE      H14R          -27.1997796035        7.6865551983       -3.8600894724  MEMB      238             0.0000000000
     29627       238  PMPE      H14S          -28.0498531251        6.1104887469       -3.2773601500  MEMB      238             0.0000000000
     29628       238  PMPE      C215          -27.9161871192        7.5793675044       -1.7757420717  MEMB      238             0.0000000000
     29629       238  PMPE      H15R          -28.8438913980        7.2623323650       -1.2530809795  MEMB      238             0.0000000000
     29630       238  PMPE      H15S          -27.7318211419        8.6724595758       -1.7017141878  MEMB      238             0.0000000000
     29631       238  PMPE      C216          -26.7472156482        6.8552741799       -1.1104791281  MEMB      238             0.0000000000
     29632       238  PMPE      H16R          -25.8076874753        6.9602176646       -1.6940829719  MEMB      238             0.0000000000
     29633       238  PMPE      H16S          -26.5992505832        7.2719181966       -0.0912453400  MEMB      238             0.0000000000
     29634       238  PMPE      H16T          -26.7962537546        5.7474052892       -1.0430755640  MEMB      238             0.0000000000
     29635       238  PMPE      C33           -32.1072319496       13.6602903005      -11.8947045269  MEMB      238             0.0000000000
     29636       238  PMPE      H3X           -32.9716207160       13.3229248036      -11.2836907991  MEMB      238             0.0000000000
     29637       238  PMPE      H3Y           -31.6699042695       14.6393963777      -11.6041584462  MEMB      238             0.0000000000
     29638       238  PMPE      C34           -31.0497634390       12.6207507414      -11.5013965203  MEMB      238             0.0000000000
     29639       238  PMPE      H4X           -30.0931261394       12.9770925518      -11.9397868326  MEMB      238             0.0000000000
     29640       238  PMPE      H4Y           -31.2254941259       11.5917421749      -11.8816346838  MEMB      238             0.0000000000
     29641       238  PMPE      C35           -30.7480086103       12.6229777756       -9.9874629427  MEMB      238             0.0000000000
     29642       238  PMPE      H5X           -31.6665028898       12.2892141515       -9.4589836237  MEMB      238             0.0000000000
     29643       238  PMPE      H5Y           -30.5968505571       13.6824512732       -9.6891547301  MEMB      238             0.0000000000
     29644       238  PMPE      C36           -29.3601348560       11.9892434245       -9.7948407057  MEMB      238             0.0000000000
     29645       238  PMPE      H6X           -28.6027246874       12.7235111399      -10.1434125578  MEMB      238             0.0000000000
     29646       238  PMPE      H6Y           -29.3307864596       11.0855831595      -10.4404862210  MEMB      238             0.0000000000
     29647       238  PMPE      C37           -29.0146125394       11.5531602191       -8.3376941519  MEMB      238             0.0000000000
     29648       238  PMPE      H7X           -29.6238901468       10.6647171120       -8.0660863340  MEMB      238             0.0000000000
     29649       238  PMPE      H7Y           -29.2222143183       12.3661462959       -7.6094936266  MEMB      238             0.0000000000
     29650       238  PMPE      C38           -27.5771220130       11.0085212572       -8.2699966290  MEMB      238             0.0000000000
     29651       238  PMPE      H8X           -26.8209351996       11.7713190967       -8.5539732851  MEMB      238             0.0000000000
     29652       238  PMPE      H8Y           -27.4744811598       10.1131338505       -8.9196638003  MEMB      238             0.0000000000
     29653       238  PMPE      C39           -27.1852200669       10.3870636278       -6.9012925311  MEMB      238             0.0000000000
     29654       238  PMPE      H9X           -26.3072927688        9.7248436181       -7.0594988539  MEMB      238             0.0000000000
     29655       238  PMPE      H9Y           -28.0304543673        9.7839210744       -6.5061734098  MEMB      238             0.0000000000
     29656       238  PMPE      C310          -26.8010503500       11.5392213478       -5.9422103987  MEMB      238             0.0000000000
     29657       238  PMPE      H10X          -27.5643347811       12.3463121779       -5.9242606312  MEMB      238             0.0000000000
     29658       238  PMPE      H10Y          -25.8384252266       11.9764051017       -6.2835968882  MEMB      238             0.0000000000
     29659       238  PMPE      C311          -26.2214603197       11.0415511516       -4.6368910768  MEMB      238             0.0000000000
     29660       238  PMPE      H11X          -25.2802159110       10.4689787314       -4.7802122564  MEMB      238             0.0000000000
     29661       238  PMPE      H11Y          -26.9206958910       10.2784688540       -4.2330399361  MEMB      238             0.0000000000
     29662       238  PMPE      C312          -26.1525448763       12.1169691882       -3.6182672745  MEMB      238             0.0000000000
     29663       238  PMPE      H12X          -25.5087803753       12.9554200737       -3.9601559499  MEMB      238             0.0000000000
     29664       238  PMPE      H12Y          -25.8162598775       11.6556897857       -2.6651387082  MEMB      238             0.0000000000
     29665       238  PMPE      C313          -27.5501460765       12.7163947144       -3.2565582113  MEMB      238             0.0000000000
     29666       238  PMPE      H13X          -28.2981514753       11.9133978051       -3.0833403670  MEMB      238             0.0000000000
     29667       238  PMPE      H13Y          -28.0138402077       13.3482601371       -4.0439934812  MEMB      238             0.0000000000
     29668       238  PMPE      C314          -27.6273931082       13.3555768239       -1.9067155516  MEMB      238             0.0000000000
     29669       238  PMPE      H14X          -27.0355087181       14.2839642690       -2.0553442982  MEMB      238             0.0000000000
     29670       238  PMPE      H14Y          -27.2060810684       12.6974462132       -1.1169792737  MEMB      238             0.0000000000
     29671       238  PMPE      C315          -28.9970865146       13.9369418931       -1.5520177429  MEMB      238             0.0000000000
     29672       238  PMPE      H15X          -28.7824173023       14.4542636365       -0.5925300799  MEMB      238             0.0000000000
     29673       238  PMPE      H15Y          -29.7315704176       13.1057661853       -1.4887669636  MEMB      238             0.0000000000
     29674       238  PMPE      C316          -29.6016392157       15.1237918286       -2.3311658794  MEMB      238             0.0000000000
     29675       238  PMPE      H16X          -29.8980516634       14.7537106081       -3.3359054766  MEMB      238             0.0000000000
     29676       238  PMPE      H16Y          -28.9234150997       15.9985449982       -2.4267700898  MEMB      238             0.0000000000
     29677       238  PMPE      H16Z          -30.5405555931       15.4863041395       -1.8606955171  MEMB      238             0.0000000000
     29678       239  PMPG      C13            27.8005980605      -14.0833622093      -19.1960794503  MEMB      239             0.0000000000
     29679       239  PMPG      H13A           27.3063613524      -14.0815597126      -18.2010679350  MEMB      239             0.0000000000
     29680       239  PMPG      H13B           27.9173844421      -15.1529069787      -19.4731278500  MEMB      239             0.0000000000
     29681       239  PMPG      OC3            29.1858037653      -13.5909392407      -19.2596165193  MEMB      239             0.0000000000
     29682       239  PMPG      HO3            29.6309259061      -13.9772168317      -20.0174133085  MEMB      239             0.0000000000
     29683       239  PMPG      C12            27.1109704739      -13.4291175644      -20.3799501828  MEMB      239             0.0000000000
     29684       239  PMPG      H12A           27.4898486692      -13.9289690493      -21.3015676990  MEMB      239             0.0000000000
     29685       239  PMPG      OC2            27.4628697946      -12.0467214299      -20.4519827146  MEMB      239             0.0000000000
     29686       239  PMPG      HO2            26.8665654688      -11.7031599488      -21.1527704854  MEMB      239             0.0000000000
     29687       239  PMPG      C11            25.6212495644      -13.6257297676      -20.2843510836  MEMB      239             0.0000000000
     29688       239  PMPG      H11A           25.4080290751      -14.7153277781      -20.3247760780  MEMB      239             0.0000000000
     29689       239  PMPG      H11B           25.1720645615      -13.1291611612      -21.1709023599  MEMB      239             0.0000000000
     29690       239  PMPG      P              24.3034030543      -13.6312314510      -18.0256137905  MEMB      239             0.0000000000
     29691       239  PMPG      O13            22.9224070016      -13.6933793500      -18.5134113777  MEMB      239             0.0000000000
     29692       239  PMPG      O14            24.5771825178      -12.9277345251      -16.7590883708  MEMB      239             0.0000000000
     29693       239  PMPG      O11            24.8454458161      -15.1176101383      -18.0329286121  MEMB      239             0.0000000000
     29694       239  PMPG      O12            25.2360809565      -12.9586953233      -19.0969779280  MEMB      239             0.0000000000
     29695       239  PMPG      C1             24.0434844402      -16.2676253733      -17.9000778994  MEMB      239             0.0000000000
     29696       239  PMPG      HA             24.1426903691      -16.8900060701      -18.8150212578  MEMB      239             0.0000000000
     29697       239  PMPG      HB             22.9924881458      -15.9499567376      -17.7303297093  MEMB      239             0.0000000000
     29698       239  PMPG      C2             24.3270708350      -17.1162440899      -16.6344980208  MEMB      239             0.0000000000
     29699       239  PMPG      HS             23.5645581376      -17.9219761673      -16.6952545351  MEMB      239             0.0000000000
     29700       239  PMPG      O21            24.2195327236      -16.2889442224      -15.5158210337  MEMB      239             0.0000000000
     29701       239  PMPG      C21            23.0134403436      -16.0278319883      -14.9985668297  MEMB      239             0.0000000000
     29702       239  PMPG      O22            21.9594690154      -16.5289626873      -15.4199695191  MEMB      239             0.0000000000
     29703       239  PMPG      C22            23.1763795073      -14.8645286531      -13.9813255381  MEMB      239             0.0000000000
     29704       239  PMPG      H2R            22.7785931245      -14.0197315058      -14.5833259832  MEMB      239             0.0000000000
     29705       239  PMPG      H2S            24.2653651784      -14.7396666708      -13.8001057801  MEMB      239             0.0000000000
     29706       239  PMPG      C3             25.7936328488      -17.7385243699      -16.7456130858  MEMB      239             0.0000000000
     29707       239  PMPG      HX             25.8016622894      -18.4700228784      -17.5817747052  MEMB      239             0.0000000000
     29708       239  PMPG      HY             25.7152425534      -18.3239451679      -15.8046249857  MEMB      239             0.0000000000
     29709       239  PMPG      O31            26.8456087382      -16.7714167003      -16.7625378793  MEMB      239             0.0000000000
     29710       239  PMPG      C31            27.9791856252      -17.1802951311      -16.2302872787  MEMB      239             0.0000000000
     29711       239  PMPG      O32            28.2495533373      -18.3720860287      -15.9714797880  MEMB      239             0.0000000000
     29712       239  PMPG      C32            28.8236894152      -15.9382267615      -16.1217029346  MEMB      239             0.0000000000
     29713       239  PMPG      H2X            29.2107041695      -15.7899690120      -17.1525085425  MEMB      239             0.0000000000
     29714       239  PMPG      H2Y            29.7788118152      -16.1267043886      -15.5864103427  MEMB      239             0.0000000000
     29715       239  PMPG      C23            22.3296848293      -15.0733811474      -12.7678994498  MEMB      239             0.0000000000
     29716       239  PMPG      H3R            21.2706311502      -15.2479427336      -13.0547005873  MEMB      239             0.0000000000
     29717       239  PMPG      H3S            22.3676880521      -14.1967152240      -12.0864794573  MEMB      239             0.0000000000
     29718       239  PMPG      C24            22.7621413036      -16.0949853612      -11.7608332531  MEMB      239             0.0000000000
     29719       239  PMPG      H4R            22.6189135474      -17.0968442104      -12.2191846005  MEMB      239             0.0000000000
     29720       239  PMPG      H4S            22.0845179836      -16.2344616590      -10.8915267837  MEMB      239             0.0000000000
     29721       239  PMPG      C25            24.2070172409      -16.0366604964      -11.1166599505  MEMB      239             0.0000000000
     29722       239  PMPG      H5R            24.3790506945      -15.1029805312      -10.5396266114  MEMB      239             0.0000000000
     29723       239  PMPG      H5S            24.8668560048      -15.8778726900      -11.9962737740  MEMB      239             0.0000000000
     29724       239  PMPG      C26            24.5548770179      -17.3438633217      -10.4370595544  MEMB      239             0.0000000000
     29725       239  PMPG      H6R            24.6510373749      -18.1551722668      -11.1899551374  MEMB      239             0.0000000000
     29726       239  PMPG      H6S            23.6856416655      -17.6929367505       -9.8396497703  MEMB      239             0.0000000000
     29727       239  PMPG      C27            25.8062507132      -17.2158180958       -9.5217127072  MEMB      239             0.0000000000
     29728       239  PMPG      H7R            25.7902402016      -16.2421530738       -8.9868842753  MEMB      239             0.0000000000
     29729       239  PMPG      H7S            26.6051824631      -17.0555770836      -10.2769288281  MEMB      239             0.0000000000
     29730       239  PMPG      C28            26.2808343510      -18.3188335517       -8.5849017966  MEMB      239             0.0000000000
     29731       239  PMPG      H8R            27.3643977908      -18.3611332666       -8.3431955737  MEMB      239             0.0000000000
     29732       239  PMPG      H8S            26.0961747907      -19.2479275695       -9.1654238733  MEMB      239             0.0000000000
     29733       239  PMPG      C29            25.3865930171      -18.3980685915       -7.2797917591  MEMB      239             0.0000000000
     29734       239  PMPG      H9R            24.3838976049      -18.8698153528       -7.3596574048  MEMB      239             0.0000000000
     29735       239  PMPG      C217           25.9473263453      -19.0778498696       -6.0164395561  MEMB      239             0.0000000000
     29736       239  PMPG      H17R           25.2073902376      -19.6647992575       -5.4864641889  MEMB      239             0.0000000000
     29737       239  PMPG      H17S           26.9958278760      -19.3314865847       -6.1123663921  MEMB      239             0.0000000000
     29738       239  PMPG      C210           25.7304767486      -17.6116030431       -6.0643317047  MEMB      239             0.0000000000
     29739       239  PMPG      H10R           24.9344761255      -17.1807192939       -5.4200929626  MEMB      239             0.0000000000
     29740       239  PMPG      C211           26.9980222862      -16.7607271244       -6.1524379619  MEMB      239             0.0000000000
     29741       239  PMPG      H11R           27.8459701368      -17.2392328231       -6.6875430197  MEMB      239             0.0000000000
     29742       239  PMPG      H11S           26.8811107276      -15.7305793653       -6.5517475590  MEMB      239             0.0000000000
     29743       239  PMPG      C212           27.5296792397      -16.3730819620       -4.7360222583  MEMB      239             0.0000000000
     29744       239  PMPG      H12R           26.6723494118      -15.8665166264       -4.2433781695  MEMB      239             0.0000000000
     29745       239  PMPG      H12S           28.3057709569      -15.5799518387       -4.7903103780  MEMB      239             0.0000000000
     29746       239  PMPG      C213           28.0651938566      -17.5518193032       -3.9340991139  MEMB      239             0.0000000000
     29747       239  PMPG      H13R           28.9187861671      -17.9475112345       -4.5249703015  MEMB      239             0.0000000000
     29748       239  PMPG      H13S           27.3284274940      -18.3823957230       -3.8936111639  MEMB      239             0.0000000000
     29749       239  PMPG      C214           28.4760200981      -17.2792643696       -2.4703758670  MEMB      239             0.0000000000
     29750       239  PMPG      H14R           27.6131216037      -17.0927604026       -1.7958796877  MEMB      239             0.0000000000
     29751       239  PMPG      H14S           29.1392326700      -16.3879401267       -2.4670282500  MEMB      239             0.0000000000
     29752       239  PMPG      C215           29.1479321525      -18.5173233543       -1.8383817096  MEMB      239             0.0000000000
     29753       239  PMPG      H15R           30.0217809088      -18.7605876905       -2.4798902577  MEMB      239             0.0000000000
     29754       239  PMPG      H15S           28.5391068770      -19.4466346697       -1.8441365906  MEMB      239             0.0000000000
     29755       239  PMPG      C216           29.6342914473      -18.3376538685       -0.4114438946  MEMB      239             0.0000000000
     29756       239  PMPG      H16R           30.3403641389      -17.4800418431       -0.3945905022  MEMB      239             0.0000000000
     29757       239  PMPG      H16S           30.1710691358      -19.2455551147       -0.0622914153  MEMB      239             0.0000000000
     29758       239  PMPG      H16T           28.7932287904      -18.1679165158        0.2943357859  MEMB      239             0.0000000000
     29759       239  PMPG      C33            28.0492013691      -14.8566240638      -15.3789346858  MEMB      239             0.0000000000
     29760       239  PMPG      H3X            27.1652308058      -14.4322055864      -15.9012237619  MEMB      239             0.0000000000
     29761       239  PMPG      H3Y            28.8117217696      -14.0783090892      -15.1618874935  MEMB      239             0.0000000000
     29762       239  PMPG      C34            27.5625730093      -15.3009174402      -14.0117384212  MEMB      239             0.0000000000
     29763       239  PMPG      H4X            28.2068269742      -16.0316014943      -13.4775482305  MEMB      239             0.0000000000
     29764       239  PMPG      H4Y            26.5509157944      -15.7232624169      -14.1920028883  MEMB      239             0.0000000000
     29765       239  PMPG      C35            27.3287024679      -14.1116060859      -13.0703952182  MEMB      239             0.0000000000
     29766       239  PMPG      H5X            26.2464047123      -13.8720209211      -12.9958866378  MEMB      239             0.0000000000
     29767       239  PMPG      H5Y            27.9159440899      -13.2086775658      -13.3427706957  MEMB      239             0.0000000000
     29768       239  PMPG      C36            27.6074113674      -14.5631090699      -11.5711588399  MEMB      239             0.0000000000
     29769       239  PMPG      H6X            28.6960800674      -14.5673374703      -11.3495654883  MEMB      239             0.0000000000
     29770       239  PMPG      H6Y            27.1706538029      -15.5642010072      -11.3677410116  MEMB      239             0.0000000000
     29771       239  PMPG      C37            27.0674925284      -13.5054220368      -10.5384103896  MEMB      239             0.0000000000
     29772       239  PMPG      H7X            25.9751101539      -13.4274745190      -10.7253487091  MEMB      239             0.0000000000
     29773       239  PMPG      H7Y            27.4669006154      -12.5324740146      -10.8964139893  MEMB      239             0.0000000000
     29774       239  PMPG      C38            27.5747721480      -13.7435275210       -9.1146419826  MEMB      239             0.0000000000
     29775       239  PMPG      H8X            28.6351779584      -14.0746924337       -9.1008571695  MEMB      239             0.0000000000
     29776       239  PMPG      H8Y            27.0855107771      -14.6203204295       -8.6390596299  MEMB      239             0.0000000000
     29777       239  PMPG      C39            27.2664218791      -12.5790154475       -8.2531101259  MEMB      239             0.0000000000
     29778       239  PMPG      H9X            26.1656088305      -12.4435974578       -8.3178681481  MEMB      239             0.0000000000
     29779       239  PMPG      H9Y            27.6902714385      -11.6067293760       -8.5837646365  MEMB      239             0.0000000000
     29780       239  PMPG      C310           27.5301112624      -12.7458834741       -6.7463872801  MEMB      239             0.0000000000
     29781       239  PMPG      H10X           28.5555753385      -13.1333173048       -6.5657237332  MEMB      239             0.0000000000
     29782       239  PMPG      H10Y           26.8876197195      -13.5712970330       -6.3719303562  MEMB      239             0.0000000000
     29783       239  PMPG      C311           27.2314093579      -11.4260700272       -5.9433889826  MEMB      239             0.0000000000
     29784       239  PMPG      H11X           26.1479433567      -11.2772332574       -5.7477610412  MEMB      239             0.0000000000
     29785       239  PMPG      H11Y           27.5600674120      -10.5167629507       -6.4906229895  MEMB      239             0.0000000000
     29786       239  PMPG      C312           27.9856025032      -11.4679888360       -4.6116356232  MEMB      239             0.0000000000
     29787       239  PMPG      H12X           27.7725488859      -10.4780330049       -4.1545617172  MEMB      239             0.0000000000
     29788       239  PMPG      H12Y           29.0549956442      -11.5975066111       -4.8835623312  MEMB      239             0.0000000000
     29789       239  PMPG      C313           27.5737759420      -12.6231353829       -3.6311017701  MEMB      239             0.0000000000
     29790       239  PMPG      H13X           27.7855024143      -13.6615981985       -3.9644000784  MEMB      239             0.0000000000
     29791       239  PMPG      H13Y           26.4969341699      -12.5469546681       -3.3685577000  MEMB      239             0.0000000000
     29792       239  PMPG      C314           28.1974794543      -12.4066131796       -2.2558442108  MEMB      239             0.0000000000
     29793       239  PMPG      H14X           27.9662486845      -11.3958376871       -1.8568637557  MEMB      239             0.0000000000
     29794       239  PMPG      H14Y           29.3033696496      -12.5127920774       -2.2484945562  MEMB      239             0.0000000000
     29795       239  PMPG      C315           27.6215182726      -13.5177032364       -1.3917891240  MEMB      239             0.0000000000
     29796       239  PMPG      H15X           27.6780743750      -14.5458188129       -1.8090426496  MEMB      239             0.0000000000
     29797       239  PMPG      H15Y           26.5142534863      -13.4478264511       -1.3334567878  MEMB      239             0.0000000000
     29798       239  PMPG      C316           28.0883362227      -13.5599749802        0.0807290074  MEMB      239             0.0000000000
     29799       239  PMPG      H16X           28.1045627302      -14.5425626111        0.5989766945  MEMB      239             0.0000000000
     29800       239  PMPG      H16Y           27.3809619720      -12.9761145178        0.7076657350  MEMB      239             0.0000000000
     29801       239  PMPG      H16Z           29.1367075278      -13.2022069058        0.1658238677  MEMB      239             0.0000000000
     29802       240  PMPE      N              27.4498641492       16.5292343724      -19.8883378539  MEMB      240             0.0000000000
     29803       240  PMPE      HN1            28.1498032113       17.1653085055      -19.4557926875  MEMB      240             0.0000000000
     29804       240  PMPE      HN2            27.5593811412       16.2547205301      -20.8854576949  MEMB      240             0.0000000000
     29805       240  PMPE      HN3            26.5308923212       17.0155163142      -19.8634244415  MEMB      240             0.0000000000
     29806       240  PMPE      C12            27.1271410729       15.3141598512      -19.0008183722  MEMB      240             0.0000000000
     29807       240  PMPE      H12A           27.9746909567       15.0981960031      -18.3157346485  MEMB      240             0.0000000000
     29808       240  PMPE      H12B           26.8504495682       14.4594033368      -19.6543887292  MEMB      240             0.0000000000
     29809       240  PMPE      C11            25.8670969005       15.4802637940      -18.1033118448  MEMB      240             0.0000000000
     29810       240  PMPE      H11A           25.9242189668       16.3615884997      -17.4292756216  MEMB      240             0.0000000000
     29811       240  PMPE      H11B           25.9387080535       14.6696293694      -17.3469621940  MEMB      240             0.0000000000
     29812       240  PMPE      P              23.5795074699       16.4151204744      -19.0920405457  MEMB      240             0.0000000000
     29813       240  PMPE      O13            22.4092150552       15.8277685893      -19.7415557841  MEMB      240             0.0000000000
     29814       240  PMPE      O14            24.1504230061       17.5710790473      -19.7343653152  MEMB      240             0.0000000000
     29815       240  PMPE      O11            23.1951517784       16.8159981651      -17.6045704740  MEMB      240             0.0000000000
     29816       240  PMPE      O12            24.6342389727       15.2437237008      -18.8349998112  MEMB      240             0.0000000000
     29817       240  PMPE      C1             22.6817617774       15.7741094859      -16.6741282874  MEMB      240             0.0000000000
     29818       240  PMPE      HA             23.5233449848       15.1986872581      -16.2325992096  MEMB      240             0.0000000000
     29819       240  PMPE      HB             22.1434632233       14.9613950033      -17.2070923597  MEMB      240             0.0000000000
     29820       240  PMPE      C2             21.8060833726       16.3426591318      -15.5379747271  MEMB      240             0.0000000000
     29821       240  PMPE      HS             20.8541925989       16.3172215664      -16.1103187924  MEMB      240             0.0000000000
     29822       240  PMPE      O21            22.1477846474       17.7333324439      -15.2111908803  MEMB      240             0.0000000000
     29823       240  PMPE      C21            21.2802610637       18.4603665961      -14.5233311166  MEMB      240             0.0000000000
     29824       240  PMPE      O22            20.1778592138       18.0914697513      -14.0664104491  MEMB      240             0.0000000000
     29825       240  PMPE      C22            21.8300258464       19.8456744250      -14.3737675151  MEMB      240             0.0000000000
     29826       240  PMPE      H2R            21.0062188968       20.5521821434      -14.1360504772  MEMB      240             0.0000000000
     29827       240  PMPE      H2S            22.1547263109       20.1067022085      -15.4036972947  MEMB      240             0.0000000000
     29828       240  PMPE      C3             21.9183022725       15.5868105062      -14.2313979375  MEMB      240             0.0000000000
     29829       240  PMPE      HX             21.7194757857       14.5000344944      -14.3484745328  MEMB      240             0.0000000000
     29830       240  PMPE      HY             21.2771035228       16.0580754965      -13.4560951711  MEMB      240             0.0000000000
     29831       240  PMPE      O31            23.3121222162       15.6848669097      -13.8241059982  MEMB      240             0.0000000000
     29832       240  PMPE      C31            23.6408031209       14.8397152139      -12.9060152466  MEMB      240             0.0000000000
     29833       240  PMPE      O32            22.7914477122       14.1460445138      -12.3559159804  MEMB      240             0.0000000000
     29834       240  PMPE      C32            25.1441099039       14.8251762400      -12.5497635154  MEMB      240             0.0000000000
     29835       240  PMPE      H2X            25.7047620516       14.9678207489      -13.4982583597  MEMB      240             0.0000000000
     29836       240  PMPE      H2Y            25.3500195726       13.8525940897      -12.0537735573  MEMB      240             0.0000000000
     29837       240  PMPE      C23            22.7638160957       19.9640019199      -13.1892919998  MEMB      240             0.0000000000
     29838       240  PMPE      H3R            23.3733887666       20.8912404313      -13.2438002724  MEMB      240             0.0000000000
     29839       240  PMPE      H3S            23.4696855597       19.1078533809      -13.2447777880  MEMB      240             0.0000000000
     29840       240  PMPE      C24            21.9934055470       19.9706520658      -11.9097511429  MEMB      240             0.0000000000
     29841       240  PMPE      H4R            21.2642027411       19.1331640053      -11.8751394040  MEMB      240             0.0000000000
     29842       240  PMPE      H4S            21.3748030657       20.8928714160      -11.9438510650  MEMB      240             0.0000000000
     29843       240  PMPE      C25            22.8334065092       19.7445819112      -10.6326616274  MEMB      240             0.0000000000
     29844       240  PMPE      H5R            23.5939447310       20.5542516031      -10.6510328720  MEMB      240             0.0000000000
     29845       240  PMPE      H5S            23.3605126908       18.7762027720      -10.7694897943  MEMB      240             0.0000000000
     29846       240  PMPE      C26            21.9065149266       19.9539625910       -9.3879567112  MEMB      240             0.0000000000
     29847       240  PMPE      H6R            20.9587887469       19.4376066023       -9.6516089269  MEMB      240             0.0000000000
     29848       240  PMPE      H6S            21.7857256481       21.0390334918       -9.1821612092  MEMB      240             0.0000000000
     29849       240  PMPE      C27            22.6143590996       19.5552556583       -8.1034285277  MEMB      240             0.0000000000
     29850       240  PMPE      H7R            21.9670149577       19.9973758873       -7.3161565613  MEMB      240             0.0000000000
     29851       240  PMPE      H7S            23.5795981416       20.0829672934       -7.9480085795  MEMB      240             0.0000000000
     29852       240  PMPE      C28            22.7080389731       18.0084433651       -7.8675650725  MEMB      240             0.0000000000
     29853       240  PMPE      H8R            23.0178416599       18.0342304630       -6.8009453698  MEMB      240             0.0000000000
     29854       240  PMPE      H8S            23.4492462579       17.6284318497       -8.6027683747  MEMB      240             0.0000000000
     29855       240  PMPE      C29            21.3075781658       17.3493562548       -8.0739243398  MEMB      240             0.0000000000
     29856       240  PMPE      H9R            20.7959935454       17.3576853527       -9.0600949093  MEMB      240             0.0000000000
     29857       240  PMPE      C217           20.4339577333       17.3092717917       -6.8255074030  MEMB      240             0.0000000000
     29858       240  PMPE      H17R           19.3910390845       17.5567861453       -6.9802523841  MEMB      240             0.0000000000
     29859       240  PMPE      H17S           20.9226919120       17.6675081435       -5.9279022848  MEMB      240             0.0000000000
     29860       240  PMPE      C210           21.0486438842       16.0168002189       -7.4123546097  MEMB      240             0.0000000000
     29861       240  PMPE      H10R           20.2348940019       15.4271991776       -7.8861723575  MEMB      240             0.0000000000
     29862       240  PMPE      C211           22.3460440651       15.3668982967       -6.7551113323  MEMB      240             0.0000000000
     29863       240  PMPE      H11R           22.9498333497       16.0404279784       -6.1100405371  MEMB      240             0.0000000000
     29864       240  PMPE      H11S           22.9834325958       15.2529509775       -7.6579254265  MEMB      240             0.0000000000
     29865       240  PMPE      C212           21.9713467677       14.0656457593       -5.9752690287  MEMB      240             0.0000000000
     29866       240  PMPE      H12R           22.9833415675       13.6824990176       -5.7235024200  MEMB      240             0.0000000000
     29867       240  PMPE      H12S           21.4055754330       13.3578748579       -6.6181400938  MEMB      240             0.0000000000
     29868       240  PMPE      C213           21.4253593839       14.3863688288       -4.5372389906  MEMB      240             0.0000000000
     29869       240  PMPE      H13R           21.3021071817       13.4142257691       -4.0137239004  MEMB      240             0.0000000000
     29870       240  PMPE      H13S           20.4686242577       14.9292648493       -4.6929403095  MEMB      240             0.0000000000
     29871       240  PMPE      C214           22.3234800665       15.3406184779       -3.6962844518  MEMB      240             0.0000000000
     29872       240  PMPE      H14R           22.4955031426       16.2295600515       -4.3401103391  MEMB      240             0.0000000000
     29873       240  PMPE      H14S           23.3317937113       14.9451693616       -3.4488076610  MEMB      240             0.0000000000
     29874       240  PMPE      C215           21.6666484148       15.9339591255       -2.3987621151  MEMB      240             0.0000000000
     29875       240  PMPE      H15R           22.1690160103       16.8662746768       -2.0630013425  MEMB      240             0.0000000000
     29876       240  PMPE      H15S           21.7146989387       15.2147576847       -1.5533266221  MEMB      240             0.0000000000
     29877       240  PMPE      C216           20.2596564231       16.5166962418       -2.6192520396  MEMB      240             0.0000000000
     29878       240  PMPE      H16R           19.8757606802       16.8889221810       -1.6453971439  MEMB      240             0.0000000000
     29879       240  PMPE      H16S           20.2167216094       17.4190301972       -3.2659904360  MEMB      240             0.0000000000
     29880       240  PMPE      H16T           19.5945775243       15.7404893374       -3.0545595880  MEMB      240             0.0000000000
     29881       240  PMPE      C33            25.4605047409       15.9329457002      -11.5198086094  MEMB      240             0.0000000000
     29882       240  PMPE      H3X            25.3046067992       15.4603669448      -10.5264876782  MEMB      240             0.0000000000
     29883       240  PMPE      H3Y            24.7515346903       16.7878132898      -11.5495393915  MEMB      240             0.0000000000
     29884       240  PMPE      C34            26.9134787962       16.5123681814      -11.6249863889  MEMB      240             0.0000000000
     29885       240  PMPE      H4X            26.9786823429       17.0894647253      -12.5721027819  MEMB      240             0.0000000000
     29886       240  PMPE      H4Y            27.5588026544       15.6216518969      -11.7815199598  MEMB      240             0.0000000000
     29887       240  PMPE      C35            27.3496660093       17.4475048779      -10.5017487405  MEMB      240             0.0000000000
     29888       240  PMPE      H5X            28.4529028266       17.5264072735      -10.6064580772  MEMB      240             0.0000000000
     29889       240  PMPE      H5Y            27.2422582434       16.9251896425       -9.5270838446  MEMB      240             0.0000000000
     29890       240  PMPE      C36            26.6286654556       18.8006271509      -10.5502198314  MEMB      240             0.0000000000
     29891       240  PMPE      H6X            25.5421297054       18.6375776964      -10.3853674191  MEMB      240             0.0000000000
     29892       240  PMPE      H6Y            26.5450290578       19.3725427021      -11.4990287350  MEMB      240             0.0000000000
     29893       240  PMPE      C37            27.0827439586       19.7042412550       -9.4417713586  MEMB      240             0.0000000000
     29894       240  PMPE      H7X            26.5507811064       20.6693506319       -9.5828400688  MEMB      240             0.0000000000
     29895       240  PMPE      H7Y            28.1621712626       19.9667332817       -9.4257874733  MEMB      240             0.0000000000
     29896       240  PMPE      C38            26.6571707753       19.2822414157       -7.9897099676  MEMB      240             0.0000000000
     29897       240  PMPE      H8X            27.2612856898       18.4063807543       -7.6699693135  MEMB      240             0.0000000000
     29898       240  PMPE      H8Y            25.6307971069       18.9376617253       -8.2389948943  MEMB      240             0.0000000000
     29899       240  PMPE      C39            26.7366795224       20.3841101229       -6.9696818923  MEMB      240             0.0000000000
     29900       240  PMPE      H9X            25.7909700255       20.9664141457       -6.9400745969  MEMB      240             0.0000000000
     29901       240  PMPE      H9Y            27.6525474775       20.9902101169       -7.1374599816  MEMB      240             0.0000000000
     29902       240  PMPE      C310           26.9196864563       19.9808218007       -5.4618157643  MEMB      240             0.0000000000
     29903       240  PMPE      H10X           27.1212509552       20.8256146550       -4.7689822692  MEMB      240             0.0000000000
     29904       240  PMPE      H10Y           27.9230601974       19.5179121189       -5.3465905430  MEMB      240             0.0000000000
     29905       240  PMPE      C311           25.7916605963       19.0914207069       -4.8478816267  MEMB      240             0.0000000000
     29906       240  PMPE      H11X           26.0501650563       18.8982332955       -3.7847843345  MEMB      240             0.0000000000
     29907       240  PMPE      H11Y           25.5499850323       18.1791320492       -5.4340927374  MEMB      240             0.0000000000
     29908       240  PMPE      C312           24.5517408997       19.9893124252       -4.7546577110  MEMB      240             0.0000000000
     29909       240  PMPE      H12X           24.0738001862       20.0545692794       -5.7554747376  MEMB      240             0.0000000000
     29910       240  PMPE      H12Y           24.9324225003       20.9879101734       -4.4510056885  MEMB      240             0.0000000000
     29911       240  PMPE      C313           23.5809220890       19.4254337395       -3.7427636031  MEMB      240             0.0000000000
     29912       240  PMPE      H13X           24.2818811744       19.1242888301       -2.9351197471  MEMB      240             0.0000000000
     29913       240  PMPE      H13Y           23.1799419178       18.4936671799       -4.1959153338  MEMB      240             0.0000000000
     29914       240  PMPE      C314           22.4984376391       20.3625422356       -3.4182361640  MEMB      240             0.0000000000
     29915       240  PMPE      H14X           21.7888516920       20.4495228986       -4.2686732105  MEMB      240             0.0000000000
     29916       240  PMPE      H14Y           23.0272532771       21.3274014544       -3.2642198146  MEMB      240             0.0000000000
     29917       240  PMPE      C315           21.6339043930       20.0016353195       -2.1363962982  MEMB      240             0.0000000000
     29918       240  PMPE      H15X           21.0491853471       19.1032428974       -2.4284851693  MEMB      240             0.0000000000
     29919       240  PMPE      H15Y           20.8778500973       20.8066747595       -2.0155047186  MEMB      240             0.0000000000
     29920       240  PMPE      C316           22.4553912093       19.9150706755       -0.8865108982  MEMB      240             0.0000000000
     29921       240  PMPE      H16X           22.8144538088       20.9384522433       -0.6455027442  MEMB      240             0.0000000000
     29922       240  PMPE      H16Y           23.3274698871       19.2461305177       -1.0487396305  MEMB      240             0.0000000000
     29923       240  PMPE      H16Z           21.9096578491       19.5447908914        0.0075754412  MEMB      240             0.0000000000
     29924       241  POPE      N             -28.6136631379        5.8385061398      -17.7346472566  MEMB      241             0.0000000000
     29925       241  POPE      HN1           -27.8611915558        6.0003871874      -18.4340620059  MEMB      241             0.0000000000
     29926       241  POPE      HN2           -29.4997268315        5.7755267004      -18.2755028800  MEMB      241             0.0000000000
     29927       241  POPE      HN3           -28.5671224155        6.6693867234      -17.1108914735  MEMB      241             0.0000000000
     29928       241  POPE      C12           -28.2827572419        4.4667272080      -17.2155213011  MEMB      241             0.0000000000
     29929       241  POPE      H12A          -29.1676845287        3.9232036553      -16.8207974210  MEMB      241             0.0000000000
     29930       241  POPE      H12B          -27.5409226807        4.5734741141      -16.3953947392  MEMB      241             0.0000000000
     29931       241  POPE      C11           -27.6394428584        3.6060676481      -18.3403054774  MEMB      241             0.0000000000
     29932       241  POPE      H11A          -27.5108143683        2.6217784351      -17.8413561032  MEMB      241             0.0000000000
     29933       241  POPE      H11B          -26.7130923896        4.1363048436      -18.6485981347  MEMB      241             0.0000000000
     29934       241  POPE      P             -29.4583361795        2.2731918530      -19.8278398060  MEMB      241             0.0000000000
     29935       241  POPE      O13           -28.7228594273        0.9915599867      -19.8974331052  MEMB      241             0.0000000000
     29936       241  POPE      O14           -30.2634188812        2.7158742943      -20.9917784962  MEMB      241             0.0000000000
     29937       241  POPE      O11           -30.4301918608        2.2594024862      -18.5540728762  MEMB      241             0.0000000000
     29938       241  POPE      O12           -28.5754709839        3.5596100155      -19.4384016815  MEMB      241             0.0000000000
     29939       241  POPE      C1            -30.6147788398        1.0541929542      -17.8141314568  MEMB      241             0.0000000000
     29940       241  POPE      HA            -29.6900400488        0.6321916691      -17.3656962000  MEMB      241             0.0000000000
     29941       241  POPE      HB            -31.1135855648        0.2851889977      -18.4419417448  MEMB      241             0.0000000000
     29942       241  POPE      C2            -31.5286989679        1.2275901495      -16.5528935037  MEMB      241             0.0000000000
     29943       241  POPE      HS            -32.5435160864        1.1738506077      -17.0018696857  MEMB      241             0.0000000000
     29944       241  POPE      O21           -31.2875473242        2.5286603604      -15.9848085981  MEMB      241             0.0000000000
     29945       241  POPE      C21           -32.2479859465        3.3199254900      -15.5431233806  MEMB      241             0.0000000000
     29946       241  POPE      O22           -33.4531270276        3.1097910344      -15.5117385572  MEMB      241             0.0000000000
     29947       241  POPE      C22           -31.5838089872        4.6657059604      -15.1232302839  MEMB      241             0.0000000000
     29948       241  POPE      H2R           -31.7043992725        5.5485299454      -15.7868576001  MEMB      241             0.0000000000
     29949       241  POPE      H2S           -30.4780069306        4.5625873894      -15.1530523741  MEMB      241             0.0000000000
     29950       241  POPE      C3            -31.4062853396        0.1777864248      -15.3976828234  MEMB      241             0.0000000000
     29951       241  POPE      HX            -31.4668031285       -0.8326610644      -15.8555631698  MEMB      241             0.0000000000
     29952       241  POPE      HY            -32.2616199076        0.3127790481      -14.7016216840  MEMB      241             0.0000000000
     29953       241  POPE      O31           -30.0964544621        0.2193204439      -14.8340741885  MEMB      241             0.0000000000
     29954       241  POPE      C31           -29.9746228532        0.9931737019      -13.7716485258  MEMB      241             0.0000000000
     29955       241  POPE      O32           -30.8894588485        1.5140365684      -13.1341807522  MEMB      241             0.0000000000
     29956       241  POPE      C32           -28.5080732102        1.2439473182      -13.5340947018  MEMB      241             0.0000000000
     29957       241  POPE      H2X           -27.8414661666        0.8485496479      -14.3300952674  MEMB      241             0.0000000000
     29958       241  POPE      H2Y           -28.2294308701        0.8248386335      -12.5436268224  MEMB      241             0.0000000000
     29959       241  POPE      C23           -31.9207344762        5.0110756598      -13.6488981327  MEMB      241             0.0000000000
     29960       241  POPE      H3R           -31.9212809396        4.1388030499      -12.9608126814  MEMB      241             0.0000000000
     29961       241  POPE      H3S           -33.0135404570        5.2102508251      -13.6695182035  MEMB      241             0.0000000000
     29962       241  POPE      C24           -31.0607683518        6.1669110051      -13.1615031600  MEMB      241             0.0000000000
     29963       241  POPE      H4R           -31.3000360553        6.9306214480      -13.9320992815  MEMB      241             0.0000000000
     29964       241  POPE      H4S           -30.0560620277        5.6949019493      -13.2072603293  MEMB      241             0.0000000000
     29965       241  POPE      C25           -31.3092925936        6.6812955698      -11.7004182247  MEMB      241             0.0000000000
     29966       241  POPE      H5R           -32.4034069813        6.6614389749      -11.5084789340  MEMB      241             0.0000000000
     29967       241  POPE      H5S           -30.9527453699        7.7306770485      -11.6230031092  MEMB      241             0.0000000000
     29968       241  POPE      C26           -30.6015447827        5.8080274337      -10.6045328592  MEMB      241             0.0000000000
     29969       241  POPE      H6R           -29.5216816538        5.9569257176      -10.8191153578  MEMB      241             0.0000000000
     29970       241  POPE      H6S           -30.7601660057        4.7300562940      -10.8216459478  MEMB      241             0.0000000000
     29971       241  POPE      C27           -30.9198926824        6.2386711100       -9.1971720431  MEMB      241             0.0000000000
     29972       241  POPE      H7R           -30.9453273955        7.3464354065       -9.1163477884  MEMB      241             0.0000000000
     29973       241  POPE      H7S           -30.1204781729        5.9267570639       -8.4915045092  MEMB      241             0.0000000000
     29974       241  POPE      C28           -32.2800399229        5.6528581519       -8.5942329405  MEMB      241             0.0000000000
     29975       241  POPE      H8R           -33.0300249567        5.6859536710       -9.4132261958  MEMB      241             0.0000000000
     29976       241  POPE      H8S           -32.6017201520        6.4259132100       -7.8640084197  MEMB      241             0.0000000000
     29977       241  POPE      C29           -32.1791776355        4.2691462111       -7.9981375979  MEMB      241             0.0000000000
     29978       241  POPE      H91           -31.8100183728        3.5461112486       -8.7403921289  MEMB      241             0.0000000000
     29979       241  POPE      C210          -32.2793867578        3.9920405156       -6.6584057149  MEMB      241             0.0000000000
     29980       241  POPE      H101          -32.1601206519        2.9288843606       -6.4025254624  MEMB      241             0.0000000000
     29981       241  POPE      C211          -32.4709328311        4.7860228118       -5.4135276893  MEMB      241             0.0000000000
     29982       241  POPE      H11R          -33.5273246015        5.0031650686       -5.1466811358  MEMB      241             0.0000000000
     29983       241  POPE      H11S          -32.0843754609        5.8178889632       -5.5554665405  MEMB      241             0.0000000000
     29984       241  POPE      C212          -31.5884250178        4.3861520823       -4.1490014383  MEMB      241             0.0000000000
     29985       241  POPE      H12R          -31.7281397597        3.3210142537       -3.8656598671  MEMB      241             0.0000000000
     29986       241  POPE      H12S          -31.9801694483        5.0933116620       -3.3869108937  MEMB      241             0.0000000000
     29987       241  POPE      C213          -30.0929688802        4.6250361705       -4.3643618033  MEMB      241             0.0000000000
     29988       241  POPE      H13R          -29.8492130665        5.2924566952       -5.2184433033  MEMB      241             0.0000000000
     29989       241  POPE      H13S          -29.7550811245        3.5968396090       -4.6152894288  MEMB      241             0.0000000000
     29990       241  POPE      C214          -29.3856601243        5.1147015068       -3.0895725983  MEMB      241             0.0000000000
     29991       241  POPE      H14R          -28.2904540110        5.0161733772       -3.2481170453  MEMB      241             0.0000000000
     29992       241  POPE      H14S          -29.7244194466        4.4452642609       -2.2701713753  MEMB      241             0.0000000000
     29993       241  POPE      C215          -29.5695450932        6.6036431607       -2.6971359146  MEMB      241             0.0000000000
     29994       241  POPE      H15R          -30.6232316960        6.9506824002       -2.6368923687  MEMB      241             0.0000000000
     29995       241  POPE      H15S          -29.1901873917        7.3070767001       -3.4688807964  MEMB      241             0.0000000000
     29996       241  POPE      C216          -28.8568047954        7.0376191665       -1.4693461100  MEMB      241             0.0000000000
     29997       241  POPE      H16R          -29.1374483916        8.1008182854       -1.3107019095  MEMB      241             0.0000000000
     29998       241  POPE      H16S          -27.7598709355        6.8818166884       -1.5517026089  MEMB      241             0.0000000000
     29999       241  POPE      C217          -29.3627080844        6.2542224195       -0.2516494188  MEMB      241             0.0000000000
     30000       241  POPE      H17R          -28.9935013255        5.2063781934       -0.2461977181  MEMB      241             0.0000000000
     30001       241  POPE      H17S          -30.4673058322        6.1529277507       -0.3142928016  MEMB      241             0.0000000000
     30002       241  POPE      C218          -28.8321731525        6.7905572187        1.0882975667  MEMB      241             0.0000000000
     30003       241  POPE      H18R          -27.7471180993        6.5652841372        1.1672184212  MEMB      241             0.0000000000
     30004       241  POPE      H18S          -29.4441685433        6.3995965878        1.9290908003  MEMB      241             0.0000000000
     30005       241  POPE      H18T          -29.0543135781        7.8765037567        1.1637630002  MEMB      241             0.0000000000
     30006       241  POPE      C33           -28.2831972540        2.7321318035      -13.5195131940  MEMB      241             0.0000000000
     30007       241  POPE      H3X           -28.8618898037        3.2012546173      -12.6952805863  MEMB      241             0.0000000000
     30008       241  POPE      H3Y           -28.4764911328        3.1634206967      -14.5249722957  MEMB      241             0.0000000000
     30009       241  POPE      C34           -26.7850967132        3.0264048825      -13.2561913977  MEMB      241             0.0000000000
     30010       241  POPE      H4X           -26.0751900556        2.5189203597      -13.9438056387  MEMB      241             0.0000000000
     30011       241  POPE      H4Y           -26.6920885751        2.6773755415      -12.2055491782  MEMB      241             0.0000000000
     30012       241  POPE      C35           -26.3405448875        4.4568452445      -13.2019454218  MEMB      241             0.0000000000
     30013       241  POPE      H5X           -27.0307793920        5.2225529762      -12.7877127449  MEMB      241             0.0000000000
     30014       241  POPE      H5Y           -26.1951995961        4.6699891311      -14.2825772039  MEMB      241             0.0000000000
     30015       241  POPE      C36           -24.9531847297        4.6725398115      -12.5766416149  MEMB      241             0.0000000000
     30016       241  POPE      H6X           -24.3936198010        5.5849540917      -12.8744810407  MEMB      241             0.0000000000
     30017       241  POPE      H6Y           -24.3786041389        3.7903720125      -12.9315469250  MEMB      241             0.0000000000
     30018       241  POPE      C37           -24.7935458545        4.3897645525      -11.0703500864  MEMB      241             0.0000000000
     30019       241  POPE      H7X           -23.7335885512        4.6255262387      -10.8353440911  MEMB      241             0.0000000000
     30020       241  POPE      H7Y           -25.0723525096        3.3347254618      -10.8618311690  MEMB      241             0.0000000000
     30021       241  POPE      C38           -25.6014617366        5.2772731249      -10.0631611015  MEMB      241             0.0000000000
     30022       241  POPE      H8X           -26.6713751754        5.2328307879      -10.3591875615  MEMB      241             0.0000000000
     30023       241  POPE      H8Y           -25.2628774755        6.3201364062      -10.2423751541  MEMB      241             0.0000000000
     30024       241  POPE      C39           -25.4595634135        4.8958370648       -8.6333425865  MEMB      241             0.0000000000
     30025       241  POPE      H9X           -25.9696160883        5.7568523160       -8.1508291356  MEMB      241             0.0000000000
     30026       241  POPE      H9Y           -24.3961495535        4.7757379872       -8.3349331552  MEMB      241             0.0000000000
     30027       241  POPE      C310          -26.2938483588        3.6792495386       -8.3300097587  MEMB      241             0.0000000000
     30028       241  POPE      H10X          -25.8712425755        2.7975276692       -8.8575433827  MEMB      241             0.0000000000
     30029       241  POPE      H10Y          -27.2764809663        3.8607957802       -8.8155970233  MEMB      241             0.0000000000
     30030       241  POPE      C311          -26.3626171501        3.4314640807       -6.9069583043  MEMB      241             0.0000000000
     30031       241  POPE      H11X          -26.8373606743        4.2706725436       -6.3549910293  MEMB      241             0.0000000000
     30032       241  POPE      H11Y          -25.3223448402        3.4310981842       -6.5168889998  MEMB      241             0.0000000000
     30033       241  POPE      C312          -27.0228532330        1.9852388525       -6.6737832476  MEMB      241             0.0000000000
     30034       241  POPE      H12X          -26.5704834759        1.1319602740       -7.2229630664  MEMB      241             0.0000000000
     30035       241  POPE      H12Y          -28.0580774710        1.8635148454       -7.0582506596  MEMB      241             0.0000000000
     30036       241  POPE      C313          -27.2067184183        1.6739358946       -5.2551200272  MEMB      241             0.0000000000
     30037       241  POPE      H13X          -27.6953292672        0.6820858778       -5.1464275887  MEMB      241             0.0000000000
     30038       241  POPE      H13Y          -27.8131749146        2.4435653065       -4.7314766725  MEMB      241             0.0000000000
     30039       241  POPE      C314          -25.9410859014        1.5803177498       -4.3836746910  MEMB      241             0.0000000000
     30040       241  POPE      H14X          -25.7860569479        2.6149078119       -4.0096278303  MEMB      241             0.0000000000
     30041       241  POPE      H14Y          -25.1481871729        1.1503880409       -5.0323600700  MEMB      241             0.0000000000
     30042       241  POPE      C315          -26.1183576639        0.5813144209       -3.1540581285  MEMB      241             0.0000000000
     30043       241  POPE      H15X          -25.2343788853        0.5326901643       -2.4828365051  MEMB      241             0.0000000000
     30044       241  POPE      H15Y          -26.2742819540       -0.4182755415       -3.6132193920  MEMB      241             0.0000000000
     30045       241  POPE      C316          -27.2897465357        0.8369145755       -2.2157967350  MEMB      241             0.0000000000
     30046       241  POPE      H16X          -28.2185147678        0.3298051746       -2.5542517749  MEMB      241             0.0000000000
     30047       241  POPE      H16Y          -27.3884274088        1.8759274762       -1.8349616575  MEMB      241             0.0000000000
     30048       241  POPE      H16Z          -27.1555669285        0.1249892631       -1.3734915939  MEMB      241             0.0000000000
     30049       242  POPE      N             -23.9595894245      -15.8097493985      -21.1335433951  MEMB      242             0.0000000000
     30050       242  POPE      HN1           -24.7784527075      -16.4472774180      -21.0655660582  MEMB      242             0.0000000000
     30051       242  POPE      HN2           -24.2514315247      -14.8158097647      -21.2258050857  MEMB      242             0.0000000000
     30052       242  POPE      HN3           -23.3591467669      -16.0903896373      -21.9349855882  MEMB      242             0.0000000000
     30053       242  POPE      C12           -23.0611874336      -15.9990529816      -19.9368384648  MEMB      242             0.0000000000
     30054       242  POPE      H12A          -23.5957287066      -15.4781165747      -19.1139097259  MEMB      242             0.0000000000
     30055       242  POPE      H12B          -22.0933423187      -15.5798557060      -20.2859383910  MEMB      242             0.0000000000
     30056       242  POPE      C11           -22.9745423883      -17.5298058421      -19.6276225747  MEMB      242             0.0000000000
     30057       242  POPE      H11A          -22.1303611862      -17.6628319943      -18.9177049097  MEMB      242             0.0000000000
     30058       242  POPE      H11B          -22.8606286484      -18.0663929067      -20.5937587348  MEMB      242             0.0000000000
     30059       242  POPE      P             -24.1694310129      -19.3862765553      -18.2657428021  MEMB      242             0.0000000000
     30060       242  POPE      O13           -23.3920312605      -20.4121450697      -18.9906138021  MEMB      242             0.0000000000
     30061       242  POPE      O14           -25.5241078167      -19.7748265593      -17.8264971447  MEMB      242             0.0000000000
     30062       242  POPE      O11           -23.3827406157      -18.8685394888      -16.9899124547  MEMB      242             0.0000000000
     30063       242  POPE      O12           -24.2638828514      -18.0443329039      -19.2292293636  MEMB      242             0.0000000000
     30064       242  POPE      C1            -23.6867554478      -17.5762652532      -16.4975349497  MEMB      242             0.0000000000
     30065       242  POPE      HA            -24.6047706146      -17.6441577451      -15.8754738710  MEMB      242             0.0000000000
     30066       242  POPE      HB            -23.6805197936      -16.7590941973      -17.2502059677  MEMB      242             0.0000000000
     30067       242  POPE      C2            -22.5308409375      -17.0678869923      -15.5903449264  MEMB      242             0.0000000000
     30068       242  POPE      HS            -21.7231730235      -16.6439219579      -16.2245743972  MEMB      242             0.0000000000
     30069       242  POPE      O21           -22.1330017673      -18.2672060308      -14.8555657912  MEMB      242             0.0000000000
     30070       242  POPE      C21           -20.8745489913      -18.4281741880      -14.6348408523  MEMB      242             0.0000000000
     30071       242  POPE      O22           -19.9400031427      -17.6833709868      -14.9063920008  MEMB      242             0.0000000000
     30072       242  POPE      C22           -20.8047487622      -19.7355635239      -13.8169339140  MEMB      242             0.0000000000
     30073       242  POPE      H2R           -20.1630073760      -20.5092898930      -14.2900474538  MEMB      242             0.0000000000
     30074       242  POPE      H2S           -21.7787472010      -20.2520754903      -13.6795906765  MEMB      242             0.0000000000
     30075       242  POPE      C3            -22.9541927681      -15.9427126684      -14.5781712898  MEMB      242             0.0000000000
     30076       242  POPE      HX            -23.1650030787      -15.0707779383      -15.2336176339  MEMB      242             0.0000000000
     30077       242  POPE      HY            -22.1764785146      -15.6300368993      -13.8489831228  MEMB      242             0.0000000000
     30078       242  POPE      O31           -24.2414055478      -16.1478475408      -13.9516306355  MEMB      242             0.0000000000
     30079       242  POPE      C31           -24.2295666357      -16.5773634798      -12.6502404992  MEMB      242             0.0000000000
     30080       242  POPE      O32           -23.2232474619      -16.6943606191      -11.9234810287  MEMB      242             0.0000000000
     30081       242  POPE      C32           -25.6759463204      -17.0522656999      -12.3075173077  MEMB      242             0.0000000000
     30082       242  POPE      H2X           -26.0494553753      -17.6065004719      -13.1950060320  MEMB      242             0.0000000000
     30083       242  POPE      H2Y           -26.3208226741      -16.1495278815      -12.2481905589  MEMB      242             0.0000000000
     30084       242  POPE      C23           -20.3027937649      -19.4535664833      -12.3113068550  MEMB      242             0.0000000000
     30085       242  POPE      H3R           -20.9225039673      -18.6410440405      -11.8753165893  MEMB      242             0.0000000000
     30086       242  POPE      H3S           -19.2918661641      -19.0252126846      -12.4811866995  MEMB      242             0.0000000000
     30087       242  POPE      C24           -20.1998201150      -20.6864018957      -11.4391940270  MEMB      242             0.0000000000
     30088       242  POPE      H4R           -19.7708529409      -21.6178672558      -11.8666049570  MEMB      242             0.0000000000
     30089       242  POPE      H4S           -21.2438662972      -20.9312571901      -11.1487902416  MEMB      242             0.0000000000
     30090       242  POPE      C25           -19.3313233036      -20.5454986843      -10.2162834255  MEMB      242             0.0000000000
     30091       242  POPE      H5R           -18.3941404644      -20.1027884763      -10.6163050904  MEMB      242             0.0000000000
     30092       242  POPE      H5S           -18.9744070482      -21.5030034867       -9.7802593084  MEMB      242             0.0000000000
     30093       242  POPE      C26           -19.7796667387      -19.5278358084       -9.2180138498  MEMB      242             0.0000000000
     30094       242  POPE      H6R           -20.5892765259      -19.9899508033       -8.6136116860  MEMB      242             0.0000000000
     30095       242  POPE      H6S           -20.2009906200      -18.6649002501       -9.7767180192  MEMB      242             0.0000000000
     30096       242  POPE      C27           -18.6838566559      -18.8897600486       -8.3241844995  MEMB      242             0.0000000000
     30097       242  POPE      H7R           -18.0268793784      -18.2446418827       -8.9458941362  MEMB      242             0.0000000000
     30098       242  POPE      H7S           -18.0908165171      -19.5843523302       -7.6915979015  MEMB      242             0.0000000000
     30099       242  POPE      C28           -19.3000808061      -17.8960107752       -7.2649771775  MEMB      242             0.0000000000
     30100       242  POPE      H8R           -18.5920203807      -17.4015941053       -6.5660322253  MEMB      242             0.0000000000
     30101       242  POPE      H8S           -19.9019188411      -18.5456174477       -6.5940646323  MEMB      242             0.0000000000
     30102       242  POPE      C29           -20.1720180301      -16.7772549547       -7.8424597274  MEMB      242             0.0000000000
     30103       242  POPE      H91           -19.5152329185      -16.2277790871       -8.5329007703  MEMB      242             0.0000000000
     30104       242  POPE      C210          -21.4478878068      -16.4535791190       -7.5660041409  MEMB      242             0.0000000000
     30105       242  POPE      H101          -21.9993534130      -15.6721126527       -8.1093241613  MEMB      242             0.0000000000
     30106       242  POPE      C211          -22.3187131335      -17.1394032507       -6.5974332339  MEMB      242             0.0000000000
     30107       242  POPE      H11R          -22.1100188334      -18.2093808024       -6.3831536760  MEMB      242             0.0000000000
     30108       242  POPE      H11S          -23.3199552596      -17.2549799317       -7.0648481850  MEMB      242             0.0000000000
     30109       242  POPE      C212          -22.4475599789      -16.4299639195       -5.2737787829  MEMB      242             0.0000000000
     30110       242  POPE      H12R          -23.3014530314      -15.7193363866       -5.2877911626  MEMB      242             0.0000000000
     30111       242  POPE      H12S          -21.5630475150      -15.8358110880       -4.9592287527  MEMB      242             0.0000000000
     30112       242  POPE      C213          -22.9177296213      -17.3980572195       -4.0566125104  MEMB      242             0.0000000000
     30113       242  POPE      H13R          -22.9032696445      -16.7427544180       -3.1595669203  MEMB      242             0.0000000000
     30114       242  POPE      H13S          -22.1449868200      -18.1488385566       -3.7854738331  MEMB      242             0.0000000000
     30115       242  POPE      C214          -24.2681010450      -18.0171623809       -4.1857213671  MEMB      242             0.0000000000
     30116       242  POPE      H14R          -24.4889265561      -18.4575803464       -5.1815063988  MEMB      242             0.0000000000
     30117       242  POPE      H14S          -25.1256452530      -17.3145099021       -4.1134827484  MEMB      242             0.0000000000
     30118       242  POPE      C215          -24.6000232538      -19.2403193053       -3.1569615157  MEMB      242             0.0000000000
     30119       242  POPE      H15R          -23.7693101263      -19.9740268298       -3.2338371281  MEMB      242             0.0000000000
     30120       242  POPE      H15S          -25.6224801596      -19.6287103459       -3.3520395865  MEMB      242             0.0000000000
     30121       242  POPE      C216          -24.6299944610      -18.7896214834       -1.6917940709  MEMB      242             0.0000000000
     30122       242  POPE      H16R          -23.6261384314      -18.5695996103       -1.2696750730  MEMB      242             0.0000000000
     30123       242  POPE      H16S          -25.0531548566      -19.5344901782       -0.9843872440  MEMB      242             0.0000000000
     30124       242  POPE      C217          -25.5424282771      -17.5798209367       -1.5410599515  MEMB      242             0.0000000000
     30125       242  POPE      H17R          -25.3702214010      -16.7385583948       -2.2460020528  MEMB      242             0.0000000000
     30126       242  POPE      H17S          -25.2402148831      -17.2955325676       -0.5104457688  MEMB      242             0.0000000000
     30127       242  POPE      C218          -27.0622626053      -17.7902032468       -1.7243654901  MEMB      242             0.0000000000
     30128       242  POPE      H18R          -27.3012906933      -18.0456464269       -2.7788483948  MEMB      242             0.0000000000
     30129       242  POPE      H18S          -27.5769806850      -16.8561199108       -1.4131178413  MEMB      242             0.0000000000
     30130       242  POPE      H18T          -27.4239583205      -18.5640201910       -1.0139389314  MEMB      242             0.0000000000
     30131       242  POPE      C33           -25.6280185253      -17.7223954751      -10.8939116633  MEMB      242             0.0000000000
     30132       242  POPE      H3X           -26.7114412320      -17.8721348740      -10.6987330588  MEMB      242             0.0000000000
     30133       242  POPE      H3Y           -25.2344324758      -16.9722545334      -10.1750934335  MEMB      242             0.0000000000
     30134       242  POPE      C34           -25.0586218773      -19.1730896544      -10.7607265584  MEMB      242             0.0000000000
     30135       242  POPE      H4X           -23.9531044064      -19.0678367111      -10.7934965001  MEMB      242             0.0000000000
     30136       242  POPE      H4Y           -25.4101223723      -19.7442775528      -11.6464536721  MEMB      242             0.0000000000
     30137       242  POPE      C35           -25.4568832174      -19.8379648409       -9.3958904354  MEMB      242             0.0000000000
     30138       242  POPE      H5X           -26.5183563985      -20.1648526789       -9.3686886679  MEMB      242             0.0000000000
     30139       242  POPE      H5Y           -25.3493649782      -19.0678344779       -8.6023789505  MEMB      242             0.0000000000
     30140       242  POPE      C36           -24.5861343664      -21.0171885508       -8.9629253779  MEMB      242             0.0000000000
     30141       242  POPE      H6X           -24.9165720880      -21.4552277284       -7.9968745674  MEMB      242             0.0000000000
     30142       242  POPE      H6Y           -23.5863247944      -20.5919983397       -8.7307287882  MEMB      242             0.0000000000
     30143       242  POPE      C37           -24.3264500287      -22.0966109540      -10.0532423165  MEMB      242             0.0000000000
     30144       242  POPE      H7X           -23.4850977098      -21.8888188874      -10.7484181804  MEMB      242             0.0000000000
     30145       242  POPE      H7Y           -25.1051877596      -22.1179496826      -10.8453486547  MEMB      242             0.0000000000
     30146       242  POPE      C38           -24.2416820737      -23.4294230411       -9.4309607398  MEMB      242             0.0000000000
     30147       242  POPE      H8X           -24.5245455864      -24.2164923721      -10.1622821250  MEMB      242             0.0000000000
     30148       242  POPE      H8Y           -25.1018691475      -23.5214814911       -8.7338786806  MEMB      242             0.0000000000
     30149       242  POPE      C39           -22.8798325569      -23.7854328733       -8.6648013792  MEMB      242             0.0000000000
     30150       242  POPE      H9X           -21.9421639980      -23.5213276757       -9.1989805804  MEMB      242             0.0000000000
     30151       242  POPE      H9Y           -22.9498986613      -24.8914296343       -8.7434318274  MEMB      242             0.0000000000
     30152       242  POPE      C310          -22.8152555286      -23.3662682792       -7.1113840311  MEMB      242             0.0000000000
     30153       242  POPE      H10X          -23.7175560728      -23.6033774813       -6.5080986304  MEMB      242             0.0000000000
     30154       242  POPE      H10Y          -22.7415320650      -22.2582406884       -7.0773156880  MEMB      242             0.0000000000
     30155       242  POPE      C311          -21.6863540654      -23.9930788123       -6.2927023727  MEMB      242             0.0000000000
     30156       242  POPE      H11X          -20.8180479131      -24.0302212752       -6.9847902569  MEMB      242             0.0000000000
     30157       242  POPE      H11Y          -21.8943474158      -25.0652229663       -6.0888240274  MEMB      242             0.0000000000
     30158       242  POPE      C312          -21.3769862418      -23.2523813364       -4.9831103150  MEMB      242             0.0000000000
     30159       242  POPE      H12X          -20.3518303769      -23.5420819215       -4.6677538563  MEMB      242             0.0000000000
     30160       242  POPE      H12Y          -22.1084550034      -23.6910184091       -4.2711610804  MEMB      242             0.0000000000
     30161       242  POPE      C313          -21.2931292229      -21.7210509231       -5.0640323064  MEMB      242             0.0000000000
     30162       242  POPE      H13X          -22.3474862983      -21.3849037423       -5.1623058785  MEMB      242             0.0000000000
     30163       242  POPE      H13Y          -20.7075887949      -21.4190690039       -5.9586114174  MEMB      242             0.0000000000
     30164       242  POPE      C314          -20.6224581776      -20.9990783761       -3.8565526407  MEMB      242             0.0000000000
     30165       242  POPE      H14X          -21.2604202416      -21.2225987961       -2.9748691694  MEMB      242             0.0000000000
     30166       242  POPE      H14Y          -20.6826927997      -19.8977138475       -3.9895511974  MEMB      242             0.0000000000
     30167       242  POPE      C315          -19.1299112625      -21.2963834812       -3.5792223117  MEMB      242             0.0000000000
     30168       242  POPE      H15X          -18.5358713800      -20.8982875730       -4.4294914578  MEMB      242             0.0000000000
     30169       242  POPE      H15Y          -18.8980769035      -22.3818606692       -3.6273154979  MEMB      242             0.0000000000
     30170       242  POPE      C316          -18.7828468670      -20.6435995959       -2.2302481456  MEMB      242             0.0000000000
     30171       242  POPE      H16X          -17.7322665655      -20.8585355103       -1.9397230815  MEMB      242             0.0000000000
     30172       242  POPE      H16Y          -19.4117338225      -21.0115679204       -1.3915461107  MEMB      242             0.0000000000
     30173       242  POPE      H16Z          -18.7938588785      -19.5451496967       -2.3964030250  MEMB      242             0.0000000000
     30174       243  OYPE      N              30.6690632169        8.4382460397      -21.8818263692  MEMB      243             0.0000000000
     30175       243  OYPE      HN1            30.3918884594        8.8776219488      -22.7827830025  MEMB      243             0.0000000000
     30176       243  OYPE      HN2            31.3932019303        8.8974450762      -21.2933029691  MEMB      243             0.0000000000
     30177       243  OYPE      HN3            31.0506977871        7.5077507962      -22.1466534771  MEMB      243             0.0000000000
     30178       243  OYPE      C12            29.3722238231        8.3900523041      -21.1674647846  MEMB      243             0.0000000000
     30179       243  OYPE      H12A           28.6999981210        7.6825324944      -21.6983594581  MEMB      243             0.0000000000
     30180       243  OYPE      H12B           29.0549768638        9.4457467817      -21.3059731250  MEMB      243             0.0000000000
     30181       243  OYPE      C11            29.4696481991        7.9256771239      -19.7178227990  MEMB      243             0.0000000000
     30182       243  OYPE      H11A           30.1457230612        7.0455180537      -19.7684575488  MEMB      243             0.0000000000
     30183       243  OYPE      H11B           28.4678552792        7.7500154026      -19.2707490959  MEMB      243             0.0000000000
     30184       243  OYPE      P              29.5725471038        9.8605694997      -17.8407745727  MEMB      243             0.0000000000
     30185       243  OYPE      O13            28.9174196964        9.1063280668      -16.7876959890  MEMB      243             0.0000000000
     30186       243  OYPE      O14            28.7132797110       10.8996145145      -18.4308842386  MEMB      243             0.0000000000
     30187       243  OYPE      O11            30.8310706626       10.5811106665      -17.2165845374  MEMB      243             0.0000000000
     30188       243  OYPE      O12            30.1578369458        8.9649815765      -18.9569466990  MEMB      243             0.0000000000
     30189       243  OYPE      C1             32.0552865201       10.9704716248      -17.8297551989  MEMB      243             0.0000000000
     30190       243  OYPE      HA             31.8871630228       11.0004718998      -18.9275509040  MEMB      243             0.0000000000
     30191       243  OYPE      HB             32.8632999493       10.2122948646      -17.7484934072  MEMB      243             0.0000000000
     30192       243  OYPE      C2             32.6513964517       12.2888479043      -17.2913922975  MEMB      243             0.0000000000
     30193       243  OYPE      HS             33.6474285492       12.4952100936      -17.7382204634  MEMB      243             0.0000000000
     30194       243  OYPE      O21            32.7892131948       12.1783508995      -15.8430349067  MEMB      243             0.0000000000
     30195       243  OYPE      C21            33.3500639155       13.1577539765      -15.2388216837  MEMB      243             0.0000000000
     30196       243  OYPE      O22            33.7833371333       14.1785748392      -15.7282391278  MEMB      243             0.0000000000
     30197       243  OYPE      C22            33.2841431911       12.8081363024      -13.6994823053  MEMB      243             0.0000000000
     30198       243  OYPE      H2R            33.9570324413       11.9348622999      -13.5618830686  MEMB      243             0.0000000000
     30199       243  OYPE      H2S            32.2460592627       12.5049284581      -13.4449867780  MEMB      243             0.0000000000
     30200       243  OYPE      C3             31.6213070913       13.3632280473      -17.6000689372  MEMB      243             0.0000000000
     30201       243  OYPE      HX             31.1916703573       13.2202174857      -18.6146040067  MEMB      243             0.0000000000
     30202       243  OYPE      HY             32.0275590548       14.3960068639      -17.6515286002  MEMB      243             0.0000000000
     30203       243  OYPE      O31            30.4294869203       13.2149864439      -16.7334082707  MEMB      243             0.0000000000
     30204       243  OYPE      C31            30.2051735732       14.0159364733      -15.8115770220  MEMB      243             0.0000000000
     30205       243  OYPE      O32            30.8554729460       14.9478573301      -15.4759658839  MEMB      243             0.0000000000
     30206       243  OYPE      C32            28.8733351605       13.5689897112      -15.0894992371  MEMB      243             0.0000000000
     30207       243  OYPE      H2X            28.4342492312       14.5647482143      -14.8659149641  MEMB      243             0.0000000000
     30208       243  OYPE      H2Y            28.2293537510       13.0934665168      -15.8598798751  MEMB      243             0.0000000000
     30209       243  OYPE      C23            33.7702909589       14.0477789913      -13.0213062291  MEMB      243             0.0000000000
     30210       243  OYPE      H3R            33.0797376704       14.8557923734      -13.3446816135  MEMB      243             0.0000000000
     30211       243  OYPE      H3S            34.7831835376       14.4653345624      -13.2057427817  MEMB      243             0.0000000000
     30212       243  OYPE      C24            33.6364686634       13.9258925816      -11.4737715385  MEMB      243             0.0000000000
     30213       243  OYPE      H4R            32.6580204136       13.6564138332      -11.0217305719  MEMB      243             0.0000000000
     30214       243  OYPE      H4S            33.7228266778       14.9094083375      -10.9643011346  MEMB      243             0.0000000000
     30215       243  OYPE      C25            34.7364119247       13.1460346657      -10.6700303147  MEMB      243             0.0000000000
     30216       243  OYPE      H5R            35.7596935473       13.4152448202      -11.0087656497  MEMB      243             0.0000000000
     30217       243  OYPE      H5S            34.6864150895       12.0774942412      -10.9701000969  MEMB      243             0.0000000000
     30218       243  OYPE      C26            34.5981896839       13.3155038177       -9.1658792228  MEMB      243             0.0000000000
     30219       243  OYPE      H6R            34.7453793818       12.3574589346       -8.6229185838  MEMB      243             0.0000000000
     30220       243  OYPE      H6S            33.5451309239       13.6469865209       -9.0413498953  MEMB      243             0.0000000000
     30221       243  OYPE      C27            35.5977849636       14.3453623517       -8.5061777157  MEMB      243             0.0000000000
     30222       243  OYPE      H7R            35.4645113991       15.3564746663       -8.9468714540  MEMB      243             0.0000000000
     30223       243  OYPE      H7S            36.6571537710       14.1103915925       -8.7446041987  MEMB      243             0.0000000000
     30224       243  OYPE      C28            35.4856510461       14.5618739048       -6.9703396820  MEMB      243             0.0000000000
     30225       243  OYPE      H8R            34.3851939214       14.6484456589       -6.8445609001  MEMB      243             0.0000000000
     30226       243  OYPE      H8S            35.8655899005       15.5862917497       -6.7690044002  MEMB      243             0.0000000000
     30227       243  OYPE      C29            36.1503487086       13.5317487998       -6.1158846130  MEMB      243             0.0000000000
     30228       243  OYPE      H9R            36.9311636109       13.0433256819       -6.7173586227  MEMB      243             0.0000000000
     30229       243  OYPE      C210           35.9126363625       13.2792096488       -4.7909715347  MEMB      243             0.0000000000
     30230       243  OYPE      H10R           36.5391955375       12.4994838705       -4.3333134213  MEMB      243             0.0000000000
     30231       243  OYPE      C211           34.7624869123       14.0802401251       -4.0707727108  MEMB      243             0.0000000000
     30232       243  OYPE      H11R           33.7814588862       13.7855453746       -4.5009593349  MEMB      243             0.0000000000
     30233       243  OYPE      H11S           34.7370697843       15.1582731368       -4.3382045921  MEMB      243             0.0000000000
     30234       243  OYPE      C212           34.9251528177       13.8353106273       -2.5211780150  MEMB      243             0.0000000000
     30235       243  OYPE      H12R           34.1770380292       14.5423133256       -2.1030951096  MEMB      243             0.0000000000
     30236       243  OYPE      H12S           35.9365029896       14.0783727590       -2.1307759542  MEMB      243             0.0000000000
     30237       243  OYPE      C213           34.5586371171       12.4261119045       -1.8968480484  MEMB      243             0.0000000000
     30238       243  OYPE      H13R           35.2317809634       11.6761778801       -2.3646064384  MEMB      243             0.0000000000
     30239       243  OYPE      H13S           33.5555615532       12.0370265843       -2.1739298173  MEMB      243             0.0000000000
     30240       243  OYPE      C214           34.5912394829       12.2298005932       -0.3911430860  MEMB      243             0.0000000000
     30241       243  OYPE      H14R           33.8240689258       11.4416642812       -0.2342627179  MEMB      243             0.0000000000
     30242       243  OYPE      H14S           34.3532189497       13.1446296581        0.1925995728  MEMB      243             0.0000000000
     30243       243  OYPE      C215           35.8619735384       11.6049021182        0.3131424505  MEMB      243             0.0000000000
     30244       243  OYPE      H15R           36.6159743519       12.4162513564        0.2264413496  MEMB      243             0.0000000000
     30245       243  OYPE      H15S           36.1095635078       10.6533578657       -0.2041413592  MEMB      243             0.0000000000
     30246       243  OYPE      C216           35.6078037255       11.4204181856        1.8098685446  MEMB      243             0.0000000000
     30247       243  OYPE      H16R           34.9017483992       10.6163663967        2.1087127161  MEMB      243             0.0000000000
     30248       243  OYPE      H16S           35.3628418519       12.3893754912        2.2950855622  MEMB      243             0.0000000000
     30249       243  OYPE      H16T           36.5617832454       11.1122430756        2.2886917377  MEMB      243             0.0000000000
     30250       243  OYPE      C33            29.1384146283       12.7491424556      -13.7934636353  MEMB      243             0.0000000000
     30251       243  OYPE      H3X            28.2874998061       12.7156881447      -13.0799189601  MEMB      243             0.0000000000
     30252       243  OYPE      H3Y            30.0524844931       13.1162359603      -13.2796154704  MEMB      243             0.0000000000
     30253       243  OYPE      C34            29.4136532894       11.2393783071      -14.0539897457  MEMB      243             0.0000000000
     30254       243  OYPE      H4X            28.6029941573       10.8062929041      -14.6781613303  MEMB      243             0.0000000000
     30255       243  OYPE      H4Y            30.3876015231       11.1154597598      -14.5739802267  MEMB      243             0.0000000000
     30256       243  OYPE      C35            29.5850413387       10.5155584541      -12.7091107412  MEMB      243             0.0000000000
     30257       243  OYPE      H5X            28.6419012324       10.4605316572      -12.1244913546  MEMB      243             0.0000000000
     30258       243  OYPE      H5Y            30.3114988133       11.0772592516      -12.0837532732  MEMB      243             0.0000000000
     30259       243  OYPE      C36            30.1199902745        9.0350721994      -12.9361791407  MEMB      243             0.0000000000
     30260       243  OYPE      H6X            29.5186936280        8.4041000397      -13.6251184601  MEMB      243             0.0000000000
     30261       243  OYPE      H6Y            31.1043136645        9.2401820437      -13.4087874191  MEMB      243             0.0000000000
     30262       243  OYPE      C37            30.3679104303        8.2397789687      -11.5862461333  MEMB      243             0.0000000000
     30263       243  OYPE      H7X            29.4324196053        8.0686790712      -11.0118746347  MEMB      243             0.0000000000
     30264       243  OYPE      H7Y            30.6885935532        7.2510493237      -11.9785432284  MEMB      243             0.0000000000
     30265       243  OYPE      C38            31.4875233257        8.8582720327      -10.7039381151  MEMB      243             0.0000000000
     30266       243  OYPE      H8X            32.3315233684        9.2699669927      -11.2976486348  MEMB      243             0.0000000000
     30267       243  OYPE      H8Y            30.8570877411        9.5770292866      -10.1380230168  MEMB      243             0.0000000000
     30268       243  OYPE      C39            32.0054042796        7.7797786605       -9.8616990448  MEMB      243             0.0000000000
     30269       243  OYPE      H9X            32.2234807330        6.8278586200      -10.3679501911  MEMB      243             0.0000000000
     30270       243  OYPE      C310           32.2967142890        7.7431504777       -8.5443579254  MEMB      243             0.0000000000
     30271       243  OYPE      H10X           32.6829517600        6.7969234144       -8.1375724555  MEMB      243             0.0000000000
     30272       243  OYPE      C311           32.1417153290        8.8273129104       -7.5387257363  MEMB      243             0.0000000000
     30273       243  OYPE      H11X           31.2241501112        8.6493536176       -6.9381209778  MEMB      243             0.0000000000
     30274       243  OYPE      H11Y           32.9676553611        8.7421169152       -6.8005616310  MEMB      243             0.0000000000
     30275       243  OYPE      C312           32.0212745637       10.3543072959       -7.9473190590  MEMB      243             0.0000000000
     30276       243  OYPE      H12X           31.0266691081       10.5456939359       -8.4038836847  MEMB      243             0.0000000000
     30277       243  OYPE      H12Y           32.8322045536       10.5350625038       -8.6849101711  MEMB      243             0.0000000000
     30278       243  OYPE      C313           32.2769941666       11.2830080376       -6.7712877977  MEMB      243             0.0000000000
     30279       243  OYPE      H13X           32.7610216733       10.6654259526       -5.9847570648  MEMB      243             0.0000000000
     30280       243  OYPE      H13Y           32.9878089832       12.0487844651       -7.1489778294  MEMB      243             0.0000000000
     30281       243  OYPE      C314           31.1017126673       11.9914817283       -6.0708767435  MEMB      243             0.0000000000
     30282       243  OYPE      H14X           30.5920640089       12.3488123632       -6.9911452134  MEMB      243             0.0000000000
     30283       243  OYPE      H14Y           31.3639827210       12.8819204746       -5.4604222694  MEMB      243             0.0000000000
     30284       243  OYPE      C315           30.0714652188       11.0492737968       -5.4733612672  MEMB      243             0.0000000000
     30285       243  OYPE      H15X           30.0058327498       10.1503940104       -6.1229993621  MEMB      243             0.0000000000
     30286       243  OYPE      H15Y           29.0785429573       11.5464508751       -5.4381305577  MEMB      243             0.0000000000
     30287       243  OYPE      C316           30.3060791353       10.8357701494       -3.9350912009  MEMB      243             0.0000000000
     30288       243  OYPE      H16X           31.2588891629       10.2993641506       -3.7382586526  MEMB      243             0.0000000000
     30289       243  OYPE      H16Y           29.4573396563       10.1802078105       -3.6449189876  MEMB      243             0.0000000000
     30290       243  OYPE      C317           30.3228368487       12.1041407531       -3.0580165323  MEMB      243             0.0000000000
     30291       243  OYPE      H17X           29.2796529745       12.4844669407       -3.0959696612  MEMB      243             0.0000000000
     30292       243  OYPE      H17Y           31.0488599948       12.8595938555       -3.4274783038  MEMB      243             0.0000000000
     30293       243  OYPE      C318           30.4798038901       11.7851006884       -1.5209045229  MEMB      243             0.0000000000
     30294       243  OYPE      H18X           29.7743187130       11.0127202543       -1.1466847061  MEMB      243             0.0000000000
     30295       243  OYPE      H18Y           31.5270341108       11.4141269778       -1.5239375562  MEMB      243             0.0000000000
     30296       243  OYPE      H18Z           30.4095097930       12.6510787036       -0.8284729971  MEMB      243             0.0000000000
     30297       244  QMPE      N              -3.3992581396       29.6966256974      -21.4692835111  MEMB      244             0.0000000000
     30298       244  QMPE      HN1            -3.3665184371       30.0405405108      -22.4502272514  MEMB      244             0.0000000000
     30299       244  QMPE      HN2            -2.8488398432       30.2934165663      -20.8192987463  MEMB      244             0.0000000000
     30300       244  QMPE      HN3            -3.0208686330       28.7282048171      -21.4451505807  MEMB      244             0.0000000000
     30301       244  QMPE      C12            -4.7513164746       29.5035514813      -20.7888798034  MEMB      244             0.0000000000
     30302       244  QMPE      H12A           -5.3111969884       28.6478391226      -21.2231739461  MEMB      244             0.0000000000
     30303       244  QMPE      H12B           -5.3482978842       30.3541044032      -21.1819371453  MEMB      244             0.0000000000
     30304       244  QMPE      C11            -4.5782868996       29.3669375496      -19.2842275762  MEMB      244             0.0000000000
     30305       244  QMPE      H11A           -4.3037557077       28.3370395836      -18.9707571140  MEMB      244             0.0000000000
     30306       244  QMPE      H11B           -5.5817583819       29.5242243374      -18.8340862865  MEMB      244             0.0000000000
     30307       244  QMPE      P              -2.3906717449       30.1488906038      -18.1128200103  MEMB      244             0.0000000000
     30308       244  QMPE      O13            -1.4595899987       31.2310878713      -18.4954521457  MEMB      244             0.0000000000
     30309       244  QMPE      O14            -1.8595477876       28.7910866141      -18.4023732675  MEMB      244             0.0000000000
     30310       244  QMPE      O11            -2.6348457486       30.3093657277      -16.5839199874  MEMB      244             0.0000000000
     30311       244  QMPE      O12            -3.6942389860       30.3849104467      -18.8630436948  MEMB      244             0.0000000000
     30312       244  QMPE      C1             -3.4902744726       31.2515832637      -16.0391915120  MEMB      244             0.0000000000
     30313       244  QMPE      HA             -3.8318389115       30.9964401060      -15.0132497374  MEMB      244             0.0000000000
     30314       244  QMPE      HB             -4.4554290267       31.2822319475      -16.5886080240  MEMB      244             0.0000000000
     30315       244  QMPE      C2             -2.8094889072       32.5168497949      -15.7424728140  MEMB      244             0.0000000000
     30316       244  QMPE      HS             -2.7543989349       33.1857702123      -16.6278153096  MEMB      244             0.0000000000
     30317       244  QMPE      O21            -1.4416664900       32.1812750316      -15.3100472411  MEMB      244             0.0000000000
     30318       244  QMPE      C21            -0.5826423461       33.1866910058      -15.3430670252  MEMB      244             0.0000000000
     30319       244  QMPE      O22            -0.8293944888       34.3311518173      -15.5986797265  MEMB      244             0.0000000000
     30320       244  QMPE      C22             0.8308692851       32.7114463899      -14.8209979504  MEMB      244             0.0000000000
     30321       244  QMPE      H2R             1.3394842110       33.6052125157      -14.4005057493  MEMB      244             0.0000000000
     30322       244  QMPE      H2S             1.3969475144       32.3523797395      -15.7069707734  MEMB      244             0.0000000000
     30323       244  QMPE      C3             -3.5689619611       33.3255793845      -14.6064824194  MEMB      244             0.0000000000
     30324       244  QMPE      HX             -4.6414221711       33.4102387488      -14.8839397604  MEMB      244             0.0000000000
     30325       244  QMPE      HY             -3.1898970151       34.3661126238      -14.5174801781  MEMB      244             0.0000000000
     30326       244  QMPE      O31            -3.4129552248       32.7465168238      -13.2896770858  MEMB      244             0.0000000000
     30327       244  QMPE      C31            -4.4511918931       32.3557145843      -12.5433493990  MEMB      244             0.0000000000
     30328       244  QMPE      O32            -5.6134428106       32.5690759644      -12.8000802862  MEMB      244             0.0000000000
     30329       244  QMPE      C32            -3.8671211335       31.6237032535      -11.3302907558  MEMB      244             0.0000000000
     30330       244  QMPE      H2X            -3.0605782643       32.2400066827      -10.8786494026  MEMB      244             0.0000000000
     30331       244  QMPE      H2Y            -4.7188949925       31.4494974477      -10.6385861704  MEMB      244             0.0000000000
     30332       244  QMPE      C23             0.8891624028       31.6133540765      -13.7659826368  MEMB      244             0.0000000000
     30333       244  QMPE      H3R             1.8728020484       31.0994526707      -13.7142194214  MEMB      244             0.0000000000
     30334       244  QMPE      H3S             0.1886828462       30.8083623435      -14.0752363089  MEMB      244             0.0000000000
     30335       244  QMPE      C24             0.4403927333       31.9544283379      -12.3153888305  MEMB      244             0.0000000000
     30336       244  QMPE      H4R            -0.6583881402       32.0087811422      -12.1603166372  MEMB      244             0.0000000000
     30337       244  QMPE      H4S             0.7212998412       33.0185744187      -12.1637142554  MEMB      244             0.0000000000
     30338       244  QMPE      C25             1.1508529492       31.1616558785      -11.2412810193  MEMB      244             0.0000000000
     30339       244  QMPE      H5R             2.2359511408       31.0227227855      -11.4351383808  MEMB      244             0.0000000000
     30340       244  QMPE      H5S             0.7870304445       30.1122933023      -11.2131356173  MEMB      244             0.0000000000
     30341       244  QMPE      C26             1.0536496602       31.7414331850       -9.8253951668  MEMB      244             0.0000000000
     30342       244  QMPE      H6R            -0.0188027738       31.9410287990       -9.6148523343  MEMB      244             0.0000000000
     30343       244  QMPE      H6S             1.5665661638       32.7249128172       -9.7621035270  MEMB      244             0.0000000000
     30344       244  QMPE      C27             1.5924205677       30.7743041064       -8.7631819440  MEMB      244             0.0000000000
     30345       244  QMPE      H7R             2.5242516561       30.3527176840       -9.1970913624  MEMB      244             0.0000000000
     30346       244  QMPE      H7S             0.8240242365       30.0222805569       -8.4832737404  MEMB      244             0.0000000000
     30347       244  QMPE      C28             1.8521720788       31.4991833183       -7.4303705749  MEMB      244             0.0000000000
     30348       244  QMPE      H8R             2.7474135562       32.1516903032       -7.5146219681  MEMB      244             0.0000000000
     30349       244  QMPE      H8S             2.1632876100       30.7114641938       -6.7113243259  MEMB      244             0.0000000000
     30350       244  QMPE      C29             0.6940349337       32.3591013706       -6.8990406260  MEMB      244             0.0000000000
     30351       244  QMPE      H9R            -0.2998038025       31.8628414704       -6.9172513560  MEMB      244             0.0000000000
     30352       244  QMPE      C217            1.0460588826       33.8977767443       -6.8439998299  MEMB      244             0.0000000000
     30353       244  QMPE      H17R            2.0170437903       33.9396810077       -7.3218297170  MEMB      244             0.0000000000
     30354       244  QMPE      H17S            0.2246997271       34.5588910264       -7.0913585186  MEMB      244             0.0000000000
     30355       244  QMPE      C210            0.8969169681       33.0606013408       -5.5831309205  MEMB      244             0.0000000000
     30356       244  QMPE      H10R           -0.0429736197       33.2733822921       -5.0302733719  MEMB      244             0.0000000000
     30357       244  QMPE      C211            2.1393172563       32.7095013406       -4.8317249387  MEMB      244             0.0000000000
     30358       244  QMPE      H11R            2.2033705974       31.6544719415       -4.4894802110  MEMB      244             0.0000000000
     30359       244  QMPE      H11S            2.9830912051       32.9352769932       -5.5183045546  MEMB      244             0.0000000000
     30360       244  QMPE      C212            2.3255290541       33.6673995692       -3.5532308249  MEMB      244             0.0000000000
     30361       244  QMPE      H12R            1.5360974683       33.3876587449       -2.8232555553  MEMB      244             0.0000000000
     30362       244  QMPE      H12S            2.1277371590       34.6896617287       -3.9407607680  MEMB      244             0.0000000000
     30363       244  QMPE      C213            3.7365681402       33.4928600103       -2.8197589618  MEMB      244             0.0000000000
     30364       244  QMPE      H13R            3.7451301484       34.3929495532       -2.1685394350  MEMB      244             0.0000000000
     30365       244  QMPE      H13S            4.6010131523       33.4178181345       -3.5136062959  MEMB      244             0.0000000000
     30366       244  QMPE      C214            3.7603081041       32.3649775941       -1.8130754005  MEMB      244             0.0000000000
     30367       244  QMPE      H14R            4.5622777103       31.6802566257       -2.1628225384  MEMB      244             0.0000000000
     30368       244  QMPE      H14S            2.7850777474       31.8609349264       -1.9839197513  MEMB      244             0.0000000000
     30369       244  QMPE      C215            3.8579605763       32.8794371314       -0.4365680802  MEMB      244             0.0000000000
     30370       244  QMPE      H15R            2.9942113283       33.5349232719       -0.1945019033  MEMB      244             0.0000000000
     30371       244  QMPE      H15S            4.8303161527       33.3966856666       -0.2906262219  MEMB      244             0.0000000000
     30372       244  QMPE      C216            3.9050009891       31.7886448116        0.6157729070  MEMB      244             0.0000000000
     30373       244  QMPE      H16R            2.9909835027       31.1581705000        0.5784209002  MEMB      244             0.0000000000
     30374       244  QMPE      H16S            4.1862972305       32.1000596957        1.6444682639  MEMB      244             0.0000000000
     30375       244  QMPE      H16T            4.7284513128       31.0581050353        0.4655656071  MEMB      244             0.0000000000
     30376       244  QMPE      C33            -3.3681499241       30.1782858998      -11.7794168550  MEMB      244             0.0000000000
     30377       244  QMPE      H3X            -2.3671978017       30.0508206451      -12.2443563429  MEMB      244             0.0000000000
     30378       244  QMPE      H3Y            -4.0717509647       29.9630978881      -12.6118599187  MEMB      244             0.0000000000
     30379       244  QMPE      C34            -3.3457061338       29.0864848623      -10.6574877340  MEMB      244             0.0000000000
     30380       244  QMPE      H4X            -3.2087589060       28.0584864896      -11.0559673326  MEMB      244             0.0000000000
     30381       244  QMPE      H4Y            -4.3260725934       29.0510389813      -10.1360030098  MEMB      244             0.0000000000
     30382       244  QMPE      C35            -2.3507472740       29.4497819210       -9.5725153114  MEMB      244             0.0000000000
     30383       244  QMPE      H5X            -2.4471473975       30.4759124419       -9.1576857100  MEMB      244             0.0000000000
     30384       244  QMPE      H5Y            -1.3911651207       29.3276028638      -10.1189543190  MEMB      244             0.0000000000
     30385       244  QMPE      C36            -2.2004581162       28.5618685266       -8.3240905179  MEMB      244             0.0000000000
     30386       244  QMPE      H6X            -1.2883943685       28.9747305163       -7.8424210293  MEMB      244             0.0000000000
     30387       244  QMPE      H6Y            -1.8908762314       27.5869558525       -8.7577095946  MEMB      244             0.0000000000
     30388       244  QMPE      C37            -3.4424849357       28.5659929946       -7.6136988094  MEMB      244             0.0000000000
     30389       244  QMPE      H7X            -3.9594211875       29.5475039828       -7.5525934803  MEMB      244             0.0000000000
     30390       244  QMPE      H7Y            -4.0767692053       27.9189490852       -8.2566123962  MEMB      244             0.0000000000
     30391       244  QMPE      C38            -3.2821129765       27.9985042385       -6.1607400765  MEMB      244             0.0000000000
     30392       244  QMPE      H8X            -4.3004985125       27.8193709372       -5.7543865523  MEMB      244             0.0000000000
     30393       244  QMPE      H8Y            -2.6894249385       27.0599375284       -6.2069392816  MEMB      244             0.0000000000
     30394       244  QMPE      C39            -2.5725848928       29.0245112245       -5.1998809085  MEMB      244             0.0000000000
     30395       244  QMPE      H9X            -3.3369451380       29.6092067383       -4.6447188506  MEMB      244             0.0000000000
     30396       244  QMPE      H9Y            -1.8783469970       29.6293915302       -5.8215517602  MEMB      244             0.0000000000
     30397       244  QMPE      C310           -1.6429546711       28.1744345280       -4.3046301522  MEMB      244             0.0000000000
     30398       244  QMPE      H10X           -1.0873657069       27.4631235925       -4.9524560883  MEMB      244             0.0000000000
     30399       244  QMPE      H10Y           -2.3651108883       27.6568349015       -3.6376198566  MEMB      244             0.0000000000
     30400       244  QMPE      C311           -0.6080511810       29.0714562508       -3.5569603045  MEMB      244             0.0000000000
     30401       244  QMPE      H11X            0.2320265255       29.1815056916       -4.2756254382  MEMB      244             0.0000000000
     30402       244  QMPE      H11Y           -0.0213795833       28.4166855524       -2.8776863789  MEMB      244             0.0000000000
     30403       244  QMPE      C312           -1.1448060821       30.4268597158       -2.9800476361  MEMB      244             0.0000000000
     30404       244  QMPE      H12X           -1.2219070255       31.0876858753       -3.8698145990  MEMB      244             0.0000000000
     30405       244  QMPE      H12Y           -0.2191525243       30.7951203584       -2.4882430593  MEMB      244             0.0000000000
     30406       244  QMPE      C313           -2.3217612039       30.4011010993       -1.9280241565  MEMB      244             0.0000000000
     30407       244  QMPE      H13X           -3.2616788577       30.0235967412       -2.3844956327  MEMB      244             0.0000000000
     30408       244  QMPE      H13Y           -2.0507632810       29.7546145742       -1.0660859520  MEMB      244             0.0000000000
     30409       244  QMPE      C314           -2.5909437253       31.8585819689       -1.4206901270  MEMB      244             0.0000000000
     30410       244  QMPE      H14X           -3.2432029462       32.3442430193       -2.1776667690  MEMB      244             0.0000000000
     30411       244  QMPE      H14Y           -1.6674082132       32.4718240118       -1.3476332149  MEMB      244             0.0000000000
     30412       244  QMPE      C315           -3.3228602359       31.9856868048       -0.0818226200  MEMB      244             0.0000000000
     30413       244  QMPE      H15X           -3.4439301440       33.0509187126        0.2096292891  MEMB      244             0.0000000000
     30414       244  QMPE      H15Y           -4.2869444635       31.4362160029       -0.0275608869  MEMB      244             0.0000000000
     30415       244  QMPE      H15Z           -2.6718544454       31.4129202666        0.6127634328  MEMB      244             0.0000000000
     30416       245  PMPE      N               3.0279526300      -28.4223714125      -16.2685814951  MEMB      245             0.0000000000
     30417       245  PMPE      HN1             2.9124537471      -27.5850160573      -15.6626968744  MEMB      245             0.0000000000
     30418       245  PMPE      HN2             2.0979340799      -28.6288146112      -16.6857704646  MEMB      245             0.0000000000
     30419       245  PMPE      HN3             3.3758745838      -29.2319311507      -15.7161655737  MEMB      245             0.0000000000
     30420       245  PMPE      C12             3.9792015378      -28.0538148295      -17.4348333814  MEMB      245             0.0000000000
     30421       245  PMPE      H12A            4.9955394252      -27.7672497152      -17.0894949482  MEMB      245             0.0000000000
     30422       245  PMPE      H12B            3.4769764511      -27.1833270744      -17.9084810991  MEMB      245             0.0000000000
     30423       245  PMPE      C11             4.1780106193      -29.2196966854      -18.4100809906  MEMB      245             0.0000000000
     30424       245  PMPE      H11A            4.8320378449      -30.0170423762      -17.9967902334  MEMB      245             0.0000000000
     30425       245  PMPE      H11B            4.7013718737      -28.8944132426      -19.3345292342  MEMB      245             0.0000000000
     30426       245  PMPE      P               2.8931888405      -30.6996188711      -20.0782416721  MEMB      245             0.0000000000
     30427       245  PMPE      O13             3.7663461123      -30.1504212007      -21.1530371613  MEMB      245             0.0000000000
     30428       245  PMPE      O14             1.4736680636      -31.0891712684      -20.4722389544  MEMB      245             0.0000000000
     30429       245  PMPE      O11             3.5363491544      -31.9490552483      -19.3962316103  MEMB      245             0.0000000000
     30430       245  PMPE      O12             2.9343895553      -29.7291288637      -18.7867547348  MEMB      245             0.0000000000
     30431       245  PMPE      C1              2.6636120804      -32.5744182075      -18.4890216261  MEMB      245             0.0000000000
     30432       245  PMPE      HA              2.5408204962      -33.6521099862      -18.7294877357  MEMB      245             0.0000000000
     30433       245  PMPE      HB              1.5729998549      -32.3625670967      -18.4867263475  MEMB      245             0.0000000000
     30434       245  PMPE      C2              3.1181659263      -32.3292593401      -17.0707634853  MEMB      245             0.0000000000
     30435       245  PMPE      HS              2.9870308554      -31.3128300325      -16.6418158885  MEMB      245             0.0000000000
     30436       245  PMPE      O21             4.5259024367      -32.6069176875      -16.9620796828  MEMB      245             0.0000000000
     30437       245  PMPE      C21             5.3630104934      -31.8441159048      -16.2370949507  MEMB      245             0.0000000000
     30438       245  PMPE      O22             5.0767169909      -30.8285505517      -15.6491294115  MEMB      245             0.0000000000
     30439       245  PMPE      C22             6.6952976268      -32.4942467492      -15.9463617690  MEMB      245             0.0000000000
     30440       245  PMPE      H2R             7.4174072138      -32.1577448198      -16.7207295482  MEMB      245             0.0000000000
     30441       245  PMPE      H2S             6.8054471562      -33.5953957753      -15.8480823906  MEMB      245             0.0000000000
     30442       245  PMPE      C3              2.4082952974      -33.2845897610      -15.9955125847  MEMB      245             0.0000000000
     30443       245  PMPE      HX              2.9535255356      -34.2191488937      -16.2477900958  MEMB      245             0.0000000000
     30444       245  PMPE      HY              1.3185431572      -33.2869829220      -16.2117426892  MEMB      245             0.0000000000
     30445       245  PMPE      O31             2.7690309241      -33.1153463158      -14.6821669529  MEMB      245             0.0000000000
     30446       245  PMPE      C31             1.9018508367      -32.3435289240      -13.9926066453  MEMB      245             0.0000000000
     30447       245  PMPE      O32             1.0271565148      -31.6485078886      -14.3794966188  MEMB      245             0.0000000000
     30448       245  PMPE      C32             2.4329981847      -32.3377039346      -12.4885405987  MEMB      245             0.0000000000
     30449       245  PMPE      H2X             3.1200877204      -31.4902470484      -12.2786702605  MEMB      245             0.0000000000
     30450       245  PMPE      H2Y             2.9786092961      -33.2843050613      -12.2871064567  MEMB      245             0.0000000000
     30451       245  PMPE      C23             7.2628516785      -32.1349870405      -14.5071426615  MEMB      245             0.0000000000
     30452       245  PMPE      H3R             7.4819050586      -31.0521738226      -14.3894474345  MEMB      245             0.0000000000
     30453       245  PMPE      H3S             8.2668070661      -32.5718516280      -14.3186101735  MEMB      245             0.0000000000
     30454       245  PMPE      C24             6.5120540028      -32.7306322952      -13.3103406037  MEMB      245             0.0000000000
     30455       245  PMPE      H4R             6.4906242763      -33.8399639800      -13.3673039094  MEMB      245             0.0000000000
     30456       245  PMPE      H4S             5.4449675582      -32.4326054668      -13.3929714315  MEMB      245             0.0000000000
     30457       245  PMPE      C25             7.2126208461      -32.3386252326      -12.0155004116  MEMB      245             0.0000000000
     30458       245  PMPE      H5R             7.1697175171      -31.2303246452      -11.9510798113  MEMB      245             0.0000000000
     30459       245  PMPE      H5S             8.2826348474      -32.5273310141      -12.2474075412  MEMB      245             0.0000000000
     30460       245  PMPE      C26             6.7207878211      -32.9726867477      -10.7083098346  MEMB      245             0.0000000000
     30461       245  PMPE      H6R             6.7844937800      -34.0765245669      -10.8169583011  MEMB      245             0.0000000000
     30462       245  PMPE      H6S             5.6745280580      -32.6336662817      -10.5510627275  MEMB      245             0.0000000000
     30463       245  PMPE      C27             7.5771336649      -32.4412212273       -9.5271983566  MEMB      245             0.0000000000
     30464       245  PMPE      H7R             7.4718867900      -31.3409113326       -9.6392808080  MEMB      245             0.0000000000
     30465       245  PMPE      H7S             8.6454578557      -32.7257598539       -9.6369355127  MEMB      245             0.0000000000
     30466       245  PMPE      C28             7.0584780561      -32.9214137633       -8.1762080107  MEMB      245             0.0000000000
     30467       245  PMPE      H8R             6.7671383904      -33.9916282047       -8.2401077192  MEMB      245             0.0000000000
     30468       245  PMPE      H8S             6.1274049771      -32.3578162416       -7.9530891391  MEMB      245             0.0000000000
     30469       245  PMPE      C29             8.1343506061      -32.6755658304       -7.1201582040  MEMB      245             0.0000000000
     30470       245  PMPE      H9R             8.3753931151      -31.6135818579       -6.9001366343  MEMB      245             0.0000000000
     30471       245  PMPE      C217            9.2980861599      -33.6779518742       -7.3089239589  MEMB      245             0.0000000000
     30472       245  PMPE      H17R           10.2145814191      -33.1597037639       -7.0552620371  MEMB      245             0.0000000000
     30473       245  PMPE      H17S            9.1495020167      -34.4605130330       -8.0426887857  MEMB      245             0.0000000000
     30474       245  PMPE      C210            8.4361075845      -33.7651907998       -6.0501834074  MEMB      245             0.0000000000
     30475       245  PMPE      H10R            8.8182070418      -33.3493576471       -5.0934160152  MEMB      245             0.0000000000
     30476       245  PMPE      C211            7.2845543510      -34.8571974814       -5.8764445975  MEMB      245             0.0000000000
     30477       245  PMPE      H11R            7.7553385426      -35.6352806593       -5.2382673255  MEMB      245             0.0000000000
     30478       245  PMPE      H11S            7.1357700558      -35.3800160276       -6.8453841118  MEMB      245             0.0000000000
     30479       245  PMPE      C212            5.8793642152      -34.3822346875       -5.4381866526  MEMB      245             0.0000000000
     30480       245  PMPE      H12R            5.1918171750      -35.1950052419       -5.1203761279  MEMB      245             0.0000000000
     30481       245  PMPE      H12S            5.3301909542      -34.0994634579       -6.3616420344  MEMB      245             0.0000000000
     30482       245  PMPE      C213            5.9363741171      -33.3296950649       -4.3110023316  MEMB      245             0.0000000000
     30483       245  PMPE      H13R            4.9311769556      -32.9069771678       -4.0983777475  MEMB      245             0.0000000000
     30484       245  PMPE      H13S            6.4946481108      -32.4302566973       -4.6481393318  MEMB      245             0.0000000000
     30485       245  PMPE      C214            6.4506603318      -33.6998654365       -2.8788991762  MEMB      245             0.0000000000
     30486       245  PMPE      H14R            7.2511267563      -34.4594761885       -3.0076088632  MEMB      245             0.0000000000
     30487       245  PMPE      H14S            5.5924190868      -34.2190650527       -2.4012232608  MEMB      245             0.0000000000
     30488       245  PMPE      C215            6.9586115998      -32.5568144061       -1.9846584938  MEMB      245             0.0000000000
     30489       245  PMPE      H15R            7.9081533277      -32.1160109781       -2.3566579344  MEMB      245             0.0000000000
     30490       245  PMPE      H15S            7.1440774005      -33.0592743284       -1.0112848937  MEMB      245             0.0000000000
     30491       245  PMPE      C216            5.8906100677      -31.4000490074       -1.7534713862  MEMB      245             0.0000000000
     30492       245  PMPE      H16R            5.8393574179      -30.7785273536       -2.6729307432  MEMB      245             0.0000000000
     30493       245  PMPE      H16S            5.0173600987      -31.9510320723       -1.3433822856  MEMB      245             0.0000000000
     30494       245  PMPE      H16T            6.1966911766      -30.7033645455       -0.9439858043  MEMB      245             0.0000000000
     30495       245  PMPE      C33             1.2360953145      -32.2699933873      -11.5172086329  MEMB      245             0.0000000000
     30496       245  PMPE      H3X             0.4037241681      -32.9454145221      -11.8092461422  MEMB      245             0.0000000000
     30497       245  PMPE      H3Y             0.8895054786      -31.2159006099      -11.5727513813  MEMB      245             0.0000000000
     30498       245  PMPE      C34             1.6467844255      -32.5967015768      -10.0604203708  MEMB      245             0.0000000000
     30499       245  PMPE      H4X             2.0894907328      -33.5632785793      -10.3830057197  MEMB      245             0.0000000000
     30500       245  PMPE      H4Y             0.7137830360      -32.7801012832       -9.4857958366  MEMB      245             0.0000000000
     30501       245  PMPE      C35             2.6810607498      -31.8170996267       -9.1983369149  MEMB      245             0.0000000000
     30502       245  PMPE      H5X             2.4562350845      -30.7291954456       -9.2137917824  MEMB      245             0.0000000000
     30503       245  PMPE      H5Y             3.7055613466      -32.0722009808       -9.5442310036  MEMB      245             0.0000000000
     30504       245  PMPE      C36             2.6729864896      -32.0994529471       -7.6433699530  MEMB      245             0.0000000000
     30505       245  PMPE      H6X             3.4635176351      -31.5561904745       -7.0827926295  MEMB      245             0.0000000000
     30506       245  PMPE      H6Y             2.9662569978      -33.1679074089       -7.5614028259  MEMB      245             0.0000000000
     30507       245  PMPE      C37             1.2993869271      -31.7565549303       -6.9354602305  MEMB      245             0.0000000000
     30508       245  PMPE      H7X             0.3936395056      -31.9468791227       -7.5500500311  MEMB      245             0.0000000000
     30509       245  PMPE      H7Y             1.4343242078      -30.6592643294       -6.8256135508  MEMB      245             0.0000000000
     30510       245  PMPE      C38             1.0453505362      -32.4342334937       -5.5806353692  MEMB      245             0.0000000000
     30511       245  PMPE      H8X             1.3933676900      -33.4771559190       -5.7403791540  MEMB      245             0.0000000000
     30512       245  PMPE      H8Y            -0.0568944586      -32.3232052054       -5.6645956450  MEMB      245             0.0000000000
     30513       245  PMPE      C39             1.5453218519      -31.6715516953       -4.4154708127  MEMB      245             0.0000000000
     30514       245  PMPE      H9X             1.3532322826      -30.5867858753       -4.2715764580  MEMB      245             0.0000000000
     30515       245  PMPE      H9Y             2.6542591004      -31.6923819749       -4.4798526995  MEMB      245             0.0000000000
     30516       245  PMPE      C310            1.0950310940      -32.4535166298       -3.1682006921  MEMB      245             0.0000000000
     30517       245  PMPE      H10X            0.0579658366      -32.8323877589       -3.2917849536  MEMB      245             0.0000000000
     30518       245  PMPE      H10Y            1.0664857145      -31.6955605650       -2.3564060700  MEMB      245             0.0000000000
     30519       245  PMPE      C311            2.0691191715      -33.4965150736       -2.6924988039  MEMB      245             0.0000000000
     30520       245  PMPE      H11X            2.9781049850      -32.9836474287       -2.3116677167  MEMB      245             0.0000000000
     30521       245  PMPE      H11Y            2.3345630258      -34.1306709603       -3.5652575512  MEMB      245             0.0000000000
     30522       245  PMPE      C312            1.4004551367      -34.3558998292       -1.5856446326  MEMB      245             0.0000000000
     30523       245  PMPE      H12X            1.4379819277      -35.4126992046       -1.9263616751  MEMB      245             0.0000000000
     30524       245  PMPE      H12Y            0.3321969536      -34.0997104484       -1.4197752701  MEMB      245             0.0000000000
     30525       245  PMPE      C313            2.0898206331      -34.0926729989       -0.1845249093  MEMB      245             0.0000000000
     30526       245  PMPE      H13X            2.3793399253      -33.0200815756       -0.1914152352  MEMB      245             0.0000000000
     30527       245  PMPE      H13Y            3.0494781731      -34.6520684375       -0.1632053532  MEMB      245             0.0000000000
     30528       245  PMPE      C314            1.3379925667      -34.4516751287        1.0646334973  MEMB      245             0.0000000000
     30529       245  PMPE      H14X            1.2951939309      -35.5597692315        1.1325836059  MEMB      245             0.0000000000
     30530       245  PMPE      H14Y            0.3688876633      -33.9088447816        1.0868021901  MEMB      245             0.0000000000
     30531       245  PMPE      C315            2.0911984893      -34.0321263914        2.3515970080  MEMB      245             0.0000000000
     30532       245  PMPE      H15X            3.0623028936      -34.5521834468        2.4958814470  MEMB      245             0.0000000000
     30533       245  PMPE      H15Y            1.5878699186      -34.4508701281        3.2491670045  MEMB      245             0.0000000000
     30534       245  PMPE      C316            2.2128979803      -32.5430880039        2.5234350776  MEMB      245             0.0000000000
     30535       245  PMPE      H16X            3.2423767243      -32.1297192015        2.4632596068  MEMB      245             0.0000000000
     30536       245  PMPE      H16Y            1.8868446362      -32.1950846642        3.5268807238  MEMB      245             0.0000000000
     30537       245  PMPE      H16Z            1.5737777537      -31.9828695456        1.8078915903  MEMB      245             0.0000000000
     30538       246  QMPE      N              30.0408060475       -6.7627360020      -22.1706832195  MEMB      246             0.0000000000
     30539       246  QMPE      HN1            30.4516674066       -5.8896506550      -22.5586455860  MEMB      246             0.0000000000
     30540       246  QMPE      HN2            30.2793451043       -7.6636710506      -22.6322187530  MEMB      246             0.0000000000
     30541       246  QMPE      HN3            29.0016117866       -6.7400837926      -22.1365927547  MEMB      246             0.0000000000
     30542       246  QMPE      C12            30.6543420541       -6.7139638602      -20.8106749304  MEMB      246             0.0000000000
     30543       246  QMPE      H12A           30.8940340339       -5.6316157595      -20.7372488689  MEMB      246             0.0000000000
     30544       246  QMPE      H12B           31.6552066854       -7.1961355290      -20.8005935740  MEMB      246             0.0000000000
     30545       246  QMPE      C11            29.7573086697       -7.1925052508      -19.6831314002  MEMB      246             0.0000000000
     30546       246  QMPE      H11A           29.7874497777       -8.3023755645      -19.6431265290  MEMB      246             0.0000000000
     30547       246  QMPE      H11B           28.7507685548       -6.7884064453      -19.9237600023  MEMB      246             0.0000000000
     30548       246  QMPE      P              29.4808791052       -5.3839200320      -17.8437193598  MEMB      246             0.0000000000
     30549       246  QMPE      O13            29.4475701354       -4.3056521805      -18.8536128061  MEMB      246             0.0000000000
     30550       246  QMPE      O14            30.0019116323       -4.9994656516      -16.5588597902  MEMB      246             0.0000000000
     30551       246  QMPE      O11            28.0107532246       -5.8727363327      -17.6492693516  MEMB      246             0.0000000000
     30552       246  QMPE      O12            30.2382723291       -6.6513836511      -18.4300491461  MEMB      246             0.0000000000
     30553       246  QMPE      C1             27.7999253532       -6.9531087098      -16.7749663464  MEMB      246             0.0000000000
     30554       246  QMPE      HA             28.5547898409       -7.0545682557      -15.9661360083  MEMB      246             0.0000000000
     30555       246  QMPE      HB             27.6825295666       -7.9340547909      -17.2831825523  MEMB      246             0.0000000000
     30556       246  QMPE      C2             26.4616781860       -6.7719872864      -16.0727792238  MEMB      246             0.0000000000
     30557       246  QMPE      HS             25.7129269269       -7.0514593590      -16.8445226016  MEMB      246             0.0000000000
     30558       246  QMPE      O21            26.3236585741       -5.3612931723      -15.6619636120  MEMB      246             0.0000000000
     30559       246  QMPE      C21            25.0984208619       -4.9328904809      -15.6085307208  MEMB      246             0.0000000000
     30560       246  QMPE      O22            24.0870670527       -5.6495387632      -15.5879832948  MEMB      246             0.0000000000
     30561       246  QMPE      C22            25.1474360875       -3.4884315054      -15.6782398724  MEMB      246             0.0000000000
     30562       246  QMPE      H2R            25.1237837508       -3.1703345716      -16.7424654042  MEMB      246             0.0000000000
     30563       246  QMPE      H2S            26.1174507495       -3.0781554495      -15.3245929099  MEMB      246             0.0000000000
     30564       246  QMPE      C3             26.2317841855       -7.6375252247      -14.7716211074  MEMB      246             0.0000000000
     30565       246  QMPE      HX             26.4589449691       -8.6747034646      -15.0986992273  MEMB      246             0.0000000000
     30566       246  QMPE      HY             25.1846881731       -7.5659484187      -14.4072207588  MEMB      246             0.0000000000
     30567       246  QMPE      O31            27.2150104565       -7.2897323602      -13.8118342044  MEMB      246             0.0000000000
     30568       246  QMPE      C31            26.7367377161       -6.7619576129      -12.6989719944  MEMB      246             0.0000000000
     30569       246  QMPE      O32            25.5636176939       -6.4663761587      -12.4951019692  MEMB      246             0.0000000000
     30570       246  QMPE      C32            27.8146585010       -6.6274477940      -11.6277911273  MEMB      246             0.0000000000
     30571       246  QMPE      H2X            27.2974163950       -6.4014620977      -10.6708621340  MEMB      246             0.0000000000
     30572       246  QMPE      H2Y            28.3616535041       -7.5797841081      -11.4599431823  MEMB      246             0.0000000000
     30573       246  QMPE      C23            23.8961633735       -2.9192308970      -15.0280598037  MEMB      246             0.0000000000
     30574       246  QMPE      H3R            22.9622935508       -3.3199852986      -15.4770635681  MEMB      246             0.0000000000
     30575       246  QMPE      H3S            23.8281336261       -1.8391205366      -15.2791670831  MEMB      246             0.0000000000
     30576       246  QMPE      C24            23.6376401188       -3.1580431370      -13.4634281134  MEMB      246             0.0000000000
     30577       246  QMPE      H4R            23.6004962878       -4.2474056040      -13.2484140184  MEMB      246             0.0000000000
     30578       246  QMPE      H4S            22.6362993605       -2.6990823488      -13.3185408868  MEMB      246             0.0000000000
     30579       246  QMPE      C25            24.6834949441       -2.5089936471      -12.6062392007  MEMB      246             0.0000000000
     30580       246  QMPE      H5R            24.6082602788       -1.4007731412      -12.6287760685  MEMB      246             0.0000000000
     30581       246  QMPE      H5S            25.7258548438       -2.7129486577      -12.9321364759  MEMB      246             0.0000000000
     30582       246  QMPE      C26            24.5250458726       -2.8848788593      -11.1408754624  MEMB      246             0.0000000000
     30583       246  QMPE      H6R            25.4854511089       -2.5841097329      -10.6702583026  MEMB      246             0.0000000000
     30584       246  QMPE      H6S            24.4602952286       -3.9939246562      -11.1287895794  MEMB      246             0.0000000000
     30585       246  QMPE      C27            23.4071213648       -2.1229102037      -10.3128308004  MEMB      246             0.0000000000
     30586       246  QMPE      H7R            22.3804956730       -2.3013087287      -10.6982322682  MEMB      246             0.0000000000
     30587       246  QMPE      H7S            23.7013737999       -1.0581937376      -10.4316392516  MEMB      246             0.0000000000
     30588       246  QMPE      C28            23.3795864935       -2.5507055219       -8.8382578609  MEMB      246             0.0000000000
     30589       246  QMPE      H8R            23.1505638107       -3.6378232235       -8.8315765508  MEMB      246             0.0000000000
     30590       246  QMPE      H8S            22.5451877926       -1.9902048601       -8.3650367353  MEMB      246             0.0000000000
     30591       246  QMPE      C29            24.7656971071       -2.1706129536       -8.2174195664  MEMB      246             0.0000000000
     30592       246  QMPE      H9R            25.2902447537       -1.2243014889       -8.4697395485  MEMB      246             0.0000000000
     30593       246  QMPE      C217           25.7861294887       -3.3726604009       -8.1260184764  MEMB      246             0.0000000000
     30594       246  QMPE      H17R           25.4059581709       -4.3385502418       -8.4349129517  MEMB      246             0.0000000000
     30595       246  QMPE      H17S           26.8335158475       -3.0997903493       -8.0884318315  MEMB      246             0.0000000000
     30596       246  QMPE      C210           25.1756126098       -2.7460697991       -6.8781644749  MEMB      246             0.0000000000
     30597       246  QMPE      H10R           25.7427437604       -2.0489231344       -6.2249653623  MEMB      246             0.0000000000
     30598       246  QMPE      C211           23.9822193903       -3.4566156160       -6.1335588900  MEMB      246             0.0000000000
     30599       246  QMPE      H11R           23.4109353273       -2.6446807511       -5.6348433673  MEMB      246             0.0000000000
     30600       246  QMPE      H11S           23.3436368920       -4.1562630721       -6.7140995668  MEMB      246             0.0000000000
     30601       246  QMPE      C212           24.7270238312       -4.1205600997       -4.9967206157  MEMB      246             0.0000000000
     30602       246  QMPE      H12R           25.4547788406       -3.5142057602       -4.4161792855  MEMB      246             0.0000000000
     30603       246  QMPE      H12S           25.3455335806       -4.8750854744       -5.5281892404  MEMB      246             0.0000000000
     30604       246  QMPE      C213           23.7536776272       -4.9393495199       -4.1350190733  MEMB      246             0.0000000000
     30605       246  QMPE      H13R           24.3985245024       -5.7606474415       -3.7555944516  MEMB      246             0.0000000000
     30606       246  QMPE      H13S           22.9406388625       -5.3522661927       -4.7696758988  MEMB      246             0.0000000000
     30607       246  QMPE      C214           23.0519587530       -4.1503310478       -2.9886945118  MEMB      246             0.0000000000
     30608       246  QMPE      H14R           22.6156926563       -3.2257352249       -3.4235683497  MEMB      246             0.0000000000
     30609       246  QMPE      H14S           23.9790932237       -3.8738011276       -2.4425499479  MEMB      246             0.0000000000
     30610       246  QMPE      C215           22.0557277941       -4.8591277220       -2.1076394971  MEMB      246             0.0000000000
     30611       246  QMPE      H15R           22.4052328743       -5.8592304871       -1.7730323419  MEMB      246             0.0000000000
     30612       246  QMPE      H15S           21.0460997424       -4.9521762760       -2.5618577478  MEMB      246             0.0000000000
     30613       246  QMPE      C216           21.8305164360       -4.2104044803       -0.7270183465  MEMB      246             0.0000000000
     30614       246  QMPE      H16R           22.8066732284       -4.0413230279       -0.2241765040  MEMB      246             0.0000000000
     30615       246  QMPE      H16S           21.1313467699       -4.8181422463       -0.1137169251  MEMB      246             0.0000000000
     30616       246  QMPE      H16T           21.2642116943       -3.2545825757       -0.7320168658  MEMB      246             0.0000000000
     30617       246  QMPE      C33            28.9057190284       -5.6014178542      -12.0711414092  MEMB      246             0.0000000000
     30618       246  QMPE      H3X            28.3940420371       -4.8269848369      -12.6816830465  MEMB      246             0.0000000000
     30619       246  QMPE      H3Y            29.6636784278       -6.1241424565      -12.6928948540  MEMB      246             0.0000000000
     30620       246  QMPE      C34            29.7979966823       -4.9531182812      -10.9311753718  MEMB      246             0.0000000000
     30621       246  QMPE      H4X            30.8748246771       -5.1568481001      -11.1135396919  MEMB      246             0.0000000000
     30622       246  QMPE      H4Y            29.4074554251       -5.4150243333       -9.9992731439  MEMB      246             0.0000000000
     30623       246  QMPE      C35            29.6689829019       -3.3964989326      -10.9095497105  MEMB      246             0.0000000000
     30624       246  QMPE      H5X            28.5912848081       -3.1372490158      -10.9848978401  MEMB      246             0.0000000000
     30625       246  QMPE      H5Y            29.9443213778       -3.0062235658      -11.9126420496  MEMB      246             0.0000000000
     30626       246  QMPE      C36            30.4543410879       -2.7581750796       -9.7901153867  MEMB      246             0.0000000000
     30627       246  QMPE      H6X            30.3926447857       -1.6492262789       -9.7627830953  MEMB      246             0.0000000000
     30628       246  QMPE      H6Y            31.5028038253       -3.1236085317       -9.8289086305  MEMB      246             0.0000000000
     30629       246  QMPE      C37            30.0581661378       -3.3608981258       -8.4186738581  MEMB      246             0.0000000000
     30630       246  QMPE      H7X            28.9658208841       -3.1665825476       -8.3608480202  MEMB      246             0.0000000000
     30631       246  QMPE      H7Y            30.1683282824       -4.4649883227       -8.3623709825  MEMB      246             0.0000000000
     30632       246  QMPE      C38            30.9325771348       -2.7373217068       -7.3272321039  MEMB      246             0.0000000000
     30633       246  QMPE      H8X            31.9839954013       -3.0569675772       -7.4905329857  MEMB      246             0.0000000000
     30634       246  QMPE      H8Y            31.0647373993       -1.6451329897       -7.4820828237  MEMB      246             0.0000000000
     30635       246  QMPE      C39            30.5683396698       -3.1587127795       -5.9332293076  MEMB      246             0.0000000000
     30636       246  QMPE      H9X            31.2448801575       -2.7114763348       -5.1738913405  MEMB      246             0.0000000000
     30637       246  QMPE      H9Y            30.5965232899       -4.2666113079       -6.0112485265  MEMB      246             0.0000000000
     30638       246  QMPE      C310           29.0962268025       -2.6645987355       -5.5209944043  MEMB      246             0.0000000000
     30639       246  QMPE      H10X           28.5397139874       -3.2545496958       -6.2803174992  MEMB      246             0.0000000000
     30640       246  QMPE      H10Y           29.0483520343       -1.6183321093       -5.8916084704  MEMB      246             0.0000000000
     30641       246  QMPE      C311           28.6917046429       -2.7956178902       -4.0914135069  MEMB      246             0.0000000000
     30642       246  QMPE      H11X           27.7849509982       -2.1609323677       -3.9950132701  MEMB      246             0.0000000000
     30643       246  QMPE      H11Y           29.5524382869       -2.2731921313       -3.6218075083  MEMB      246             0.0000000000
     30644       246  QMPE      C312           28.6481448456       -4.2834720908       -3.6276889693  MEMB      246             0.0000000000
     30645       246  QMPE      H12X           29.6448122478       -4.7454733228       -3.7936112088  MEMB      246             0.0000000000
     30646       246  QMPE      H12Y           28.0009164308       -4.9388242097       -4.2489209960  MEMB      246             0.0000000000
     30647       246  QMPE      C313           28.3470500565       -4.3756762411       -2.2011151001  MEMB      246             0.0000000000
     30648       246  QMPE      H13X           28.6984488701       -3.5870365831       -1.5019103530  MEMB      246             0.0000000000
     30649       246  QMPE      H13Y           27.2545206500       -4.1900916636       -2.1220033803  MEMB      246             0.0000000000
     30650       246  QMPE      C314           28.5428112363       -5.8149413603       -1.6218174844  MEMB      246             0.0000000000
     30651       246  QMPE      H14X           29.6393640924       -5.9667556473       -1.5277679007  MEMB      246             0.0000000000
     30652       246  QMPE      H14Y           28.3130152446       -6.4971179081       -2.4680746410  MEMB      246             0.0000000000
     30653       246  QMPE      C315           27.7386174121       -6.2895550550       -0.4257211845  MEMB      246             0.0000000000
     30654       246  QMPE      H15X           27.6599400482       -7.3935391416       -0.3290253585  MEMB      246             0.0000000000
     30655       246  QMPE      H15Y           27.9383921923       -5.7631504176        0.5320410811  MEMB      246             0.0000000000
     30656       246  QMPE      H15Z           26.7206154282       -5.9611197508       -0.7259264617  MEMB      246             0.0000000000
     30657       247  PMPE      N             -21.4773671474       18.4738539091      -20.6060330211  MEMB      247             0.0000000000
     30658       247  PMPE      HN1           -21.0993892789       18.8475242451      -19.7121073763  MEMB      247             0.0000000000
     30659       247  PMPE      HN2           -21.4120850336       17.4359342602      -20.5982168756  MEMB      247             0.0000000000
     30660       247  PMPE      HN3           -20.8927425757       18.9038031902      -21.3509880549  MEMB      247             0.0000000000
     30661       247  PMPE      C12           -22.9011525771       18.8559266334      -20.9004936452  MEMB      247             0.0000000000
     30662       247  PMPE      H12A          -23.2722868895       18.1565440580      -21.6798807761  MEMB      247             0.0000000000
     30663       247  PMPE      H12B          -22.8430423982       19.9131131461      -21.2370958102  MEMB      247             0.0000000000
     30664       247  PMPE      C11           -23.8293607003       18.9099374236      -19.6543713342  MEMB      247             0.0000000000
     30665       247  PMPE      H11A          -23.9852775567       17.8460508183      -19.3748069803  MEMB      247             0.0000000000
     30666       247  PMPE      H11B          -24.7928017827       19.4151963761      -19.8797946106  MEMB      247             0.0000000000
     30667       247  PMPE      P             -23.2341771323       20.9114294769      -18.1509058095  MEMB      247             0.0000000000
     30668       247  PMPE      O13           -22.8941892979       21.6879688197      -19.3191641965  MEMB      247             0.0000000000
     30669       247  PMPE      O14           -22.3639007573       21.0995409884      -16.9671884312  MEMB      247             0.0000000000
     30670       247  PMPE      O11           -24.7733023612       20.9295914000      -17.8637038758  MEMB      247             0.0000000000
     30671       247  PMPE      O12           -23.0916164296       19.4171857489      -18.5381396888  MEMB      247             0.0000000000
     30672       247  PMPE      C1            -25.6022779635       19.9761883537      -17.1380709443  MEMB      247             0.0000000000
     30673       247  PMPE      HA            -25.0652344040       19.0114292905      -17.2611370613  MEMB      247             0.0000000000
     30674       247  PMPE      HB            -26.5286719368       19.7993762308      -17.7253125081  MEMB      247             0.0000000000
     30675       247  PMPE      C2            -25.8834571815       20.3224641601      -15.6863166185  MEMB      247             0.0000000000
     30676       247  PMPE      HS            -26.5877678934       21.1816102054      -15.6746853803  MEMB      247             0.0000000000
     30677       247  PMPE      O21           -24.7272338612       20.7359425413      -14.9840731727  MEMB      247             0.0000000000
     30678       247  PMPE      C21           -24.8122747562       21.8118424435      -14.1457098736  MEMB      247             0.0000000000
     30679       247  PMPE      O22           -25.7036500409       22.6720863893      -14.2589927329  MEMB      247             0.0000000000
     30680       247  PMPE      C22           -23.8165344156       21.9110919233      -13.0374388982  MEMB      247             0.0000000000
     30681       247  PMPE      H2R           -24.3535486005       22.1777566254      -12.1021169980  MEMB      247             0.0000000000
     30682       247  PMPE      H2S           -23.0880093425       22.7019683859      -13.3168785825  MEMB      247             0.0000000000
     30683       247  PMPE      C3            -26.5226974067       19.0370109994      -14.9995770477  MEMB      247             0.0000000000
     30684       247  PMPE      HX            -26.0175510378       18.0896430442      -15.2853080154  MEMB      247             0.0000000000
     30685       247  PMPE      HY            -27.6161320090       18.9943312070      -15.1916711702  MEMB      247             0.0000000000
     30686       247  PMPE      O31           -26.3282142584       19.0008018134      -13.5740678558  MEMB      247             0.0000000000
     30687       247  PMPE      C31           -27.2891131225       19.5332421761      -12.8044496254  MEMB      247             0.0000000000
     30688       247  PMPE      O32           -28.1953460826       20.2603667520      -13.1338211738  MEMB      247             0.0000000000
     30689       247  PMPE      C32           -27.0761552190       18.9298722045      -11.3196813740  MEMB      247             0.0000000000
     30690       247  PMPE      H2X           -27.3522681145       19.7159940387      -10.5847699540  MEMB      247             0.0000000000
     30691       247  PMPE      H2Y           -25.9894587402       18.7378910993      -11.1910145499  MEMB      247             0.0000000000
     30692       247  PMPE      C23           -23.0400791483       20.5921905567      -12.9820101281  MEMB      247             0.0000000000
     30693       247  PMPE      H3R           -22.7123487748       20.2686700431      -13.9930732399  MEMB      247             0.0000000000
     30694       247  PMPE      H3S           -23.6559898777       19.7460260500      -12.6092094527  MEMB      247             0.0000000000
     30695       247  PMPE      C24           -21.7453162007       20.6678557541      -12.1547789636  MEMB      247             0.0000000000
     30696       247  PMPE      H4R           -21.0195136417       21.4180157294      -12.5352937976  MEMB      247             0.0000000000
     30697       247  PMPE      H4S           -21.2575032394       19.6743641713      -12.2513905843  MEMB      247             0.0000000000
     30698       247  PMPE      C25           -22.0321372052       21.0515469311      -10.6465645116  MEMB      247             0.0000000000
     30699       247  PMPE      H5R           -22.6624151992       21.9643326484      -10.7089583691  MEMB      247             0.0000000000
     30700       247  PMPE      H5S           -21.0808586912       21.1597730824      -10.0829358569  MEMB      247             0.0000000000
     30701       247  PMPE      C26           -22.8621940196       20.0034792772       -9.7994365041  MEMB      247             0.0000000000
     30702       247  PMPE      H6R           -22.2696679585       19.0850851490       -9.9989007174  MEMB      247             0.0000000000
     30703       247  PMPE      H6S           -23.9129454017       19.8692617015      -10.1344407279  MEMB      247             0.0000000000
     30704       247  PMPE      C27           -23.0196814097       20.2261588879       -8.2495325458  MEMB      247             0.0000000000
     30705       247  PMPE      H7R           -23.6143370515       19.3747270420       -7.8548554949  MEMB      247             0.0000000000
     30706       247  PMPE      H7S           -23.4979316093       21.2220148532       -8.1317673532  MEMB      247             0.0000000000
     30707       247  PMPE      C28           -21.6935434824       20.2561112307       -7.3558383359  MEMB      247             0.0000000000
     30708       247  PMPE      H8R           -20.7796580499       20.4331934432       -7.9622840952  MEMB      247             0.0000000000
     30709       247  PMPE      H8S           -21.7174720237       19.2035877925       -7.0009537247  MEMB      247             0.0000000000
     30710       247  PMPE      C29           -21.7789941883       21.1432933370       -6.0906905460  MEMB      247             0.0000000000
     30711       247  PMPE      H9R           -22.7870137011       21.3988367670       -5.6996471422  MEMB      247             0.0000000000
     30712       247  PMPE      C217          -20.9206498056       22.3859246744       -6.2647731611  MEMB      247             0.0000000000
     30713       247  PMPE      H17R          -21.4714579935       23.2657220979       -5.9558133142  MEMB      247             0.0000000000
     30714       247  PMPE      H17S          -20.3868134072       22.3929810897       -7.2070345102  MEMB      247             0.0000000000
     30715       247  PMPE      C210          -20.5928045632       21.4194511550       -5.2038548353  MEMB      247             0.0000000000
     30716       247  PMPE      H10R          -20.7916944893       21.6971037244       -4.1466543641  MEMB      247             0.0000000000
     30717       247  PMPE      C211          -19.4175749327       20.4875560132       -5.4139555874  MEMB      247             0.0000000000
     30718       247  PMPE      H11R          -18.5547419117       20.7196583724       -4.7536764675  MEMB      247             0.0000000000
     30719       247  PMPE      H11S          -19.1250760596       20.5055778044       -6.4856087660  MEMB      247             0.0000000000
     30720       247  PMPE      C212          -19.6760564939       18.9789959499       -5.0509016284  MEMB      247             0.0000000000
     30721       247  PMPE      H12R          -19.0039106984       18.2125411146       -5.4925889040  MEMB      247             0.0000000000
     30722       247  PMPE      H12S          -20.6434416015       18.6746919966       -5.5046483955  MEMB      247             0.0000000000
     30723       247  PMPE      C213          -19.7803801091       18.7436404073       -3.5028786966  MEMB      247             0.0000000000
     30724       247  PMPE      H13R          -20.5252935704       19.4306122110       -3.0473620216  MEMB      247             0.0000000000
     30725       247  PMPE      H13S          -18.7643277675       18.8946261246       -3.0796029561  MEMB      247             0.0000000000
     30726       247  PMPE      C214          -20.1558613477       17.2433039544       -3.1714098382  MEMB      247             0.0000000000
     30727       247  PMPE      H14R          -19.6917487356       16.4924440950       -3.8460420346  MEMB      247             0.0000000000
     30728       247  PMPE      H14S          -21.1829477515       17.1035411094       -3.5712606148  MEMB      247             0.0000000000
     30729       247  PMPE      C215          -20.1841074998       16.9694412888       -1.6751823198  MEMB      247             0.0000000000
     30730       247  PMPE      H15R          -20.7446177293       17.7485971209       -1.1156609293  MEMB      247             0.0000000000
     30731       247  PMPE      H15S          -19.1032693572       16.9252046792       -1.4218970545  MEMB      247             0.0000000000
     30732       247  PMPE      C216          -20.8164066306       15.6482376513       -1.3079323143  MEMB      247             0.0000000000
     30733       247  PMPE      H16R          -21.8712169674       15.6206754694       -1.6556926729  MEMB      247             0.0000000000
     30734       247  PMPE      H16S          -20.3723532788       14.7143630870       -1.7141555203  MEMB      247             0.0000000000
     30735       247  PMPE      H16T          -20.7928569551       15.6495493633       -0.1971839694  MEMB      247             0.0000000000
     30736       247  PMPE      C33           -27.8686566990       17.6148084126      -11.2944370506  MEMB      247             0.0000000000
     30737       247  PMPE      H3X           -27.9820618251       17.0576837111      -12.2489382660  MEMB      247             0.0000000000
     30738       247  PMPE      H3Y           -28.8713666984       17.8840771210      -10.8989777317  MEMB      247             0.0000000000
     30739       247  PMPE      C34           -27.2451493965       16.5409497197      -10.3706658948  MEMB      247             0.0000000000
     30740       247  PMPE      H4X           -26.2651790011       16.1351809603      -10.7013184305  MEMB      247             0.0000000000
     30741       247  PMPE      H4Y           -27.9542280113       15.6990228517      -10.2200393303  MEMB      247             0.0000000000
     30742       247  PMPE      C35           -26.8136626641       17.1279345958       -8.9976371266  MEMB      247             0.0000000000
     30743       247  PMPE      H5X           -26.1196176049       17.9856569993       -9.1277695525  MEMB      247             0.0000000000
     30744       247  PMPE      H5Y           -26.3109142428       16.2610464063       -8.5179806145  MEMB      247             0.0000000000
     30745       247  PMPE      C36           -28.0566678691       17.5135410751       -8.1787073503  MEMB      247             0.0000000000
     30746       247  PMPE      H6X           -28.8189944709       16.7165472529       -8.0446184853  MEMB      247             0.0000000000
     30747       247  PMPE      H6Y           -28.5703152594       18.3341797665       -8.7237208885  MEMB      247             0.0000000000
     30748       247  PMPE      C37           -27.7309808492       18.0080132859       -6.7341524530  MEMB      247             0.0000000000
     30749       247  PMPE      H7X           -28.7239831137       18.2984979350       -6.3293230464  MEMB      247             0.0000000000
     30750       247  PMPE      H7Y           -27.0026832383       18.8286113552       -6.9088584667  MEMB      247             0.0000000000
     30751       247  PMPE      C38           -27.1332485859       16.8722562670       -5.7899514015  MEMB      247             0.0000000000
     30752       247  PMPE      H8X           -26.1517790654       16.5182766113       -6.1717064795  MEMB      247             0.0000000000
     30753       247  PMPE      H8Y           -27.8357675207       16.0117345815       -5.8069861290  MEMB      247             0.0000000000
     30754       247  PMPE      C39           -26.7260170932       17.1695523029       -4.3402975215  MEMB      247             0.0000000000
     30755       247  PMPE      H9X           -26.8189515311       16.2204749816       -3.7702643963  MEMB      247             0.0000000000
     30756       247  PMPE      H9Y           -27.3496298847       18.0094187513       -3.9660614094  MEMB      247             0.0000000000
     30757       247  PMPE      C310          -25.3340681381       17.8824422472       -4.2556491062  MEMB      247             0.0000000000
     30758       247  PMPE      H10X          -25.2737479705       18.7843163321       -4.9016406754  MEMB      247             0.0000000000
     30759       247  PMPE      H10Y          -24.6127976883       17.1262126657       -4.6327520931  MEMB      247             0.0000000000
     30760       247  PMPE      C311          -24.9329357822       18.4321144254       -2.8766449735  MEMB      247             0.0000000000
     30761       247  PMPE      H11X          -23.8310797455       18.5204664122       -2.9881278815  MEMB      247             0.0000000000
     30762       247  PMPE      H11Y          -25.1458413950       17.6496399751       -2.1172219829  MEMB      247             0.0000000000
     30763       247  PMPE      C312          -25.4951496228       19.7633852717       -2.4758710649  MEMB      247             0.0000000000
     30764       247  PMPE      H12X          -25.7946178348       19.7740922675       -1.4060455814  MEMB      247             0.0000000000
     30765       247  PMPE      H12Y          -26.4272525978       19.9942302797       -3.0346340501  MEMB      247             0.0000000000
     30766       247  PMPE      C313          -24.5134487462       21.0257636787       -2.7238827164  MEMB      247             0.0000000000
     30767       247  PMPE      H13X          -24.4048131539       21.2274079925       -3.8110166637  MEMB      247             0.0000000000
     30768       247  PMPE      H13Y          -23.5204552704       20.8822612464       -2.2467116885  MEMB      247             0.0000000000
     30769       247  PMPE      C314          -24.9504883900       22.4424552810       -2.1179128417  MEMB      247             0.0000000000
     30770       247  PMPE      H14X          -24.9986610539       22.3610145742       -1.0109485208  MEMB      247             0.0000000000
     30771       247  PMPE      H14Y          -25.9226261265       22.7665609327       -2.5471257607  MEMB      247             0.0000000000
     30772       247  PMPE      C315          -24.0064727417       23.5324559910       -2.6375215991  MEMB      247             0.0000000000
     30773       247  PMPE      H15X          -24.3938398385       24.4771796401       -2.1996130013  MEMB      247             0.0000000000
     30774       247  PMPE      H15Y          -23.9347002814       23.5527445356       -3.7460160789  MEMB      247             0.0000000000
     30775       247  PMPE      C316          -22.5630189014       23.4495529057       -2.0735450059  MEMB      247             0.0000000000
     30776       247  PMPE      H16X          -21.8757839349       22.8446590294       -2.7029364963  MEMB      247             0.0000000000
     30777       247  PMPE      H16Y          -22.5752148190       22.9358858952       -1.0884969476  MEMB      247             0.0000000000
     30778       247  PMPE      H16Z          -22.0623558046       24.4244859014       -1.8914378805  MEMB      247             0.0000000000
     30779       248  PMPE      N              19.8620236799      -21.8114816792      -20.5084811576  MEMB      248             0.0000000000
     30780       248  PMPE      HN1            19.2541083712      -21.8195496874      -21.3522665107  MEMB      248             0.0000000000
     30781       248  PMPE      HN2            20.7339183772      -22.1458581476      -20.9662933102  MEMB      248             0.0000000000
     30782       248  PMPE      HN3            19.5682524896      -22.2575848247      -19.6161299730  MEMB      248             0.0000000000
     30783       248  PMPE      C12            20.3499339645      -20.4553929852      -20.2793740296  MEMB      248             0.0000000000
     30784       248  PMPE      H12A           19.5091993104      -19.7447801705      -20.1293210596  MEMB      248             0.0000000000
     30785       248  PMPE      H12B           20.7369738083      -20.0917004855      -21.2552066185  MEMB      248             0.0000000000
     30786       248  PMPE      C11            21.2838243110      -20.3499478143      -19.1272828922  MEMB      248             0.0000000000
     30787       248  PMPE      H11A           20.8254557771      -20.8486256462      -18.2466355928  MEMB      248             0.0000000000
     30788       248  PMPE      H11B           21.4892385747      -19.3082194886      -18.8002842490  MEMB      248             0.0000000000
     30789       248  PMPE      P              23.5806990639      -21.2287099475      -18.3919537598  MEMB      248             0.0000000000
     30790       248  PMPE      O13            23.5143579460      -20.0399798967      -17.5179799698  MEMB      248             0.0000000000
     30791       248  PMPE      O14            24.8748031897      -21.6350933129      -18.9604362836  MEMB      248             0.0000000000
     30792       248  PMPE      O11            22.9674325598      -22.3898355045      -17.6348430761  MEMB      248             0.0000000000
     30793       248  PMPE      O12            22.5126388660      -21.0542892666      -19.5796488295  MEMB      248             0.0000000000
     30794       248  PMPE      C1             22.8242505239      -23.7754382759      -18.1713148371  MEMB      248             0.0000000000
     30795       248  PMPE      HA             23.8000451124      -24.1874332174      -18.5065847866  MEMB      248             0.0000000000
     30796       248  PMPE      HB             22.1454226830      -23.8040097089      -19.0503469433  MEMB      248             0.0000000000
     30797       248  PMPE      C2             22.3859101433      -24.6887663936      -17.0098296397  MEMB      248             0.0000000000
     30798       248  PMPE      HS             22.1982035358      -25.7177785206      -17.3842908803  MEMB      248             0.0000000000
     30799       248  PMPE      O21            21.0977368089      -24.0909374786      -16.5962848947  MEMB      248             0.0000000000
     30800       248  PMPE      C21            20.3138580567      -24.7228025115      -15.7727015480  MEMB      248             0.0000000000
     30801       248  PMPE      O22            20.4054232148      -25.8933226961      -15.3784929704  MEMB      248             0.0000000000
     30802       248  PMPE      C22            19.4562713398      -23.6248114746      -15.1277407926  MEMB      248             0.0000000000
     30803       248  PMPE      H2R            18.8087963968      -23.1815611031      -15.9142691163  MEMB      248             0.0000000000
     30804       248  PMPE      H2S            20.1762604094      -22.8831745408      -14.7204188841  MEMB      248             0.0000000000
     30805       248  PMPE      C3             23.5229223234      -24.7467128854      -15.8887615904  MEMB      248             0.0000000000
     30806       248  PMPE      HX             24.3773596836      -25.0961378363      -16.5069526947  MEMB      248             0.0000000000
     30807       248  PMPE      HY             23.1802487091      -25.5071129213      -15.1548083219  MEMB      248             0.0000000000
     30808       248  PMPE      O31            24.0078085556      -23.5097044759      -15.3412577249  MEMB      248             0.0000000000
     30809       248  PMPE      C31            23.5168686836      -23.1392531850      -14.1611035493  MEMB      248             0.0000000000
     30810       248  PMPE      O32            22.6256880645      -23.6654464449      -13.5334698446  MEMB      248             0.0000000000
     30811       248  PMPE      C32            24.1978752549      -21.8146043136      -13.7206942810  MEMB      248             0.0000000000
     30812       248  PMPE      H2X            23.8735326514      -21.0585944524      -14.4674015007  MEMB      248             0.0000000000
     30813       248  PMPE      H2Y            25.3083141596      -21.8496393293      -13.7163772388  MEMB      248             0.0000000000
     30814       248  PMPE      C23            18.5637091045      -24.3081472578      -14.0813451850  MEMB      248             0.0000000000
     30815       248  PMPE      H3R            19.1862733011      -24.8398850184      -13.3303528110  MEMB      248             0.0000000000
     30816       248  PMPE      H3S            17.7454519474      -24.9456007081      -14.4793773724  MEMB      248             0.0000000000
     30817       248  PMPE      C24            17.7311837976      -23.3511021899      -13.2333658491  MEMB      248             0.0000000000
     30818       248  PMPE      H4R            16.9730064810      -23.9713396042      -12.7091581004  MEMB      248             0.0000000000
     30819       248  PMPE      H4S            17.1343636712      -22.6899096006      -13.8974072307  MEMB      248             0.0000000000
     30820       248  PMPE      C25            18.5633659377      -22.4809829234      -12.2929162367  MEMB      248             0.0000000000
     30821       248  PMPE      H5R            19.1308532099      -21.7678769854      -12.9283365448  MEMB      248             0.0000000000
     30822       248  PMPE      H5S            19.2455843300      -23.0823469233      -11.6547463099  MEMB      248             0.0000000000
     30823       248  PMPE      C26            17.6434923610      -21.6060645051      -11.3675498006  MEMB      248             0.0000000000
     30824       248  PMPE      H6R            16.9362639579      -22.2737665147      -10.8305917634  MEMB      248             0.0000000000
     30825       248  PMPE      H6S            17.0183556946      -20.9646134305      -12.0248665385  MEMB      248             0.0000000000
     30826       248  PMPE      C27            18.3720397453      -20.6893723592      -10.3515625471  MEMB      248             0.0000000000
     30827       248  PMPE      H7R            17.7220464189      -19.8555857058      -10.0100519216  MEMB      248             0.0000000000
     30828       248  PMPE      H7S            19.2667347537      -20.1849353618      -10.7751018804  MEMB      248             0.0000000000
     30829       248  PMPE      C28            18.8505084825      -21.3883211482       -9.1053802746  MEMB      248             0.0000000000
     30830       248  PMPE      H8R            19.7212632148      -20.8966523104       -8.6212636834  MEMB      248             0.0000000000
     30831       248  PMPE      H8S            19.0829548027      -22.4325716382       -9.4050973028  MEMB      248             0.0000000000
     30832       248  PMPE      C29            17.6815678607      -21.4292173104       -8.0560193757  MEMB      248             0.0000000000
     30833       248  PMPE      H9R            16.6227524357      -21.4229458180       -8.3924586319  MEMB      248             0.0000000000
     30834       248  PMPE      C217           17.8389293618      -20.5558044371       -6.8442570899  MEMB      248             0.0000000000
     30835       248  PMPE      H17R           16.9787167538      -20.2445956127       -6.2645405791  MEMB      248             0.0000000000
     30836       248  PMPE      H17S           18.7510948849      -19.9735331778       -6.8867228780  MEMB      248             0.0000000000
     30837       248  PMPE      C210           17.9870487026      -22.1158234308       -6.6622789640  MEMB      248             0.0000000000
     30838       248  PMPE      H10R           17.0828411254      -22.6326402012       -6.2754582727  MEMB      248             0.0000000000
     30839       248  PMPE      C211           19.3600469023      -22.7178827471       -6.3972034045  MEMB      248             0.0000000000
     30840       248  PMPE      H11R           20.1748587831      -21.9884132984       -6.2015585217  MEMB      248             0.0000000000
     30841       248  PMPE      H11S           19.6699480828      -23.4208071655       -7.1998110197  MEMB      248             0.0000000000
     30842       248  PMPE      C212           19.2850390155      -23.8458720205       -5.2591877495  MEMB      248             0.0000000000
     30843       248  PMPE      H12R           18.8015257427      -24.7334583787       -5.7204105935  MEMB      248             0.0000000000
     30844       248  PMPE      H12S           18.5182126345      -23.4295854756       -4.5714349496  MEMB      248             0.0000000000
     30845       248  PMPE      C213           20.5949898675      -24.0996325562       -4.5177605820  MEMB      248             0.0000000000
     30846       248  PMPE      H13R           21.0928121259      -23.1253160213       -4.3248839676  MEMB      248             0.0000000000
     30847       248  PMPE      H13S           21.3123713522      -24.6025640732       -5.2009471253  MEMB      248             0.0000000000
     30848       248  PMPE      C214           20.3396217624      -24.8720885099       -3.2624008122  MEMB      248             0.0000000000
     30849       248  PMPE      H14R           19.9285804151      -25.7984202630       -3.7176753868  MEMB      248             0.0000000000
     30850       248  PMPE      H14S           19.7366573422      -24.2823446218       -2.5392429495  MEMB      248             0.0000000000
     30851       248  PMPE      C215           21.5576429501      -25.3054252959       -2.4032557961  MEMB      248             0.0000000000
     30852       248  PMPE      H15R           22.1273433425      -25.9266887057       -3.1269931517  MEMB      248             0.0000000000
     30853       248  PMPE      H15S           21.1817235019      -25.7675851065       -1.4654862434  MEMB      248             0.0000000000
     30854       248  PMPE      C216           22.6166108289      -24.2309414580       -2.1076668201  MEMB      248             0.0000000000
     30855       248  PMPE      H16R           22.2545547064      -23.5731927010       -1.2887619124  MEMB      248             0.0000000000
     30856       248  PMPE      H16S           23.5041007374      -24.7625299159       -1.7025776728  MEMB      248             0.0000000000
     30857       248  PMPE      H16T           22.8414698763      -23.5786788135       -2.9784776091  MEMB      248             0.0000000000
     30858       248  PMPE      C33            23.6157375036      -21.3493573268      -12.3676817495  MEMB      248             0.0000000000
     30859       248  PMPE      H3X            23.8932061610      -21.9773005549      -11.4941720248  MEMB      248             0.0000000000
     30860       248  PMPE      H3Y            22.5112664597      -21.2414243218      -12.4207418637  MEMB      248             0.0000000000
     30861       248  PMPE      C34            23.9625163751      -19.9248741918      -11.9940547936  MEMB      248             0.0000000000
     30862       248  PMPE      H4X            23.2572919734      -19.2150035271      -12.4768211841  MEMB      248             0.0000000000
     30863       248  PMPE      H4Y            25.0105273454      -19.8005978976      -12.3412565686  MEMB      248             0.0000000000
     30864       248  PMPE      C35            23.9029086857      -19.7485826004      -10.3989534859  MEMB      248             0.0000000000
     30865       248  PMPE      H5X            24.3654843612      -18.7817395351      -10.1064485570  MEMB      248             0.0000000000
     30866       248  PMPE      H5Y            24.6353251525      -20.4487990694       -9.9433392359  MEMB      248             0.0000000000
     30867       248  PMPE      C36            22.5619432253      -19.9670046797       -9.5957235151  MEMB      248             0.0000000000
     30868       248  PMPE      H6X            21.8738519383      -20.7615617176       -9.9556268001  MEMB      248             0.0000000000
     30869       248  PMPE      H6Y            22.1069459678      -18.9593420545       -9.7048782730  MEMB      248             0.0000000000
     30870       248  PMPE      C37            22.7138620208      -20.2023379095       -8.0309056741  MEMB      248             0.0000000000
     30871       248  PMPE      H7X            23.2692062691      -21.1640669669       -7.9994262690  MEMB      248             0.0000000000
     30872       248  PMPE      H7Y            21.7207381146      -20.4224511536       -7.5841663194  MEMB      248             0.0000000000
     30873       248  PMPE      C38            23.4677756382      -19.1116210259       -7.1755789699  MEMB      248             0.0000000000
     30874       248  PMPE      H8X            24.1585535786      -18.4676637765       -7.7607848111  MEMB      248             0.0000000000
     30875       248  PMPE      H8Y            24.1709916784      -19.6939142060       -6.5425363845  MEMB      248             0.0000000000
     30876       248  PMPE      C39            22.6462793577      -18.1467145285       -6.2697642253  MEMB      248             0.0000000000
     30877       248  PMPE      H9X            21.9726617870      -17.5604649605       -6.9307269560  MEMB      248             0.0000000000
     30878       248  PMPE      H9Y            23.2915464426      -17.5086842711       -5.6287742432  MEMB      248             0.0000000000
     30879       248  PMPE      C310           21.5952301527      -18.9581910593       -5.4052801176  MEMB      248             0.0000000000
     30880       248  PMPE      H10X           22.0472357058      -19.9180443010       -5.0755920231  MEMB      248             0.0000000000
     30881       248  PMPE      H10Y           20.6476262829      -19.1966665297       -5.9339550441  MEMB      248             0.0000000000
     30882       248  PMPE      C311           21.2122660157      -18.2749908907       -4.0873550311  MEMB      248             0.0000000000
     30883       248  PMPE      H11X           20.6396783433      -17.3720604084       -4.3893183593  MEMB      248             0.0000000000
     30884       248  PMPE      H11Y           22.1415858089      -18.0072831545       -3.5405297645  MEMB      248             0.0000000000
     30885       248  PMPE      C312           20.3497988921      -19.1631987797       -3.0566922807  MEMB      248             0.0000000000
     30886       248  PMPE      H12X           19.3023766704      -19.2363971436       -3.4198309950  MEMB      248             0.0000000000
     30887       248  PMPE      H12Y           20.2433297285      -18.4985805230       -2.1727990506  MEMB      248             0.0000000000
     30888       248  PMPE      C313           20.9631346927      -20.5271122089       -2.7290757753  MEMB      248             0.0000000000
     30889       248  PMPE      H13X           21.9482439094      -20.3596865977       -2.2434323593  MEMB      248             0.0000000000
     30890       248  PMPE      H13Y           21.0749164129      -21.0450468198       -3.7055844587  MEMB      248             0.0000000000
     30891       248  PMPE      C314           20.0164861756      -21.3491969557       -1.7932605440  MEMB      248             0.0000000000
     30892       248  PMPE      H14X           20.3838476971      -22.3905672574       -1.9153848970  MEMB      248             0.0000000000
     30893       248  PMPE      H14Y           19.0185593387      -21.3234365324       -2.2809079031  MEMB      248             0.0000000000
     30894       248  PMPE      C315           19.8435808581      -20.7805523827       -0.3768771147  MEMB      248             0.0000000000
     30895       248  PMPE      H15X           19.4265023865      -19.7509539985       -0.3940104556  MEMB      248             0.0000000000
     30896       248  PMPE      H15Y           20.7649697713      -20.5831267502        0.2116693533  MEMB      248             0.0000000000
     30897       248  PMPE      C316           18.7469990434      -21.5752077164        0.3198154216  MEMB      248             0.0000000000
     30898       248  PMPE      H16X           19.2946956174      -22.5083765651        0.5718973364  MEMB      248             0.0000000000
     30899       248  PMPE      H16Y           17.9660771514      -21.7884658935       -0.4411074890  MEMB      248             0.0000000000
     30900       248  PMPE      H16Z           18.4043118537      -21.0675769407        1.2467432527  MEMB      248             0.0000000000
     30901       249  PMPE      N             -30.3546695307      -10.0453502858      -21.5416316334  MEMB      249             0.0000000000
     30902       249  PMPE      HN1           -31.0264559777       -9.3011175712      -21.8180744027  MEMB      249             0.0000000000
     30903       249  PMPE      HN2           -29.4802008194       -9.8815745167      -22.0802243191  MEMB      249             0.0000000000
     30904       249  PMPE      HN3           -30.8475236696      -10.9089677932      -21.8463602205  MEMB      249             0.0000000000
     30905       249  PMPE      C12           -30.3355535388      -10.0328215201      -20.0634453820  MEMB      249             0.0000000000
     30906       249  PMPE      H12A          -31.3818833561       -9.7996391811      -19.7716563759  MEMB      249             0.0000000000
     30907       249  PMPE      H12B          -29.7482152305       -9.1585607066      -19.7098600242  MEMB      249             0.0000000000
     30908       249  PMPE      C11           -29.7716919338      -11.2727583468      -19.3828799754  MEMB      249             0.0000000000
     30909       249  PMPE      H11A          -30.0695699728      -12.1735823813      -19.9608987532  MEMB      249             0.0000000000
     30910       249  PMPE      H11B          -30.1726431358      -11.2540844371      -18.3469213271  MEMB      249             0.0000000000
     30911       249  PMPE      P             -27.7302319122      -12.0993933509      -18.1620960161  MEMB      249             0.0000000000
     30912       249  PMPE      O13           -27.7573356698      -11.2445859189      -17.0028311006  MEMB      249             0.0000000000
     30913       249  PMPE      O14           -26.3905380737      -12.5958663892      -18.5889301032  MEMB      249             0.0000000000
     30914       249  PMPE      O11           -28.6187342956      -13.3075052504      -17.8753182378  MEMB      249             0.0000000000
     30915       249  PMPE      O12           -28.3360578407      -11.2543477364      -19.3828675515  MEMB      249             0.0000000000
     30916       249  PMPE      C1            -28.2051427406      -14.5920529071      -17.4476320595  MEMB      249             0.0000000000
     30917       249  PMPE      HA            -27.2869674360      -14.9374050116      -17.9691750041  MEMB      249             0.0000000000
     30918       249  PMPE      HB            -29.0691977535      -15.2641329929      -17.6374695986  MEMB      249             0.0000000000
     30919       249  PMPE      C2            -27.8713998494      -14.6088711619      -15.9302969418  MEMB      249             0.0000000000
     30920       249  PMPE      HS            -28.2016815324      -15.5940729892      -15.5370897569  MEMB      249             0.0000000000
     30921       249  PMPE      O21           -28.5585557802      -13.5506284823      -15.1286528938  MEMB      249             0.0000000000
     30922       249  PMPE      C21           -29.9165038994      -13.5701296747      -15.1020202892  MEMB      249             0.0000000000
     30923       249  PMPE      O22           -30.6706795353      -14.4384752778      -15.5334492019  MEMB      249             0.0000000000
     30924       249  PMPE      C22           -30.3880981976      -12.1896602204      -14.5369449764  MEMB      249             0.0000000000
     30925       249  PMPE      H2R           -31.2824690722      -12.3290627753      -13.8927489262  MEMB      249             0.0000000000
     30926       249  PMPE      H2S           -30.7530333033      -11.7032272555      -15.4667442286  MEMB      249             0.0000000000
     30927       249  PMPE      C3            -26.3708627888      -14.4607104670      -15.7509044643  MEMB      249             0.0000000000
     30928       249  PMPE      HX            -26.1078459597      -13.3816055815      -15.7768967859  MEMB      249             0.0000000000
     30929       249  PMPE      HY            -25.7349356407      -14.8768119795      -16.5613226154  MEMB      249             0.0000000000
     30930       249  PMPE      O31           -25.9833378171      -14.9471483081      -14.4588984619  MEMB      249             0.0000000000
     30931       249  PMPE      C31           -25.8029338357      -14.0970669252      -13.5236228484  MEMB      249             0.0000000000
     30932       249  PMPE      O32           -26.0361049061      -12.8789531371      -13.6037648222  MEMB      249             0.0000000000
     30933       249  PMPE      C32           -25.2710952178      -14.8300302550      -12.3351994415  MEMB      249             0.0000000000
     30934       249  PMPE      H2X           -24.1872853536      -15.0705002544      -12.3782321307  MEMB      249             0.0000000000
     30935       249  PMPE      H2Y           -25.9058551504      -15.7378890299      -12.2503851314  MEMB      249             0.0000000000
     30936       249  PMPE      C23           -29.3605645422      -11.2936464042      -13.9209234870  MEMB      249             0.0000000000
     30937       249  PMPE      H3R           -29.6466219174      -10.2249932819      -13.8185875590  MEMB      249             0.0000000000
     30938       249  PMPE      H3S           -28.5163104008      -11.1843394620      -14.6347918151  MEMB      249             0.0000000000
     30939       249  PMPE      C24           -28.8960422580      -11.7077127597      -12.5123281823  MEMB      249             0.0000000000
     30940       249  PMPE      H4R           -28.0711335924      -11.0182239288      -12.2322356899  MEMB      249             0.0000000000
     30941       249  PMPE      H4S           -28.5427796466      -12.7609409206      -12.4969325560  MEMB      249             0.0000000000
     30942       249  PMPE      C25           -29.9582179970      -11.4109228553      -11.4911827429  MEMB      249             0.0000000000
     30943       249  PMPE      H5R           -30.8486428639      -12.0748992300      -11.5156777052  MEMB      249             0.0000000000
     30944       249  PMPE      H5S           -30.3031820503      -10.3916198332      -11.7674835388  MEMB      249             0.0000000000
     30945       249  PMPE      C26           -29.4262553034      -11.4022063950      -10.0624321538  MEMB      249             0.0000000000
     30946       249  PMPE      H6R           -29.0335433874      -12.4147449671       -9.8282011916  MEMB      249             0.0000000000
     30947       249  PMPE      H6S           -30.2971788868      -11.2163246712       -9.3981565541  MEMB      249             0.0000000000
     30948       249  PMPE      C27           -28.2290106535      -10.4092885485       -9.6946154613  MEMB      249             0.0000000000
     30949       249  PMPE      H7R           -28.1855270804       -9.4258673347      -10.2097006326  MEMB      249             0.0000000000
     30950       249  PMPE      H7S           -27.3181403562      -10.9435755036      -10.0398312209  MEMB      249             0.0000000000
     30951       249  PMPE      C28           -28.1908780894      -10.0840579323       -8.2200031960  MEMB      249             0.0000000000
     30952       249  PMPE      H8R           -27.8561964091      -10.9922465813       -7.6745657015  MEMB      249             0.0000000000
     30953       249  PMPE      H8S           -29.1744664378       -9.7436892797       -7.8313854448  MEMB      249             0.0000000000
     30954       249  PMPE      C29           -27.2570527225       -8.9112370164       -7.8786928762  MEMB      249             0.0000000000
     30955       249  PMPE      H9R           -27.6508561391       -7.9149858962       -8.1731817176  MEMB      249             0.0000000000
     30956       249  PMPE      C217          -25.7632160617       -9.1383663768       -7.6642549640  MEMB      249             0.0000000000
     30957       249  PMPE      H17R          -25.2697951436       -8.4262543146       -8.3141177498  MEMB      249             0.0000000000
     30958       249  PMPE      H17S          -25.6439233181      -10.2109319183       -7.7551470916  MEMB      249             0.0000000000
     30959       249  PMPE      C210          -26.6648766154       -8.7283019875       -6.4716861838  MEMB      249             0.0000000000
     30960       249  PMPE      H10R          -26.8154033025       -7.6586386951       -6.2119112029  MEMB      249             0.0000000000
     30961       249  PMPE      C211          -26.6436290436       -9.6354019440       -5.2534050985  MEMB      249             0.0000000000
     30962       249  PMPE      H11R          -25.7958589344       -9.3119862037       -4.6123047662  MEMB      249             0.0000000000
     30963       249  PMPE      H11S          -26.4165091108      -10.6259995112       -5.7022419896  MEMB      249             0.0000000000
     30964       249  PMPE      C212          -27.9080444444       -9.6109168497       -4.3669063115  MEMB      249             0.0000000000
     30965       249  PMPE      H12R          -28.7872110468       -9.9234664801       -4.9699808964  MEMB      249             0.0000000000
     30966       249  PMPE      H12S          -28.0917800772       -8.5727224499       -4.0165995160  MEMB      249             0.0000000000
     30967       249  PMPE      C213          -27.9289086560      -10.5914603634       -3.1766126627  MEMB      249             0.0000000000
     30968       249  PMPE      H13R          -27.6404085261      -11.6096964873       -3.5146710181  MEMB      249             0.0000000000
     30969       249  PMPE      H13S          -28.9054370779      -10.5750656523       -2.6470431916  MEMB      249             0.0000000000
     30970       249  PMPE      C214          -26.8239875510      -10.3548366729       -2.1401573404  MEMB      249             0.0000000000
     30971       249  PMPE      H14R          -26.8486765920       -9.2840226686       -1.8450835365  MEMB      249             0.0000000000
     30972       249  PMPE      H14S          -25.8682289708      -10.5542788397       -2.6703166004  MEMB      249             0.0000000000
     30973       249  PMPE      C215          -26.9480905498      -11.0930934818       -0.8479708945  MEMB      249             0.0000000000
     30974       249  PMPE      H15R          -27.9440096530      -10.7880448717       -0.4614323635  MEMB      249             0.0000000000
     30975       249  PMPE      H15S          -26.1285792043      -10.6862295793       -0.2177455274  MEMB      249             0.0000000000
     30976       249  PMPE      C216          -26.7657649471      -12.6525896993       -0.8113915862  MEMB      249             0.0000000000
     30977       249  PMPE      H16R          -25.7907511412      -13.0098914660       -1.2063664278  MEMB      249             0.0000000000
     30978       249  PMPE      H16S          -26.8642893830      -12.9857376304        0.2438926890  MEMB      249             0.0000000000
     30979       249  PMPE      H16T          -27.5065062738      -13.1605323043       -1.4653168640  MEMB      249             0.0000000000
     30980       249  PMPE      C33           -25.4966684410      -13.9073328925      -11.1180249071  MEMB      249             0.0000000000
     30981       249  PMPE      H3X           -26.5670853674      -13.6098652629      -11.1115678654  MEMB      249             0.0000000000
     30982       249  PMPE      H3Y           -24.7975885913      -13.0440172320      -11.1008703306  MEMB      249             0.0000000000
     30983       249  PMPE      C34           -25.2265531117      -14.6184418246       -9.7395193294  MEMB      249             0.0000000000
     30984       249  PMPE      H4X           -24.1185566637      -14.5867043463       -9.6643033777  MEMB      249             0.0000000000
     30985       249  PMPE      H4Y           -25.5620020114      -15.6744570527       -9.8209276353  MEMB      249             0.0000000000
     30986       249  PMPE      C35           -25.8749814883      -13.9106621321       -8.5159935539  MEMB      249             0.0000000000
     30987       249  PMPE      H5X           -26.9791170632      -13.9692165509       -8.6245147261  MEMB      249             0.0000000000
     30988       249  PMPE      H5Y           -25.6550295312      -12.8223872417       -8.5559937333  MEMB      249             0.0000000000
     30989       249  PMPE      C36           -25.3312908609      -14.5506294714       -7.2263024141  MEMB      249             0.0000000000
     30990       249  PMPE      H6X           -24.2278889729      -14.4315787939       -7.2778034258  MEMB      249             0.0000000000
     30991       249  PMPE      H6Y           -25.5552482977      -15.6320689759       -7.1052498730  MEMB      249             0.0000000000
     30992       249  PMPE      C37           -25.8488897362      -13.8412405696       -5.9684715390  MEMB      249             0.0000000000
     30993       249  PMPE      H7X           -25.4872177886      -12.7930720845       -6.0381637205  MEMB      249             0.0000000000
     30994       249  PMPE      H7Y           -25.4249773474      -14.3489948914       -5.0758324462  MEMB      249             0.0000000000
     30995       249  PMPE      C38           -27.3564878222      -13.6595815018       -5.7870793914  MEMB      249             0.0000000000
     30996       249  PMPE      H8X           -27.7717614619      -13.3731328279       -6.7769366009  MEMB      249             0.0000000000
     30997       249  PMPE      H8Y           -27.4490980807      -12.9215058311       -4.9618595803  MEMB      249             0.0000000000
     30998       249  PMPE      C39           -28.0958828227      -14.9334196811       -5.2645353675  MEMB      249             0.0000000000
     30999       249  PMPE      H9X           -27.3413444205      -15.6698944021       -4.9143959041  MEMB      249             0.0000000000
     31000       249  PMPE      H9Y           -28.7594419910      -15.3571904753       -6.0483903781  MEMB      249             0.0000000000
     31001       249  PMPE      C310          -28.9950434338      -14.4552978414       -4.1048191635  MEMB      249             0.0000000000
     31002       249  PMPE      H10X          -28.2561023130      -13.9832943325       -3.4225434899  MEMB      249             0.0000000000
     31003       249  PMPE      H10Y          -29.5235770819      -15.3313761108       -3.6718521384  MEMB      249             0.0000000000
     31004       249  PMPE      C311          -30.0971555809      -13.4948632644       -4.5639239465  MEMB      249             0.0000000000
     31005       249  PMPE      H11X          -30.7509093375      -14.1765791951       -5.1488947683  MEMB      249             0.0000000000
     31006       249  PMPE      H11Y          -29.8332910312      -12.6059922210       -5.1759742618  MEMB      249             0.0000000000
     31007       249  PMPE      C312          -31.0507296464      -13.0632790835       -3.5441770091  MEMB      249             0.0000000000
     31008       249  PMPE      H12X          -30.4450233596      -12.4933074595       -2.8075810529  MEMB      249             0.0000000000
     31009       249  PMPE      H12Y          -31.4649353131      -13.9896218045       -3.0918013829  MEMB      249             0.0000000000
     31010       249  PMPE      C313          -32.1825877243      -12.2395761894       -4.0828564752  MEMB      249             0.0000000000
     31011       249  PMPE      H13X          -32.5115224140      -12.8467586118       -4.9531741172  MEMB      249             0.0000000000
     31012       249  PMPE      H13Y          -31.8788655566      -11.2554533494       -4.4994813871  MEMB      249             0.0000000000
     31013       249  PMPE      C314          -33.2989482483      -11.9349302069       -3.1057839421  MEMB      249             0.0000000000
     31014       249  PMPE      H14X          -33.7794967944      -12.8625070647       -2.7276375451  MEMB      249             0.0000000000
     31015       249  PMPE      H14Y          -34.1631470294      -11.4921467847       -3.6456215251  MEMB      249             0.0000000000
     31016       249  PMPE      C315          -32.7716879784      -11.1159227776       -1.8952517316  MEMB      249             0.0000000000
     31017       249  PMPE      H15X          -32.1730069919      -10.2279044743       -2.1907595500  MEMB      249             0.0000000000
     31018       249  PMPE      H15Y          -32.0407470825      -11.6975804261       -1.2938187541  MEMB      249             0.0000000000
     31019       249  PMPE      C316          -33.9222569390      -10.7262662539       -0.9691491591  MEMB      249             0.0000000000
     31020       249  PMPE      H16X          -34.5289423257      -11.5514223150       -0.5386009685  MEMB      249             0.0000000000
     31021       249  PMPE      H16Y          -34.7132029172      -10.1589679620       -1.5047770535  MEMB      249             0.0000000000
     31022       249  PMPE      H16Z          -33.3342298358      -10.1429654299       -0.2286711242  MEMB      249             0.0000000000
     31023       250  POPE      N             -13.3851998970       31.9218764813      -19.2568028665  MEMB      250             0.0000000000
     31024       250  POPE      HN1           -13.6669175533       32.1169056436      -18.2748665990  MEMB      250             0.0000000000
     31025       250  POPE      HN2           -12.5339422316       32.5062158602      -19.3813326370  MEMB      250             0.0000000000
     31026       250  POPE      HN3           -14.0693120151       32.2418583018      -19.9717868732  MEMB      250             0.0000000000
     31027       250  POPE      C12           -13.1159983678       30.4594828065      -19.4043983145  MEMB      250             0.0000000000
     31028       250  POPE      H12A          -13.1808530191       30.1052505107      -20.4554141373  MEMB      250             0.0000000000
     31029       250  POPE      H12B          -13.8631561236       29.9390458338      -18.7678282013  MEMB      250             0.0000000000
     31030       250  POPE      C11           -11.6949744183       30.0157320596      -19.0118575036  MEMB      250             0.0000000000
     31031       250  POPE      H11A          -11.7272500771       30.1293488054      -17.9071536814  MEMB      250             0.0000000000
     31032       250  POPE      H11B          -10.9065523010       30.5972710745      -19.5358077342  MEMB      250             0.0000000000
     31033       250  POPE      P             -10.1429467509       27.8207398795      -18.8670127602  MEMB      250             0.0000000000
     31034       250  POPE      O13            -9.2031050268       27.6386359448      -19.9953216175  MEMB      250             0.0000000000
     31035       250  POPE      O14           -10.7031499495       26.5522368890      -18.2796066141  MEMB      250             0.0000000000
     31036       250  POPE      O11            -9.4085283364       28.7890362256      -17.8667448898  MEMB      250             0.0000000000
     31037       250  POPE      O12           -11.4929012477       28.6017484873      -19.3182554358  MEMB      250             0.0000000000
     31038       250  POPE      C1             -8.9946259844       28.2632103908      -16.6373015808  MEMB      250             0.0000000000
     31039       250  POPE      HA             -8.0821735698       28.8652582880      -16.4390849209  MEMB      250             0.0000000000
     31040       250  POPE      HB             -8.5668865393       27.2476941063      -16.7790286878  MEMB      250             0.0000000000
     31041       250  POPE      C2            -10.0817398597       28.2736942524      -15.4991668431  MEMB      250             0.0000000000
     31042       250  POPE      HS            -10.9083631239       27.6354959159      -15.8782681136  MEMB      250             0.0000000000
     31043       250  POPE      O21           -10.5070735552       29.6293657880      -15.3289048538  MEMB      250             0.0000000000
     31044       250  POPE      C21           -11.6157766515       29.7756931314      -14.6375557390  MEMB      250             0.0000000000
     31045       250  POPE      O22           -12.3031703130       28.8809894024      -14.2758936692  MEMB      250             0.0000000000
     31046       250  POPE      C22           -11.8188194101       31.2625754198      -14.1851782066  MEMB      250             0.0000000000
     31047       250  POPE      H2R           -12.3992538692       31.8435339060      -14.9334457560  MEMB      250             0.0000000000
     31048       250  POPE      H2S           -10.7996297828       31.6925952600      -14.0819478844  MEMB      250             0.0000000000
     31049       250  POPE      C3             -9.6356450841       27.6402346627      -14.1705318626  MEMB      250             0.0000000000
     31050       250  POPE      HX             -9.5147595130       26.5497519230      -14.3453320404  MEMB      250             0.0000000000
     31051       250  POPE      HY            -10.3925630589       27.6749065991      -13.3580085918  MEMB      250             0.0000000000
     31052       250  POPE      O31            -8.3293274228       28.2878788491      -13.9687788226  MEMB      250             0.0000000000
     31053       250  POPE      C31            -8.1977648016       29.3292727714      -13.1929216657  MEMB      250             0.0000000000
     31054       250  POPE      O32            -9.1297650077       29.9291906022      -12.6340321722  MEMB      250             0.0000000000
     31055       250  POPE      C32            -6.7270464903       29.6798244763      -13.1067545346  MEMB      250             0.0000000000
     31056       250  POPE      H2X            -6.2008352690       29.7827675768      -14.0798038684  MEMB      250             0.0000000000
     31057       250  POPE      H2Y            -6.2983557099       28.7214540788      -12.7433382461  MEMB      250             0.0000000000
     31058       250  POPE      C23           -12.7194764717       31.5386086487      -12.8368304130  MEMB      250             0.0000000000
     31059       250  POPE      H3R           -13.5118306102       30.7598423305      -12.8324834246  MEMB      250             0.0000000000
     31060       250  POPE      H3S           -13.2687175191       32.4969020101      -12.9565351684  MEMB      250             0.0000000000
     31061       250  POPE      C24           -11.7892457488       31.4379489785      -11.6481395042  MEMB      250             0.0000000000
     31062       250  POPE      H4R           -11.1785876998       30.5104272544      -11.6816236467  MEMB      250             0.0000000000
     31063       250  POPE      H4S           -12.4040532940       31.3162494217      -10.7307946091  MEMB      250             0.0000000000
     31064       250  POPE      C25           -10.8242130858       32.6217548673      -11.5208715217  MEMB      250             0.0000000000
     31065       250  POPE      H5R           -10.3823060193       32.8435412870      -12.5157833214  MEMB      250             0.0000000000
     31066       250  POPE      H5S           -10.0285216043       32.2304043009      -10.8515126493  MEMB      250             0.0000000000
     31067       250  POPE      C26           -11.4731513831       33.9200080838      -10.9653306662  MEMB      250             0.0000000000
     31068       250  POPE      H6R           -11.9936438294       33.6735381558      -10.0152459890  MEMB      250             0.0000000000
     31069       250  POPE      H6S           -12.1792273169       34.3593524603      -11.7020490661  MEMB      250             0.0000000000
     31070       250  POPE      C27           -10.4554904563       35.1093265986      -10.6832913015  MEMB      250             0.0000000000
     31071       250  POPE      H7R           -11.0325088169       36.0583873987      -10.7088723632  MEMB      250             0.0000000000
     31072       250  POPE      H7S            -9.7301981079       35.2370830243      -11.5151268741  MEMB      250             0.0000000000
     31073       250  POPE      C28            -9.5599031836       35.0527935207       -9.4783017575  MEMB      250             0.0000000000
     31074       250  POPE      H8R            -8.7007887808       35.7568826885       -9.5006913266  MEMB      250             0.0000000000
     31075       250  POPE      H8S            -9.1341922640       34.0266670002       -9.4658185493  MEMB      250             0.0000000000
     31076       250  POPE      C29           -10.3445255554       35.1859151133       -8.1628832565  MEMB      250             0.0000000000
     31077       250  POPE      H91           -10.6889104371       36.2129221860       -7.9714264640  MEMB      250             0.0000000000
     31078       250  POPE      C210          -10.5490730815       34.1477538943       -7.3039539446  MEMB      250             0.0000000000
     31079       250  POPE      H101          -10.8832024979       34.3092215682       -6.2684421345  MEMB      250             0.0000000000
     31080       250  POPE      C211          -10.0515424619       32.7024238273       -7.4493147983  MEMB      250             0.0000000000
     31081       250  POPE      H11R           -9.1331169442       32.6756653746       -6.8247350822  MEMB      250             0.0000000000
     31082       250  POPE      H11S           -9.6845488982       32.4701068909       -8.4718930601  MEMB      250             0.0000000000
     31083       250  POPE      C212          -11.0726191473       31.6305334782       -6.9318707786  MEMB      250             0.0000000000
     31084       250  POPE      H12R          -12.0228022869       31.7830946895       -7.4870266192  MEMB      250             0.0000000000
     31085       250  POPE      H12S          -11.2984649798       31.7337608489       -5.8489770495  MEMB      250             0.0000000000
     31086       250  POPE      C213          -10.6012668791       30.1913855244       -7.2841778716  MEMB      250             0.0000000000
     31087       250  POPE      H13R           -9.9516565884       30.3527088408       -8.1709153496  MEMB      250             0.0000000000
     31088       250  POPE      H13S          -11.4672384004       29.5582241088       -7.5731779905  MEMB      250             0.0000000000
     31089       250  POPE      C214           -9.9320250210       29.5280296676       -6.1380314609  MEMB      250             0.0000000000
     31090       250  POPE      H14R           -9.4244685585       30.2635484097       -5.4779403786  MEMB      250             0.0000000000
     31091       250  POPE      H14S           -9.1327642011       28.8790321092       -6.5555305546  MEMB      250             0.0000000000
     31092       250  POPE      C215          -10.9543560947       28.6671955943       -5.4001125560  MEMB      250             0.0000000000
     31093       250  POPE      H15R          -11.5548424361       28.1430744147       -6.1740854149  MEMB      250             0.0000000000
     31094       250  POPE      H15S          -11.6753544767       29.2309916106       -4.7703372039  MEMB      250             0.0000000000
     31095       250  POPE      C216          -10.2170697186       27.6193177949       -4.4647882735  MEMB      250             0.0000000000
     31096       250  POPE      H16R           -9.6789881194       26.8639881574       -5.0765618244  MEMB      250             0.0000000000
     31097       250  POPE      H16S          -10.9822339124       27.0345590052       -3.9108005752  MEMB      250             0.0000000000
     31098       250  POPE      C217           -9.2028319379       28.2470019818       -3.4772168357  MEMB      250             0.0000000000
     31099       250  POPE      H17R           -8.3184147922       28.7263254362       -3.9487850891  MEMB      250             0.0000000000
     31100       250  POPE      H17S           -8.7789994824       27.2992803005       -3.0816028122  MEMB      250             0.0000000000
     31101       250  POPE      C218          -10.0203408791       29.1025357819       -2.4488394332  MEMB      250             0.0000000000
     31102       250  POPE      H18R          -10.5445454804       29.9415400786       -2.9544103904  MEMB      250             0.0000000000
     31103       250  POPE      H18S           -9.3020989691       29.3951140088       -1.6533212569  MEMB      250             0.0000000000
     31104       250  POPE      H18T          -10.8154404514       28.5152528781       -1.9416541345  MEMB      250             0.0000000000
     31105       250  POPE      C33            -6.3418574820       30.8738852050      -12.1682399718  MEMB      250             0.0000000000
     31106       250  POPE      H3X            -6.6960406853       31.8648990500      -12.5242830492  MEMB      250             0.0000000000
     31107       250  POPE      H3Y            -5.2326238857       30.9344968042      -12.1839920940  MEMB      250             0.0000000000
     31108       250  POPE      C34            -6.7583881592       30.7016290214      -10.6978185974  MEMB      250             0.0000000000
     31109       250  POPE      H4X            -7.8616755875       30.6438156744      -10.5806199637  MEMB      250             0.0000000000
     31110       250  POPE      H4Y            -6.3824818059       31.6112109405      -10.1823814231  MEMB      250             0.0000000000
     31111       250  POPE      C35            -6.1955255350       29.4103300291       -9.9866155874  MEMB      250             0.0000000000
     31112       250  POPE      H5X            -5.0954396785       29.4898095637      -10.1200914762  MEMB      250             0.0000000000
     31113       250  POPE      H5Y            -6.4941002650       28.4876996968      -10.5287671522  MEMB      250             0.0000000000
     31114       250  POPE      C36            -6.7996486600       29.1965411271       -8.5334630348  MEMB      250             0.0000000000
     31115       250  POPE      H6X            -6.4977020993       28.1352105646       -8.4041312199  MEMB      250             0.0000000000
     31116       250  POPE      H6Y            -7.9007915347       29.3321856268       -8.5918247132  MEMB      250             0.0000000000
     31117       250  POPE      C37            -6.1245546639       29.9727998059       -7.4213135535  MEMB      250             0.0000000000
     31118       250  POPE      H7X            -5.0330127405       29.8352466518       -7.5760250287  MEMB      250             0.0000000000
     31119       250  POPE      H7Y            -6.4027949445       29.3162962535       -6.5693123489  MEMB      250             0.0000000000
     31120       250  POPE      C38            -6.4013585314       31.4545641605       -7.1878430151  MEMB      250             0.0000000000
     31121       250  POPE      H8X            -7.3880218831       31.7471913781       -7.6063952980  MEMB      250             0.0000000000
     31122       250  POPE      H8Y            -5.5676533343       31.8680145121       -7.7947328723  MEMB      250             0.0000000000
     31123       250  POPE      C39            -6.2240000283       31.9299609917       -5.7111828150  MEMB      250             0.0000000000
     31124       250  POPE      H9X            -5.2005661318       31.8703834567       -5.2829831110  MEMB      250             0.0000000000
     31125       250  POPE      H9Y            -6.9180435466       31.2701546359       -5.1479060376  MEMB      250             0.0000000000
     31126       250  POPE      C310           -6.6004406602       33.4587752229       -5.4357543698  MEMB      250             0.0000000000
     31127       250  POPE      H10X           -7.6826631482       33.6297726000       -5.2517019662  MEMB      250             0.0000000000
     31128       250  POPE      H10Y           -6.2584687274       34.0880038555       -6.2851352237  MEMB      250             0.0000000000
     31129       250  POPE      C311           -5.9551513787       33.9563697512       -4.1012443987  MEMB      250             0.0000000000
     31130       250  POPE      H11X           -6.3213768815       35.0017960280       -4.0159008235  MEMB      250             0.0000000000
     31131       250  POPE      H11Y           -4.8703124314       34.0875081517       -4.3018650064  MEMB      250             0.0000000000
     31132       250  POPE      C312           -6.1973934197       33.0821096289       -2.8358346105  MEMB      250             0.0000000000
     31133       250  POPE      H12X           -5.4647186126       32.2506636883       -2.9146155029  MEMB      250             0.0000000000
     31134       250  POPE      H12Y           -7.1522438250       32.5144653304       -2.8548551518  MEMB      250             0.0000000000
     31135       250  POPE      C313           -6.0453875769       33.8271194452       -1.4204413832  MEMB      250             0.0000000000
     31136       250  POPE      H13X           -6.3803422338       34.8861477759       -1.3962575650  MEMB      250             0.0000000000
     31137       250  POPE      H13Y           -4.9429766816       33.7950801081       -1.2863357081  MEMB      250             0.0000000000
     31138       250  POPE      C314           -6.7121692002       33.0612935983       -0.2377394664  MEMB      250             0.0000000000
     31139       250  POPE      H14X           -6.2549224983       33.3863394559        0.7212134849  MEMB      250             0.0000000000
     31140       250  POPE      H14Y           -6.5604478019       31.9691665310       -0.3739758061  MEMB      250             0.0000000000
     31141       250  POPE      C315           -8.2052491521       33.2964943649       -0.0927086622  MEMB      250             0.0000000000
     31142       250  POPE      H15X           -8.1669476229       34.3215932268        0.3339368895  MEMB      250             0.0000000000
     31143       250  POPE      H15Y           -8.4315863548       32.6060277307        0.7477368128  MEMB      250             0.0000000000
     31144       250  POPE      C316           -9.1155337015       33.0466591759       -1.2449643757  MEMB      250             0.0000000000
     31145       250  POPE      H16X          -10.1883368741       33.0759602770       -0.9576396794  MEMB      250             0.0000000000
     31146       250  POPE      H16Y           -8.9133018752       32.0464899959       -1.6843793993  MEMB      250             0.0000000000
     31147       250  POPE      H16Z           -8.9770856737       33.8745728260       -1.9727776559  MEMB      250             0.0000000000
     31148       251  PMPG      C13            10.9011767879      -29.4349026398      -21.6646668816  MEMB      251             0.0000000000
     31149       251  PMPG      H13A           10.7917889555      -29.0442561178      -22.6989545795  MEMB      251             0.0000000000
     31150       251  PMPG      H13B           11.9508979223      -29.3309880315      -21.3159432087  MEMB      251             0.0000000000
     31151       251  PMPG      OC3            10.5947941150      -30.8351663344      -21.8621286651  MEMB      251             0.0000000000
     31152       251  PMPG      HO3            11.3643771560      -31.2842244738      -22.2194642619  MEMB      251             0.0000000000
     31153       251  PMPG      C12             9.8911024795      -28.7764020145      -20.5921180726  MEMB      251             0.0000000000
     31154       251  PMPG      H12A            8.8537379720      -28.9768847256      -20.9477310663  MEMB      251             0.0000000000
     31155       251  PMPG      OC2            10.0756790609      -27.3607933986      -20.5471222748  MEMB      251             0.0000000000
     31156       251  PMPG      HO2             9.5219398603      -27.0899712882      -19.7824359847  MEMB      251             0.0000000000
     31157       251  PMPG      C11            10.0149154901      -29.3897263077      -19.0943241765  MEMB      251             0.0000000000
     31158       251  PMPG      H11A            9.7381637128      -30.4647860025      -19.1387766055  MEMB      251             0.0000000000
     31159       251  PMPG      H11B            9.2425554129      -28.8008614296      -18.5548622474  MEMB      251             0.0000000000
     31160       251  PMPG      P              11.8975135194      -29.7625518766      -17.2274773899  MEMB      251             0.0000000000
     31161       251  PMPG      O13            13.1615807377      -29.0548055118      -17.0095152288  MEMB      251             0.0000000000
     31162       251  PMPG      O14            11.9445388034      -31.2411608511      -17.3591130287  MEMB      251             0.0000000000
     31163       251  PMPG      O11            10.8632421201      -29.3266252520      -16.1449275329  MEMB      251             0.0000000000
     31164       251  PMPG      O12            11.3072368886      -29.1097038124      -18.4986067485  MEMB      251             0.0000000000
     31165       251  PMPG      C1             10.7712351578      -27.9090178401      -15.7894004466  MEMB      251             0.0000000000
     31166       251  PMPG      HA              9.7289698511      -27.6167423658      -15.5392423250  MEMB      251             0.0000000000
     31167       251  PMPG      HB             10.9643572031      -27.2574366567      -16.6683014543  MEMB      251             0.0000000000
     31168       251  PMPG      C2             11.5564585548      -27.5310769102      -14.4790359023  MEMB      251             0.0000000000
     31169       251  PMPG      HS             12.6345815552      -27.4265369570      -14.7261053421  MEMB      251             0.0000000000
     31170       251  PMPG      O21            11.4398156528      -28.5893918625      -13.5167695800  MEMB      251             0.0000000000
     31171       251  PMPG      C21            12.2026905489      -28.5650820899      -12.3583638253  MEMB      251             0.0000000000
     31172       251  PMPG      O22            13.0420710104      -27.7456537534      -12.0885480873  MEMB      251             0.0000000000
     31173       251  PMPG      C22            11.8315992713      -29.7746563231      -11.4860243673  MEMB      251             0.0000000000
     31174       251  PMPG      H2R            11.5764471076      -30.6955679992      -12.0527166170  MEMB      251             0.0000000000
     31175       251  PMPG      H2S            10.8866114706      -29.4780863288      -10.9826699371  MEMB      251             0.0000000000
     31176       251  PMPG      C3             11.1205228188      -26.1133790006      -13.7562269669  MEMB      251             0.0000000000
     31177       251  PMPG      HX             10.7756574375      -25.5047572707      -14.6193426530  MEMB      251             0.0000000000
     31178       251  PMPG      HY             11.9990921729      -25.6230407315      -13.2850522015  MEMB      251             0.0000000000
     31179       251  PMPG      O31            10.1395645916      -26.3649330739      -12.6854930513  MEMB      251             0.0000000000
     31180       251  PMPG      C31             9.0173242025      -25.6495181043      -12.7609661144  MEMB      251             0.0000000000
     31181       251  PMPG      O32             8.7536615188      -25.0260768659      -13.7689861542  MEMB      251             0.0000000000
     31182       251  PMPG      C32             8.2813009242      -25.6550789221      -11.4656108330  MEMB      251             0.0000000000
     31183       251  PMPG      H2X             7.6622595495      -24.7730914865      -11.1950437101  MEMB      251             0.0000000000
     31184       251  PMPG      H2Y             8.9711663116      -25.7991830927      -10.6067504548  MEMB      251             0.0000000000
     31185       251  PMPG      C23            12.9008048932      -30.2650710912      -10.5236879862  MEMB      251             0.0000000000
     31186       251  PMPG      H3R            13.2118127249      -29.2970497643      -10.0758826120  MEMB      251             0.0000000000
     31187       251  PMPG      H3S            13.7241260985      -30.7189673043      -11.1156691304  MEMB      251             0.0000000000
     31188       251  PMPG      C24            12.6265890008      -31.1695343108       -9.3108875531  MEMB      251             0.0000000000
     31189       251  PMPG      H4R            12.5517880769      -32.2343418929       -9.6189634221  MEMB      251             0.0000000000
     31190       251  PMPG      H4S            11.6146590617      -30.9999002946       -8.8848090445  MEMB      251             0.0000000000
     31191       251  PMPG      C25            13.7834672183      -31.1713847796       -8.2689498637  MEMB      251             0.0000000000
     31192       251  PMPG      H5R            14.6682586245      -31.6609348172       -8.7291725817  MEMB      251             0.0000000000
     31193       251  PMPG      H5S            13.5413564168      -31.8207590513       -7.4006085940  MEMB      251             0.0000000000
     31194       251  PMPG      C26            14.4723644898      -29.8579685039       -7.7619053925  MEMB      251             0.0000000000
     31195       251  PMPG      H6R            15.0332528452      -29.4041743157       -8.6067697777  MEMB      251             0.0000000000
     31196       251  PMPG      H6S            15.2908906309      -30.1862313330       -7.0861983891  MEMB      251             0.0000000000
     31197       251  PMPG      C27            13.6244331866      -28.8924064399       -6.9352632068  MEMB      251             0.0000000000
     31198       251  PMPG      H7R            14.4346743771      -28.1976961291       -6.6267057948  MEMB      251             0.0000000000
     31199       251  PMPG      H7S            13.2996880536      -29.2407037102       -5.9314954194  MEMB      251             0.0000000000
     31200       251  PMPG      C28            12.6469445098      -27.9375322732       -7.6398514875  MEMB      251             0.0000000000
     31201       251  PMPG      H8R            11.6636408119      -28.2797920310       -8.0275276280  MEMB      251             0.0000000000
     31202       251  PMPG      H8S            13.2208053218      -27.6495305878       -8.5465262934  MEMB      251             0.0000000000
     31203       251  PMPG      C29            12.4258069537      -26.6699968743       -6.8448481816  MEMB      251             0.0000000000
     31204       251  PMPG      H9R            13.2711219123      -25.9898540656       -6.6057471068  MEMB      251             0.0000000000
     31205       251  PMPG      C217           11.1118286446      -26.0571540636       -7.2393581834  MEMB      251             0.0000000000
     31206       251  PMPG      H17R           11.0991401309      -24.9783949436       -7.3342612476  MEMB      251             0.0000000000
     31207       251  PMPG      H17S           10.4498741049      -26.6549658299       -7.8536272628  MEMB      251             0.0000000000
     31208       251  PMPG      C210           11.2194870137      -26.5356390025       -5.8397967944  MEMB      251             0.0000000000
     31209       251  PMPG      H10R           11.3917987650      -25.7032650216       -5.1244065358  MEMB      251             0.0000000000
     31210       251  PMPG      C211           10.2689643332      -27.6390869921       -5.5028755527  MEMB      251             0.0000000000
     31211       251  PMPG      H11R            9.8950348481      -28.3534684982       -6.2671768415  MEMB      251             0.0000000000
     31212       251  PMPG      H11S           10.8091155531      -28.2222935892       -4.7267130096  MEMB      251             0.0000000000
     31213       251  PMPG      C212            8.9714443474      -27.1809724808       -4.9639984107  MEMB      251             0.0000000000
     31214       251  PMPG      H12R            8.3043550297      -26.8425575196       -5.7854532568  MEMB      251             0.0000000000
     31215       251  PMPG      H12S            9.1940873614      -26.3235843947       -4.2934482715  MEMB      251             0.0000000000
     31216       251  PMPG      C213            8.3159719571      -28.3379806807       -4.1909075455  MEMB      251             0.0000000000
     31217       251  PMPG      H13R            8.5434466403      -28.2611416064       -3.1061621978  MEMB      251             0.0000000000
     31218       251  PMPG      H13S            8.7154551143      -29.2853068706       -4.6119861884  MEMB      251             0.0000000000
     31219       251  PMPG      C214            6.7971317502      -28.4970487354       -4.4383594492  MEMB      251             0.0000000000
     31220       251  PMPG      H14R            6.6358623997      -28.5263669177       -5.5372016010  MEMB      251             0.0000000000
     31221       251  PMPG      H14S            6.2040952465      -27.6368639514       -4.0605888820  MEMB      251             0.0000000000
     31222       251  PMPG      C215            5.9271031146      -29.7530494018       -3.8959288943  MEMB      251             0.0000000000
     31223       251  PMPG      H15R            6.4058473273      -30.7181933511       -4.1672628630  MEMB      251             0.0000000000
     31224       251  PMPG      H15S            4.9380420934      -29.6129209815       -4.3821838029  MEMB      251             0.0000000000
     31225       251  PMPG      C216            5.7281516529      -29.9394434708       -2.3933268349  MEMB      251             0.0000000000
     31226       251  PMPG      H16R            4.8450586752      -29.3467653953       -2.0720782430  MEMB      251             0.0000000000
     31227       251  PMPG      H16S            6.6533152425      -29.6708826069       -1.8399120227  MEMB      251             0.0000000000
     31228       251  PMPG      H16T            5.4837377923      -30.9717228697       -2.0632024404  MEMB      251             0.0000000000
     31229       251  PMPG      C33             7.4538602793      -26.9805452085      -11.5123259976  MEMB      251             0.0000000000
     31230       251  PMPG      H3X             7.2947877572      -27.4512651516      -12.5060261756  MEMB      251             0.0000000000
     31231       251  PMPG      H3Y             6.4526820788      -26.8039654860      -11.0642371935  MEMB      251             0.0000000000
     31232       251  PMPG      C34             8.1268126411      -28.1365552990      -10.6926325165  MEMB      251             0.0000000000
     31233       251  PMPG      H4X             8.1688960183      -27.7644996580       -9.6466288777  MEMB      251             0.0000000000
     31234       251  PMPG      H4Y             9.2047278426      -28.2205562341      -10.9482952719  MEMB      251             0.0000000000
     31235       251  PMPG      C35             7.1597783666      -29.3252733050      -10.5458439062  MEMB      251             0.0000000000
     31236       251  PMPG      H5X             6.8002807088      -29.5694948365      -11.5683107896  MEMB      251             0.0000000000
     31237       251  PMPG      H5Y             6.2759449019      -28.9195903872      -10.0086472043  MEMB      251             0.0000000000
     31238       251  PMPG      C36             7.7514420528      -30.5490453082       -9.8143335632  MEMB      251             0.0000000000
     31239       251  PMPG      H6X             8.5225419470      -30.9055277061      -10.5303265566  MEMB      251             0.0000000000
     31240       251  PMPG      H6Y             6.8734128252      -31.1836935337       -9.5681482491  MEMB      251             0.0000000000
     31241       251  PMPG      C37             8.4005001454      -30.2829575150       -8.4717466485  MEMB      251             0.0000000000
     31242       251  PMPG      H7X             7.7192761522      -29.7152476626       -7.8024473839  MEMB      251             0.0000000000
     31243       251  PMPG      H7Y             9.2811281041      -29.6191985805       -8.6067992206  MEMB      251             0.0000000000
     31244       251  PMPG      C38             8.8571315810      -31.6253353235       -7.7463747616  MEMB      251             0.0000000000
     31245       251  PMPG      H8X             9.7597137477      -32.0356330846       -8.2476949312  MEMB      251             0.0000000000
     31246       251  PMPG      H8Y             8.0696940285      -32.3458727599       -8.0547391125  MEMB      251             0.0000000000
     31247       251  PMPG      C39             9.1831990166      -31.4694939376       -6.2391825264  MEMB      251             0.0000000000
     31248       251  PMPG      H9X             8.2601863107      -31.2179536170       -5.6742971707  MEMB      251             0.0000000000
     31249       251  PMPG      H9Y             9.9893307657      -30.7276572407       -6.0543830224  MEMB      251             0.0000000000
     31250       251  PMPG      C310            9.6591668771      -32.7818864774       -5.5314685393  MEMB      251             0.0000000000
     31251       251  PMPG      H10X           10.5648587031      -33.1290479407       -6.0732455701  MEMB      251             0.0000000000
     31252       251  PMPG      H10Y            8.9289924024      -33.6183759827       -5.5695685177  MEMB      251             0.0000000000
     31253       251  PMPG      C311            9.9763700809      -32.5867031302       -4.0393560808  MEMB      251             0.0000000000
     31254       251  PMPG      H11X           10.0376201816      -33.6125383254       -3.6171811534  MEMB      251             0.0000000000
     31255       251  PMPG      H11Y            9.0383732632      -32.1368539640       -3.6493313751  MEMB      251             0.0000000000
     31256       251  PMPG      C312           11.3353407118      -31.8425466771       -3.7421559047  MEMB      251             0.0000000000
     31257       251  PMPG      H12X           11.3281859944      -30.7605760002       -3.9943643254  MEMB      251             0.0000000000
     31258       251  PMPG      H12Y           12.0245163267      -32.4197092965       -4.3950282685  MEMB      251             0.0000000000
     31259       251  PMPG      C313           11.6711367399      -31.9068064686       -2.2525955116  MEMB      251             0.0000000000
     31260       251  PMPG      H13X           11.8706079896      -32.9741976435       -2.0176313355  MEMB      251             0.0000000000
     31261       251  PMPG      H13Y           10.8242079623      -31.6121910060       -1.5966725385  MEMB      251             0.0000000000
     31262       251  PMPG      C314           12.9626491603      -31.0494337634       -1.8970135838  MEMB      251             0.0000000000
     31263       251  PMPG      H14X           13.6217909779      -30.9858632824       -2.7890965816  MEMB      251             0.0000000000
     31264       251  PMPG      H14Y           13.5583917129      -31.6377049624       -1.1667071241  MEMB      251             0.0000000000
     31265       251  PMPG      C315           12.6619891861      -29.6959859535       -1.2406023972  MEMB      251             0.0000000000
     31266       251  PMPG      H15X           13.5478690065      -29.4001736353       -0.6389111665  MEMB      251             0.0000000000
     31267       251  PMPG      H15Y           11.7097933892      -29.7746044690       -0.6736257716  MEMB      251             0.0000000000
     31268       251  PMPG      C316           12.4278178729      -28.5598951852       -2.1148798967  MEMB      251             0.0000000000
     31269       251  PMPG      H16X           13.1805410389      -28.6114912904       -2.9303965919  MEMB      251             0.0000000000
     31270       251  PMPG      H16Y           12.4117667322      -27.5557398921       -1.6397640019  MEMB      251             0.0000000000
     31271       251  PMPG      H16Z           11.4602738005      -28.6858520269       -2.6462130617  MEMB      251             0.0000000000
     31272       252  POPE      N              -3.7518125825      -31.6615933772      -16.9724732962  MEMB      252             0.0000000000
     31273       252  POPE      HN1            -2.8365439939      -31.5396853074      -17.4510356184  MEMB      252             0.0000000000
     31274       252  POPE      HN2            -3.4647806518      -31.7115521780      -15.9741163030  MEMB      252             0.0000000000
     31275       252  POPE      HN3            -4.3279874230      -32.3924427954      -17.4366734173  MEMB      252             0.0000000000
     31276       252  POPE      C12            -4.4719329215      -30.3954488338      -17.0764540686  MEMB      252             0.0000000000
     31277       252  POPE      H12A           -3.6944777649      -29.6875887031      -16.7175412968  MEMB      252             0.0000000000
     31278       252  POPE      H12B           -5.3250197775      -30.3285801546      -16.3678694173  MEMB      252             0.0000000000
     31279       252  POPE      C11            -4.8169594152      -30.0674690347      -18.5253280577  MEMB      252             0.0000000000
     31280       252  POPE      H11A           -3.9004296405      -29.7652507382      -19.0757443308  MEMB      252             0.0000000000
     31281       252  POPE      H11B           -5.3893496062      -29.1230620788      -18.4037309583  MEMB      252             0.0000000000
     31282       252  POPE      P              -6.7693554072      -31.0657551668      -19.9893237069  MEMB      252             0.0000000000
     31283       252  POPE      O13            -7.2354731586      -32.4266792555      -20.4308828373  MEMB      252             0.0000000000
     31284       252  POPE      O14            -6.6104289895      -30.0914618647      -21.0582876679  MEMB      252             0.0000000000
     31285       252  POPE      O11            -7.6688265219      -30.4813162891      -18.7964768884  MEMB      252             0.0000000000
     31286       252  POPE      O12            -5.4100138803      -31.2328529774      -19.1507734769  MEMB      252             0.0000000000
     31287       252  POPE      C1             -8.2075542662      -31.2681461230      -17.7883888524  MEMB      252             0.0000000000
     31288       252  POPE      HA             -7.4293716373      -31.8500068055      -17.2496951628  MEMB      252             0.0000000000
     31289       252  POPE      HB             -8.8337666872      -32.0763428688      -18.2231268712  MEMB      252             0.0000000000
     31290       252  POPE      C2             -8.7007472950      -30.5390242687      -16.5221893288  MEMB      252             0.0000000000
     31291       252  POPE      HS             -9.7301761564      -30.1736099844      -16.7248454835  MEMB      252             0.0000000000
     31292       252  POPE      O21            -7.7582531371      -29.4618497618      -16.4299795699  MEMB      252             0.0000000000
     31293       252  POPE      C21            -8.1379463850      -28.4189390562      -15.6019665817  MEMB      252             0.0000000000
     31294       252  POPE      O22            -9.1940415626      -28.3769251316      -15.1063243098  MEMB      252             0.0000000000
     31295       252  POPE      C22            -6.8911359680      -27.5548452844      -15.5214409581  MEMB      252             0.0000000000
     31296       252  POPE      H2R            -7.0053688877      -26.7492032041      -16.2778885134  MEMB      252             0.0000000000
     31297       252  POPE      H2S            -6.0391777557      -28.1692308133      -15.8834062526  MEMB      252             0.0000000000
     31298       252  POPE      C3             -8.6929359087      -31.4155316271      -15.2404115800  MEMB      252             0.0000000000
     31299       252  POPE      HX             -9.2703757469      -32.3390482728      -15.4595032955  MEMB      252             0.0000000000
     31300       252  POPE      HY             -9.1722343569      -30.9479689239      -14.3538570677  MEMB      252             0.0000000000
     31301       252  POPE      O31            -7.3791215038      -31.8337648640      -14.8129325177  MEMB      252             0.0000000000
     31302       252  POPE      C31            -7.0966622339      -32.6156545307      -13.8185164271  MEMB      252             0.0000000000
     31303       252  POPE      O32            -7.8926624190      -33.4756962449      -13.3730873672  MEMB      252             0.0000000000
     31304       252  POPE      C32            -5.6430080355      -32.3251245524      -13.4392072624  MEMB      252             0.0000000000
     31305       252  POPE      H2X            -5.5390885950      -31.2312587793      -13.2749525626  MEMB      252             0.0000000000
     31306       252  POPE      H2Y            -4.8239505422      -32.5624282956      -14.1513538144  MEMB      252             0.0000000000
     31307       252  POPE      C23            -6.7265031655      -26.9398948687      -14.1833092910  MEMB      252             0.0000000000
     31308       252  POPE      H3R            -7.5754679722      -26.2861743805      -13.8896609512  MEMB      252             0.0000000000
     31309       252  POPE      H3S            -5.8472083239      -26.2761937784      -14.3270536545  MEMB      252             0.0000000000
     31310       252  POPE      C24            -6.3253782368      -28.0634144431      -13.0749236108  MEMB      252             0.0000000000
     31311       252  POPE      H4R            -5.5798907575      -28.7432779498      -13.5400634358  MEMB      252             0.0000000000
     31312       252  POPE      H4S            -7.2215270463      -28.6578623001      -12.7958715238  MEMB      252             0.0000000000
     31313       252  POPE      C25            -5.6330074664      -27.4652865799      -11.8428644915  MEMB      252             0.0000000000
     31314       252  POPE      H5R            -4.8386196229      -26.7678729861      -12.1847466459  MEMB      252             0.0000000000
     31315       252  POPE      H5S            -5.2988270320      -28.3059735570      -11.1979693189  MEMB      252             0.0000000000
     31316       252  POPE      C26            -6.7099859331      -26.6310147472      -11.1348379316  MEMB      252             0.0000000000
     31317       252  POPE      H6R            -7.0515036694      -25.7751736826      -11.7555007752  MEMB      252             0.0000000000
     31318       252  POPE      H6S            -6.2423903353      -26.2040390357      -10.2219486313  MEMB      252             0.0000000000
     31319       252  POPE      C27            -7.9899065203      -27.3314241877      -10.6265133276  MEMB      252             0.0000000000
     31320       252  POPE      H7R            -8.7183455574      -27.5002984663      -11.4482062682  MEMB      252             0.0000000000
     31321       252  POPE      H7S            -8.5035222401      -26.6293567453       -9.9354116474  MEMB      252             0.0000000000
     31322       252  POPE      C28            -7.6435866980      -28.6061645992       -9.7530149015  MEMB      252             0.0000000000
     31323       252  POPE      H8R            -6.6428844864      -28.3603180610       -9.3377133691  MEMB      252             0.0000000000
     31324       252  POPE      H8S            -7.6153358656      -29.3807040026      -10.5490117282  MEMB      252             0.0000000000
     31325       252  POPE      C29            -8.6771372377      -28.7618578081       -8.6975934145  MEMB      252             0.0000000000
     31326       252  POPE      H91            -9.5306794933      -29.2306575024       -9.2091522036  MEMB      252             0.0000000000
     31327       252  POPE      C210           -8.8543914574      -28.4389973616       -7.3627785412  MEMB      252             0.0000000000
     31328       252  POPE      H101           -9.8212922908      -28.6549854476       -6.8848124701  MEMB      252             0.0000000000
     31329       252  POPE      C211           -7.7270030292      -27.7365214359       -6.5821075764  MEMB      252             0.0000000000
     31330       252  POPE      H11R           -8.0947160802      -26.7139493299       -6.3509060135  MEMB      252             0.0000000000
     31331       252  POPE      H11S           -6.7948004029      -27.6421144569       -7.1791054687  MEMB      252             0.0000000000
     31332       252  POPE      C212           -7.3852735052      -28.3816364983       -5.2495557484  MEMB      252             0.0000000000
     31333       252  POPE      H12R           -8.2468308976      -28.3350890350       -4.5496460209  MEMB      252             0.0000000000
     31334       252  POPE      H12S           -6.5319694531      -27.7462436966       -4.9294478816  MEMB      252             0.0000000000
     31335       252  POPE      C213           -6.9583157958      -29.8349338812       -5.4614409654  MEMB      252             0.0000000000
     31336       252  POPE      H13R           -6.0851828189      -29.8406440235       -6.1484104906  MEMB      252             0.0000000000
     31337       252  POPE      H13S           -7.8572705715      -30.3370007351       -5.8787295187  MEMB      252             0.0000000000
     31338       252  POPE      C214           -6.6297977120      -30.5868772054       -4.1319451709  MEMB      252             0.0000000000
     31339       252  POPE      H14R           -7.4304921628      -30.5124817446       -3.3653463259  MEMB      252             0.0000000000
     31340       252  POPE      H14S           -5.7339962892      -30.1295434015       -3.6600268738  MEMB      252             0.0000000000
     31341       252  POPE      C215           -6.3173099809      -32.0999259172       -4.3074077241  MEMB      252             0.0000000000
     31342       252  POPE      H15R           -5.5909358346      -32.2821662507       -5.1280720494  MEMB      252             0.0000000000
     31343       252  POPE      H15S           -7.2345885623      -32.6296284183       -4.6425739448  MEMB      252             0.0000000000
     31344       252  POPE      C216           -5.7958997608      -32.7664187403       -3.0529527391  MEMB      252             0.0000000000
     31345       252  POPE      H16R           -4.8676135158      -32.2319264276       -2.7581263805  MEMB      252             0.0000000000
     31346       252  POPE      H16S           -5.4303221726      -33.8000828275       -3.2324321825  MEMB      252             0.0000000000
     31347       252  POPE      C217           -6.8001041250      -32.8688353586       -1.8803617669  MEMB      252             0.0000000000
     31348       252  POPE      H17R           -7.7089156353      -33.3647892903       -2.2833670639  MEMB      252             0.0000000000
     31349       252  POPE      H17S           -6.9538994462      -31.8398625190       -1.4906419001  MEMB      252             0.0000000000
     31350       252  POPE      C218           -6.2837043977      -33.7080410871       -0.7254540021  MEMB      252             0.0000000000
     31351       252  POPE      H18R           -6.8967169018      -33.5884544436        0.1933681304  MEMB      252             0.0000000000
     31352       252  POPE      H18S           -5.2315901532      -33.4156019432       -0.5208661335  MEMB      252             0.0000000000
     31353       252  POPE      H18T           -6.2523609518      -34.7782291607       -1.0221628848  MEMB      252             0.0000000000
     31354       252  POPE      C33            -5.1707459726      -32.9044629933      -12.0891579335  MEMB      252             0.0000000000
     31355       252  POPE      H3X            -4.0654891041      -33.0092384107      -12.1309933138  MEMB      252             0.0000000000
     31356       252  POPE      H3Y            -5.5865822199      -33.9321250529      -12.0162761818  MEMB      252             0.0000000000
     31357       252  POPE      C34            -5.5319647153      -32.0197562674      -10.9123492703  MEMB      252             0.0000000000
     31358       252  POPE      H4X            -6.5492802598      -32.3598556369      -10.6230006687  MEMB      252             0.0000000000
     31359       252  POPE      H4Y            -5.4479137212      -30.9460494794      -11.1851319199  MEMB      252             0.0000000000
     31360       252  POPE      C35            -4.6913622916      -32.1774480326       -9.6706908778  MEMB      252             0.0000000000
     31361       252  POPE      H5X            -4.5780492677      -33.2589593440       -9.4430633373  MEMB      252             0.0000000000
     31362       252  POPE      H5Y            -5.0732135213      -31.6135622396       -8.7928855710  MEMB      252             0.0000000000
     31363       252  POPE      C36            -3.1593745217      -31.6700033814       -9.8817620265  MEMB      252             0.0000000000
     31364       252  POPE      H6X            -2.8366312817      -32.2145971355      -10.7947655100  MEMB      252             0.0000000000
     31365       252  POPE      H6Y            -2.5822892179      -31.9877854014       -8.9871625100  MEMB      252             0.0000000000
     31366       252  POPE      C37            -3.0777780465      -30.1173003263       -9.9041923693  MEMB      252             0.0000000000
     31367       252  POPE      H7X            -3.5244501949      -29.6164736683      -10.7896173445  MEMB      252             0.0000000000
     31368       252  POPE      H7Y            -1.9871742883      -29.9059292086       -9.8891287589  MEMB      252             0.0000000000
     31369       252  POPE      C38            -3.7002370495      -29.3632431264       -8.7613973520  MEMB      252             0.0000000000
     31370       252  POPE      H8X            -3.4861530201      -29.8393783690       -7.7806913392  MEMB      252             0.0000000000
     31371       252  POPE      H8Y            -4.7921105129      -29.4381748194       -8.9524955443  MEMB      252             0.0000000000
     31372       252  POPE      C39            -3.4565731266      -27.8285064031       -8.7728679157  MEMB      252             0.0000000000
     31373       252  POPE      H9X            -4.1742915839      -27.3705448340       -8.0590946932  MEMB      252             0.0000000000
     31374       252  POPE      H9Y            -3.5913867699      -27.3667124124       -9.7743127033  MEMB      252             0.0000000000
     31375       252  POPE      C310           -2.0051130861      -27.4679407938       -8.3713919419  MEMB      252             0.0000000000
     31376       252  POPE      H10X           -1.8103127106      -26.3804356272       -8.4884653954  MEMB      252             0.0000000000
     31377       252  POPE      H10Y           -1.2985453153      -27.9336222463       -9.0912696756  MEMB      252             0.0000000000
     31378       252  POPE      C311           -1.5758447320      -27.9204259973       -6.9887214418  MEMB      252             0.0000000000
     31379       252  POPE      H11X           -0.5076829495      -27.6178996600       -6.9459481549  MEMB      252             0.0000000000
     31380       252  POPE      H11Y           -1.7440221191      -28.9668960445       -6.6556484508  MEMB      252             0.0000000000
     31381       252  POPE      C312           -2.2837731054      -27.1047398946       -5.8935723315  MEMB      252             0.0000000000
     31382       252  POPE      H12X           -3.2211906613      -27.6152811641       -5.5854860804  MEMB      252             0.0000000000
     31383       252  POPE      H12Y           -2.5896164604      -26.1114901058       -6.2863002191  MEMB      252             0.0000000000
     31384       252  POPE      C313           -1.5618917458      -26.8270045864       -4.6065576848  MEMB      252             0.0000000000
     31385       252  POPE      H13X           -2.1660868434      -26.0785398774       -4.0506164975  MEMB      252             0.0000000000
     31386       252  POPE      H13Y           -0.5766680136      -26.4124573088       -4.9095517043  MEMB      252             0.0000000000
     31387       252  POPE      C314           -1.3503255218      -28.0361574342       -3.6788533336  MEMB      252             0.0000000000
     31388       252  POPE      H14X           -0.7814053541      -27.5903328691       -2.8351165941  MEMB      252             0.0000000000
     31389       252  POPE      H14Y           -0.7331035326      -28.8152138839       -4.1752699426  MEMB      252             0.0000000000
     31390       252  POPE      C315           -2.6673800089      -28.7497554672       -3.1207463644  MEMB      252             0.0000000000
     31391       252  POPE      H15X           -3.1712228827      -29.4003256276       -3.8672205699  MEMB      252             0.0000000000
     31392       252  POPE      H15Y           -3.4832502410      -28.0092091682       -2.9783812336  MEMB      252             0.0000000000
     31393       252  POPE      C316           -2.5608878680      -29.4535141199       -1.7973839949  MEMB      252             0.0000000000
     31394       252  POPE      H16X           -1.7715183161      -30.2353127653       -1.7946239722  MEMB      252             0.0000000000
     31395       252  POPE      H16Y           -3.4858295322      -29.9326758790       -1.4111105137  MEMB      252             0.0000000000
     31396       252  POPE      H16Z           -2.3567392331      -28.7433544013       -0.9677359735  MEMB      252             0.0000000000
     31397       253  PMPE      N             -19.7115174361      -22.2077461011      -18.6808822516  MEMB      253             0.0000000000
     31398       253  PMPE      HN1           -19.5830188309      -22.7464847477      -17.8006273446  MEMB      253             0.0000000000
     31399       253  PMPE      HN2           -18.8193066691      -21.7368514921      -18.9335052195  MEMB      253             0.0000000000
     31400       253  PMPE      HN3           -20.4526132167      -21.4927708481      -18.5353228547  MEMB      253             0.0000000000
     31401       253  PMPE      C12           -20.2352470765      -23.1700480846      -19.6325893808  MEMB      253             0.0000000000
     31402       253  PMPE      H12A          -20.6444466658      -22.5536723921      -20.4614185553  MEMB      253             0.0000000000
     31403       253  PMPE      H12B          -21.1176520208      -23.6822555595      -19.1929010936  MEMB      253             0.0000000000
     31404       253  PMPE      C11           -19.1526239628      -24.0421646498      -20.2090451026  MEMB      253             0.0000000000
     31405       253  PMPE      H11A          -18.4933186703      -23.2676612555      -20.6560147989  MEMB      253             0.0000000000
     31406       253  PMPE      H11B          -19.4919198934      -24.7445162820      -21.0001844524  MEMB      253             0.0000000000
     31407       253  PMPE      P             -18.9411875972      -26.1663296197      -18.7404863580  MEMB      253             0.0000000000
     31408       253  PMPE      O13           -18.1021857741      -27.2034900876      -19.4332486205  MEMB      253             0.0000000000
     31409       253  PMPE      O14           -20.4036600571      -26.3115890800      -18.8741804692  MEMB      253             0.0000000000
     31410       253  PMPE      O11           -18.4945240074      -26.1180453670      -17.2019138434  MEMB      253             0.0000000000
     31411       253  PMPE      O12           -18.3944612916      -24.7888526141      -19.2276539709  MEMB      253             0.0000000000
     31412       253  PMPE      C1            -17.3980905288      -25.2408848389      -16.8634569051  MEMB      253             0.0000000000
     31413       253  PMPE      HA            -17.5360628883      -24.1825841272      -17.1721383796  MEMB      253             0.0000000000
     31414       253  PMPE      HB            -16.4623085081      -25.5804146040      -17.3567645923  MEMB      253             0.0000000000
     31415       253  PMPE      C2            -17.1432917483      -25.3168519458      -15.3370902234  MEMB      253             0.0000000000
     31416       253  PMPE      HS            -17.1360598706      -26.3803627933      -15.0158216297  MEMB      253             0.0000000000
     31417       253  PMPE      O21           -18.2273239756      -24.5954855344      -14.7662809544  MEMB      253             0.0000000000
     31418       253  PMPE      C21           -18.6961891419      -24.8793683224      -13.5588676442  MEMB      253             0.0000000000
     31419       253  PMPE      O22           -18.2716314936      -25.8009844105      -12.8951108364  MEMB      253             0.0000000000
     31420       253  PMPE      C22           -19.8412176937      -23.8651794389      -13.1705122601  MEMB      253             0.0000000000
     31421       253  PMPE      H2R           -20.8170144399      -24.1347309165      -13.6282057237  MEMB      253             0.0000000000
     31422       253  PMPE      H2S           -19.6034735401      -22.8917075856      -13.6502528391  MEMB      253             0.0000000000
     31423       253  PMPE      C3            -15.8155300086      -24.6922010794      -14.9387447202  MEMB      253             0.0000000000
     31424       253  PMPE      HX            -15.8376647095      -23.5911327423      -15.0853038259  MEMB      253             0.0000000000
     31425       253  PMPE      HY            -15.1396272148      -25.2185840213      -15.6461324165  MEMB      253             0.0000000000
     31426       253  PMPE      O31           -15.4375856676      -24.8788755674      -13.5265231759  MEMB      253             0.0000000000
     31427       253  PMPE      C31           -15.0694271070      -26.0327255087      -13.2528756132  MEMB      253             0.0000000000
     31428       253  PMPE      O32           -14.5693415021      -26.8248203820      -14.0470069961  MEMB      253             0.0000000000
     31429       253  PMPE      C32           -14.9549044092      -26.2229006769      -11.6772884915  MEMB      253             0.0000000000
     31430       253  PMPE      H2X           -15.5164801340      -25.4694589269      -11.0846000663  MEMB      253             0.0000000000
     31431       253  PMPE      H2Y           -13.9045568851      -25.9922841123      -11.3981708462  MEMB      253             0.0000000000
     31432       253  PMPE      C23           -19.8683870899      -23.7030119156      -11.6885059465  MEMB      253             0.0000000000
     31433       253  PMPE      H3R           -20.0227861314      -24.7282185959      -11.2892146168  MEMB      253             0.0000000000
     31434       253  PMPE      H3S           -20.7613349742      -23.1255884414      -11.3667181161  MEMB      253             0.0000000000
     31435       253  PMPE      C24           -18.6749802201      -23.0444703924      -11.2093989740  MEMB      253             0.0000000000
     31436       253  PMPE      H4R           -18.2702055087      -22.2147580780      -11.8275059285  MEMB      253             0.0000000000
     31437       253  PMPE      H4S           -17.8205509940      -23.7482975796      -11.1150641622  MEMB      253             0.0000000000
     31438       253  PMPE      C25           -18.8977072974      -22.5513793952       -9.7122148494  MEMB      253             0.0000000000
     31439       253  PMPE      H5R           -19.7771943201      -21.8914803874       -9.8714537763  MEMB      253             0.0000000000
     31440       253  PMPE      H5S           -18.1415482152      -21.8032909931       -9.3914216571  MEMB      253             0.0000000000
     31441       253  PMPE      C26           -19.2352979562      -23.5837198137       -8.5887858312  MEMB      253             0.0000000000
     31442       253  PMPE      H6R           -20.0878678807      -24.1861572771       -8.9689364198  MEMB      253             0.0000000000
     31443       253  PMPE      H6S           -19.3701993668      -23.1385214769       -7.5798650503  MEMB      253             0.0000000000
     31444       253  PMPE      C27           -18.0116963823      -24.5038783929       -8.3856266432  MEMB      253             0.0000000000
     31445       253  PMPE      H7R           -17.0915495379      -23.8896139115       -8.2839914661  MEMB      253             0.0000000000
     31446       253  PMPE      H7S           -17.9226005865      -25.2951839756       -9.1603646717  MEMB      253             0.0000000000
     31447       253  PMPE      C28           -18.2160900004      -25.3096560134       -7.1346343087  MEMB      253             0.0000000000
     31448       253  PMPE      H8R           -19.1075872035      -25.9454936368       -7.3224219098  MEMB      253             0.0000000000
     31449       253  PMPE      H8S           -18.4489880292      -24.6066893477       -6.3064329885  MEMB      253             0.0000000000
     31450       253  PMPE      C29           -16.9398374703      -26.0808925810       -6.8322356958  MEMB      253             0.0000000000
     31451       253  PMPE      H9R           -16.0170181029      -25.6320246796       -7.2579627776  MEMB      253             0.0000000000
     31452       253  PMPE      C217          -17.0290514573      -27.5860901196       -6.9158517737  MEMB      253             0.0000000000
     31453       253  PMPE      H17R          -16.1308667247      -28.1154959274       -7.2089088154  MEMB      253             0.0000000000
     31454       253  PMPE      H17S          -17.9884164566      -28.0443016619       -7.1221279048  MEMB      253             0.0000000000
     31455       253  PMPE      C210          -16.9373712067      -26.8744471352       -5.6007641892  MEMB      253             0.0000000000
     31456       253  PMPE      H10R          -15.9555678120      -27.0158325140       -5.1003709332  MEMB      253             0.0000000000
     31457       253  PMPE      C211          -18.1648690825      -26.7794381396       -4.6678558261  MEMB      253             0.0000000000
     31458       253  PMPE      H11R          -18.4407264836      -27.8193982502       -4.3908964649  MEMB      253             0.0000000000
     31459       253  PMPE      H11S          -19.1567324034      -26.4803994727       -5.0692342851  MEMB      253             0.0000000000
     31460       253  PMPE      C212          -17.7577168415      -26.0903471598       -3.2943405394  MEMB      253             0.0000000000
     31461       253  PMPE      H12R          -16.9564893796      -26.6173869836       -2.7334625333  MEMB      253             0.0000000000
     31462       253  PMPE      H12S          -18.6460547869      -26.2043331152       -2.6369330912  MEMB      253             0.0000000000
     31463       253  PMPE      C213          -17.2691205586      -24.6619423070       -3.3633998642  MEMB      253             0.0000000000
     31464       253  PMPE      H13R          -17.8571773492      -24.0460364941       -4.0769612252  MEMB      253             0.0000000000
     31465       253  PMPE      H13S          -16.2483056256      -24.7526322154       -3.7923912317  MEMB      253             0.0000000000
     31466       253  PMPE      C214          -17.2033562324      -23.9109402730       -2.0096156176  MEMB      253             0.0000000000
     31467       253  PMPE      H14R          -16.9466870121      -22.9082876316       -2.4135076048  MEMB      253             0.0000000000
     31468       253  PMPE      H14S          -16.2999899942      -24.3271822363       -1.5146466390  MEMB      253             0.0000000000
     31469       253  PMPE      C215          -18.3587774033      -24.0425302357       -1.0731030412  MEMB      253             0.0000000000
     31470       253  PMPE      H15R          -18.4860824781      -25.1148403077       -0.8118270175  MEMB      253             0.0000000000
     31471       253  PMPE      H15S          -19.2879985884      -23.8295135085       -1.6436242131  MEMB      253             0.0000000000
     31472       253  PMPE      C216          -18.4486107241      -23.1768307910        0.2203083423  MEMB      253             0.0000000000
     31473       253  PMPE      H16R          -18.3196793184      -22.1026969054       -0.0325433645  MEMB      253             0.0000000000
     31474       253  PMPE      H16S          -19.4184828201      -23.3806938712        0.7224131575  MEMB      253             0.0000000000
     31475       253  PMPE      H16T          -17.7257091471      -23.4672188708        1.0123993059  MEMB      253             0.0000000000
     31476       253  PMPE      C33           -15.2233057964      -27.6748116205      -11.1678841830  MEMB      253             0.0000000000
     31477       253  PMPE      H3X           -14.9472049400      -27.5263326387      -10.1020307502  MEMB      253             0.0000000000
     31478       253  PMPE      H3Y           -14.5530191507      -28.3899984847      -11.6908990819  MEMB      253             0.0000000000
     31479       253  PMPE      C34           -16.6670181330      -28.0012421342      -11.2867105939  MEMB      253             0.0000000000
     31480       253  PMPE      H4X           -16.8417678553      -28.0308558417      -12.3834816709  MEMB      253             0.0000000000
     31481       253  PMPE      H4Y           -17.3367022958      -27.2094452421      -10.8880858380  MEMB      253             0.0000000000
     31482       253  PMPE      C35           -17.2284240998      -29.3561480072      -10.6037705314  MEMB      253             0.0000000000
     31483       253  PMPE      H5X           -17.0334841883      -29.1889294372       -9.5228647540  MEMB      253             0.0000000000
     31484       253  PMPE      H5Y           -16.5606698678      -30.1834810528      -10.9261751206  MEMB      253             0.0000000000
     31485       253  PMPE      C36           -18.6804592651      -29.5611479680      -11.0031946986  MEMB      253             0.0000000000
     31486       253  PMPE      H6X           -19.0324382975      -30.5542684277      -10.6508529033  MEMB      253             0.0000000000
     31487       253  PMPE      H6Y           -18.7954897436      -29.6144431209      -12.1069376622  MEMB      253             0.0000000000
     31488       253  PMPE      C37           -19.6563608832      -28.4896831850      -10.6074651763  MEMB      253             0.0000000000
     31489       253  PMPE      H7X           -20.4769667426      -28.4994732035      -11.3563522764  MEMB      253             0.0000000000
     31490       253  PMPE      H7Y           -19.2679167014      -27.4490366221      -10.6295287293  MEMB      253             0.0000000000
     31491       253  PMPE      C38           -20.2279834001      -28.6640580213       -9.2150809124  MEMB      253             0.0000000000
     31492       253  PMPE      H8X           -19.3829332881      -28.6502221242       -8.4939569089  MEMB      253             0.0000000000
     31493       253  PMPE      H8Y           -20.7819781622      -29.6253476756       -9.1573449207  MEMB      253             0.0000000000
     31494       253  PMPE      C39           -21.3292689958      -27.5611124318       -8.8033944881  MEMB      253             0.0000000000
     31495       253  PMPE      H9X           -22.1161973322      -27.6541038051       -9.5821229953  MEMB      253             0.0000000000
     31496       253  PMPE      H9Y           -20.8706941782      -26.5511169438       -8.8661601216  MEMB      253             0.0000000000
     31497       253  PMPE      C310          -21.9625907491      -27.8540892170       -7.4409020575  MEMB      253             0.0000000000
     31498       253  PMPE      H10X          -21.2423377245      -27.6571645836       -6.6182375691  MEMB      253             0.0000000000
     31499       253  PMPE      H10Y          -22.1397101360      -28.9507198034       -7.4221607959  MEMB      253             0.0000000000
     31500       253  PMPE      C311          -23.2661448345      -27.1040024014       -7.1801036273  MEMB      253             0.0000000000
     31501       253  PMPE      H11X          -23.9313712377      -27.6662740394       -6.4904336712  MEMB      253             0.0000000000
     31502       253  PMPE      H11Y          -23.7340422849      -26.9706216908       -8.1789044934  MEMB      253             0.0000000000
     31503       253  PMPE      C312          -23.0593051141      -25.6876527013       -6.6545548203  MEMB      253             0.0000000000
     31504       253  PMPE      H12X          -24.0748660859      -25.2392598625       -6.6981527761  MEMB      253             0.0000000000
     31505       253  PMPE      H12Y          -22.4125406204      -25.0383265370       -7.2825614243  MEMB      253             0.0000000000
     31506       253  PMPE      C313          -22.5054123564      -25.6557622243       -5.2538249478  MEMB      253             0.0000000000
     31507       253  PMPE      H13X          -21.4576063459      -25.9969253017       -5.3953583879  MEMB      253             0.0000000000
     31508       253  PMPE      H13Y          -22.9874391898      -26.4511901864       -4.6461526783  MEMB      253             0.0000000000
     31509       253  PMPE      C314          -22.5472259677      -24.2025360758       -4.6838033299  MEMB      253             0.0000000000
     31510       253  PMPE      H14X          -23.6197157485      -23.9837764192       -4.4934581165  MEMB      253             0.0000000000
     31511       253  PMPE      H14Y          -22.1848602679      -23.6047917912       -5.5473505465  MEMB      253             0.0000000000
     31512       253  PMPE      C315          -21.6926153734      -23.9696546597       -3.3689416391  MEMB      253             0.0000000000
     31513       253  PMPE      H15X          -21.6316472386      -22.9315152685       -2.9779549214  MEMB      253             0.0000000000
     31514       253  PMPE      H15Y          -20.6718271088      -24.1722560233       -3.7578695721  MEMB      253             0.0000000000
     31515       253  PMPE      C316          -21.9088508040      -24.8826202216       -2.1938512643  MEMB      253             0.0000000000
     31516       253  PMPE      H16X          -21.3214571439      -25.8248347182       -2.2328574223  MEMB      253             0.0000000000
     31517       253  PMPE      H16Y          -22.9821963670      -25.1690729050       -2.2078359367  MEMB      253             0.0000000000
     31518       253  PMPE      H16Z          -21.7019353815      -24.4580706253       -1.1882341196  MEMB      253             0.0000000000
     31519       254  POPE      N              20.3904186114       25.1031961149      -21.8818929453  MEMB      254             0.0000000000
     31520       254  POPE      HN1            20.8281029004       25.9380469554      -21.4425108053  MEMB      254             0.0000000000
     31521       254  POPE      HN2            20.7986463400       24.1912329932      -21.5933215533  MEMB      254             0.0000000000
     31522       254  POPE      HN3            20.4913453667       25.2808665407      -22.9016216279  MEMB      254             0.0000000000
     31523       254  POPE      C12            18.9654087310       25.2290820245      -21.4371277625  MEMB      254             0.0000000000
     31524       254  POPE      H12A           18.4719392858       24.5672204979      -22.1805980389  MEMB      254             0.0000000000
     31525       254  POPE      H12B           18.5894693733       26.2331793390      -21.7282966961  MEMB      254             0.0000000000
     31526       254  POPE      C11            18.5975527975       24.9741871550      -20.0013478467  MEMB      254             0.0000000000
     31527       254  POPE      H11A           18.8987154268       23.9205907680      -19.8181625184  MEMB      254             0.0000000000
     31528       254  POPE      H11B           17.5200249540       25.1425174221      -19.7894048757  MEMB      254             0.0000000000
     31529       254  POPE      P              19.7334908177       25.3878631608      -17.7398603929  MEMB      254             0.0000000000
     31530       254  POPE      O13            21.0996434140       24.7723094745      -17.7255613037  MEMB      254             0.0000000000
     31531       254  POPE      O14            18.5884419425       24.5685743225      -17.2376393388  MEMB      254             0.0000000000
     31532       254  POPE      O11            19.8158836664       26.7679411180      -16.8239370297  MEMB      254             0.0000000000
     31533       254  POPE      O12            19.3102768204       25.8691330276      -19.1526333836  MEMB      254             0.0000000000
     31534       254  POPE      C1             18.8779085908       27.7992984348      -17.0458047463  MEMB      254             0.0000000000
     31535       254  POPE      HA             17.8830332324       27.3898673246      -17.3231316040  MEMB      254             0.0000000000
     31536       254  POPE      HB             19.1610371692       28.4737541838      -17.8820276369  MEMB      254             0.0000000000
     31537       254  POPE      C2             18.7362615441       28.7985428912      -15.8329619741  MEMB      254             0.0000000000
     31538       254  POPE      HS             18.7095075917       29.8908380650      -16.0341997354  MEMB      254             0.0000000000
     31539       254  POPE      O21            19.8905572042       28.6308610904      -14.9930439037  MEMB      254             0.0000000000
     31540       254  POPE      C21            20.9412911096       29.2896943779      -15.4835157684  MEMB      254             0.0000000000
     31541       254  POPE      O22            20.9254478009       29.9032697622      -16.5413089895  MEMB      254             0.0000000000
     31542       254  POPE      C22            22.1853999205       29.0130548074      -14.6766253036  MEMB      254             0.0000000000
     31543       254  POPE      H2R            22.3903196436       29.8203493337      -13.9413670429  MEMB      254             0.0000000000
     31544       254  POPE      H2S            23.0340379176       29.0443781676      -15.3929726885  MEMB      254             0.0000000000
     31545       254  POPE      C3             17.4925948019       28.4281943471      -15.0162468709  MEMB      254             0.0000000000
     31546       254  POPE      HX             16.5704505632       28.7155859863      -15.5652248499  MEMB      254             0.0000000000
     31547       254  POPE      HY             17.4492963122       29.0007867744      -14.0651506374  MEMB      254             0.0000000000
     31548       254  POPE      O31            17.2764374753       27.0371780254      -14.6598767106  MEMB      254             0.0000000000
     31549       254  POPE      C31            17.6349790416       26.6674734814      -13.4879862660  MEMB      254             0.0000000000
     31550       254  POPE      O32            18.3653892578       27.2947952876      -12.7069481679  MEMB      254             0.0000000000
     31551       254  POPE      C32            17.1076787407       25.2411784546      -13.3797305143  MEMB      254             0.0000000000
     31552       254  POPE      H2X            16.9751772926       24.9152511218      -14.4335499774  MEMB      254             0.0000000000
     31553       254  POPE      H2Y            16.0721929198       25.2525277704      -12.9772861692  MEMB      254             0.0000000000
     31554       254  POPE      C23            22.1355382823       27.6020069960      -14.0221425369  MEMB      254             0.0000000000
     31555       254  POPE      H3R            21.6595780658       26.9148297293      -14.7539692697  MEMB      254             0.0000000000
     31556       254  POPE      H3S            21.3754670895       27.5309425254      -13.2149483001  MEMB      254             0.0000000000
     31557       254  POPE      C24            23.5965564394       27.2962966279      -13.5302425755  MEMB      254             0.0000000000
     31558       254  POPE      H4R            23.9194064837       28.1564711055      -12.9055915853  MEMB      254             0.0000000000
     31559       254  POPE      H4S            24.2426620862       27.2234968070      -14.4311134691  MEMB      254             0.0000000000
     31560       254  POPE      C25            23.7881154241       26.0343826647      -12.7835436699  MEMB      254             0.0000000000
     31561       254  POPE      H5R            24.8252651362       25.8260418484      -12.4440807081  MEMB      254             0.0000000000
     31562       254  POPE      H5S            23.4843215380       25.3112344995      -13.5703645289  MEMB      254             0.0000000000
     31563       254  POPE      C26            22.8213498035       25.7203391670      -11.6489282235  MEMB      254             0.0000000000
     31564       254  POPE      H6R            21.8373673360       25.8815708269      -12.1389318814  MEMB      254             0.0000000000
     31565       254  POPE      H6S            22.8697881846       26.4823948504      -10.8419302220  MEMB      254             0.0000000000
     31566       254  POPE      C27            23.0590712971       24.3704620104      -11.0257992659  MEMB      254             0.0000000000
     31567       254  POPE      H7R            24.1468721125       24.3736153515      -10.7999666513  MEMB      254             0.0000000000
     31568       254  POPE      H7S            22.9343157870       23.5398227499      -11.7529824024  MEMB      254             0.0000000000
     31569       254  POPE      C28            22.2245095109       24.1555105487       -9.7528089396  MEMB      254             0.0000000000
     31570       254  POPE      H8R            22.7238302274       24.6620094116       -8.8993108678  MEMB      254             0.0000000000
     31571       254  POPE      H8S            22.4336788120       23.0988383530       -9.4807562340  MEMB      254             0.0000000000
     31572       254  POPE      C29            20.7749598222       24.5894878107       -9.8784776986  MEMB      254             0.0000000000
     31573       254  POPE      H91            20.2426242852       24.1204517243      -10.7190871317  MEMB      254             0.0000000000
     31574       254  POPE      C210           20.1636959667       25.4586772391       -9.0724000446  MEMB      254             0.0000000000
     31575       254  POPE      H101           19.0991059661       25.6688243833       -9.2526392787  MEMB      254             0.0000000000
     31576       254  POPE      C211           20.7459890332       26.1351630719       -7.8489451142  MEMB      254             0.0000000000
     31577       254  POPE      H11R           20.8355882694       27.2141531148       -8.0980911571  MEMB      254             0.0000000000
     31578       254  POPE      H11S           21.7506121921       25.7751298612       -7.5400289307  MEMB      254             0.0000000000
     31579       254  POPE      C212           19.6338202261       26.0466533947       -6.7721294580  MEMB      254             0.0000000000
     31580       254  POPE      H12R           19.1603023335       25.0435128953       -6.8338621191  MEMB      254             0.0000000000
     31581       254  POPE      H12S           18.9145660077       26.8859447959       -6.8843079787  MEMB      254             0.0000000000
     31582       254  POPE      C213           20.1303574519       26.2630984678       -5.3194561403  MEMB      254             0.0000000000
     31583       254  POPE      H13R           19.3054080971       26.4989051635       -4.6136419897  MEMB      254             0.0000000000
     31584       254  POPE      H13S           20.8359703201       27.1147839083       -5.4246397578  MEMB      254             0.0000000000
     31585       254  POPE      C214           20.8566853258       25.0020136430       -4.6954834060  MEMB      254             0.0000000000
     31586       254  POPE      H14R           21.1418058363       24.3020666492       -5.5097937180  MEMB      254             0.0000000000
     31587       254  POPE      H14S           20.1426175042       24.4556487318       -4.0428617802  MEMB      254             0.0000000000
     31588       254  POPE      C215           22.0757570070       25.3969968513       -3.9636122914  MEMB      254             0.0000000000
     31589       254  POPE      H15R           21.7820333373       26.1684508602       -3.2200354470  MEMB      254             0.0000000000
     31590       254  POPE      H15S           22.8538666551       25.7617441872       -4.6677611941  MEMB      254             0.0000000000
     31591       254  POPE      C216           22.6391532601       24.2564341922       -3.0489506955  MEMB      254             0.0000000000
     31592       254  POPE      H16R           23.5973281081       24.6804821702       -2.6796205171  MEMB      254             0.0000000000
     31593       254  POPE      H16S           22.9462874382       23.4592389550       -3.7592107845  MEMB      254             0.0000000000
     31594       254  POPE      C217           21.7531885156       23.8295749786       -1.8473849201  MEMB      254             0.0000000000
     31595       254  POPE      H17R           22.2679923272       22.9475432975       -1.4099857805  MEMB      254             0.0000000000
     31596       254  POPE      H17S           20.7295058011       23.5469306192       -2.1737384263  MEMB      254             0.0000000000
     31597       254  POPE      C218           21.5863029889       24.8586491589       -0.7298879824  MEMB      254             0.0000000000
     31598       254  POPE      H18R           22.5090298183       25.0205411981       -0.1326543561  MEMB      254             0.0000000000
     31599       254  POPE      H18S           20.7539142040       24.5759831182       -0.0505130709  MEMB      254             0.0000000000
     31600       254  POPE      H18T           21.2674417980       25.8476099994       -1.1230851585  MEMB      254             0.0000000000
     31601       254  POPE      C33            18.0532425371       24.3611452339      -12.4936328396  MEMB      254             0.0000000000
     31602       254  POPE      H3X            17.7103099602       24.6190188823      -11.4688308651  MEMB      254             0.0000000000
     31603       254  POPE      H3Y            19.0889755859       24.6814551040      -12.7364902840  MEMB      254             0.0000000000
     31604       254  POPE      C34            17.9734658090       22.8641238937      -12.8078098700  MEMB      254             0.0000000000
     31605       254  POPE      H4X            18.5911452736       22.2857123193      -12.0879254164  MEMB      254             0.0000000000
     31606       254  POPE      H4Y            18.2592512761       22.6628714333      -13.8623924051  MEMB      254             0.0000000000
     31607       254  POPE      C35            16.6148680612       22.1979291174      -12.8417981066  MEMB      254             0.0000000000
     31608       254  POPE      H5X            16.7556477237       21.0971655945      -12.7886749010  MEMB      254             0.0000000000
     31609       254  POPE      H5Y            15.9812578406       22.5618923860      -13.6786909023  MEMB      254             0.0000000000
     31610       254  POPE      C36            15.8319918400       22.4281150258      -11.4781141288  MEMB      254             0.0000000000
     31611       254  POPE      H6X            14.8639458029       21.8832255196      -11.4606880882  MEMB      254             0.0000000000
     31612       254  POPE      H6Y            15.7127343716       23.5078736550      -11.2452623803  MEMB      254             0.0000000000
     31613       254  POPE      C37            16.5890935068       21.6973421235      -10.3338507981  MEMB      254             0.0000000000
     31614       254  POPE      H7X            17.5863327257       22.1023336252      -10.0585026052  MEMB      254             0.0000000000
     31615       254  POPE      H7Y            16.8212166974       20.6526517368      -10.6322830263  MEMB      254             0.0000000000
     31616       254  POPE      C38            15.7342687885       21.4391559093       -9.0481303552  MEMB      254             0.0000000000
     31617       254  POPE      H8X            16.3048935849       20.8043627998       -8.3369723315  MEMB      254             0.0000000000
     31618       254  POPE      H8Y            14.8112356155       20.9112634897       -9.3700941157  MEMB      254             0.0000000000
     31619       254  POPE      C39            15.3402945176       22.7756325488       -8.3428833732  MEMB      254             0.0000000000
     31620       254  POPE      H9X            14.5612636310       22.6056058702       -7.5692411926  MEMB      254             0.0000000000
     31621       254  POPE      H9Y            14.8816276513       23.5006603830       -9.0487734349  MEMB      254             0.0000000000
     31622       254  POPE      C310           16.6377464160       23.3928402163       -7.6689187817  MEMB      254             0.0000000000
     31623       254  POPE      H10X           17.4893279858       23.5819507213       -8.3569364927  MEMB      254             0.0000000000
     31624       254  POPE      H10Y           16.9777675961       22.6567059291       -6.9094369533  MEMB      254             0.0000000000
     31625       254  POPE      C311           16.2703255214       24.7280690467       -6.9572556302  MEMB      254             0.0000000000
     31626       254  POPE      H11X           15.6159082183       25.3691952621       -7.5857581696  MEMB      254             0.0000000000
     31627       254  POPE      H11Y           17.2043390985       25.3295128850       -6.9429380272  MEMB      254             0.0000000000
     31628       254  POPE      C312           15.7172667453       24.4927199100       -5.4745936821  MEMB      254             0.0000000000
     31629       254  POPE      H12X           15.0795694578       23.5850370878       -5.4131550160  MEMB      254             0.0000000000
     31630       254  POPE      H12Y           15.0315921507       25.3575018834       -5.3468299905  MEMB      254             0.0000000000
     31631       254  POPE      C313           16.7435854552       24.6119114761       -4.3822762553  MEMB      254             0.0000000000
     31632       254  POPE      H13X           16.8890176067       25.6356687803       -3.9759617803  MEMB      254             0.0000000000
     31633       254  POPE      H13Y           17.7328192810       24.3245343528       -4.7983908033  MEMB      254             0.0000000000
     31634       254  POPE      C314           16.5265318235       23.6871915772       -3.2249294913  MEMB      254             0.0000000000
     31635       254  POPE      H14X           16.5289716173       22.6086701698       -3.4915874736  MEMB      254             0.0000000000
     31636       254  POPE      H14Y           15.5876639672       23.8287555071       -2.6480332309  MEMB      254             0.0000000000
     31637       254  POPE      C315           17.6631217570       23.7878835561       -2.2011635213  MEMB      254             0.0000000000
     31638       254  POPE      H15X           17.7147996081       24.7888336541       -1.7218416974  MEMB      254             0.0000000000
     31639       254  POPE      H15Y           18.6192568877       23.6257278713       -2.7432253317  MEMB      254             0.0000000000
     31640       254  POPE      C316           17.6849287996       22.6578907453       -1.0595414522  MEMB      254             0.0000000000
     31641       254  POPE      H16X           18.5862381493       22.7277137044       -0.4137186283  MEMB      254             0.0000000000
     31642       254  POPE      H16Y           17.7191757640       21.6306554256       -1.4813660912  MEMB      254             0.0000000000
     31643       254  POPE      H16Z           16.7094967173       22.7546356274       -0.5365756209  MEMB      254             0.0000000000
     31644       255  PMPE      N               7.4094816998       31.5322655310      -18.5509909180  MEMB      255             0.0000000000
     31645       255  PMPE      HN1             7.1971793407       32.0101275506      -19.4499767566  MEMB      255             0.0000000000
     31646       255  PMPE      HN2             7.2928730745       32.2829426756      -17.8407190251  MEMB      255             0.0000000000
     31647       255  PMPE      HN3             8.3623099433       31.1285136359      -18.6544460894  MEMB      255             0.0000000000
     31648       255  PMPE      C12             6.3620243206       30.4247317052      -18.4580416094  MEMB      255             0.0000000000
     31649       255  PMPE      H12A            6.6347234315       29.7366443993      -17.6294935025  MEMB      255             0.0000000000
     31650       255  PMPE      H12B            6.4056204669       29.7592908347      -19.3466409676  MEMB      255             0.0000000000
     31651       255  PMPE      C11             5.0150327625       31.0417410309      -18.2982887207  MEMB      255             0.0000000000
     31652       255  PMPE      H11A            4.9035626722       31.6991631051      -17.4096427919  MEMB      255             0.0000000000
     31653       255  PMPE      H11B            4.1883213298       30.3036485959      -18.2202568842  MEMB      255             0.0000000000
     31654       255  PMPE      P               4.3392732438       33.3933896401      -19.4111126332  MEMB      255             0.0000000000
     31655       255  PMPE      O13             2.9806959448       33.5443264974      -18.8580494873  MEMB      255             0.0000000000
     31656       255  PMPE      O14             4.6937531022       34.0088239150      -20.7399639319  MEMB      255             0.0000000000
     31657       255  PMPE      O11             5.3647300901       33.9046069883      -18.2736483728  MEMB      255             0.0000000000
     31658       255  PMPE      O12             4.6385589448       31.8659715476      -19.4099043473  MEMB      255             0.0000000000
     31659       255  PMPE      C1              6.0050648508       35.2187030490      -18.3333905279  MEMB      255             0.0000000000
     31660       255  PMPE      HA              5.3225526784       36.0414326088      -18.6360689892  MEMB      255             0.0000000000
     31661       255  PMPE      HB              6.7622827181       35.1359354588      -19.1421498583  MEMB      255             0.0000000000
     31662       255  PMPE      C2              6.8554310521       35.4847736610      -17.0795620313  MEMB      255             0.0000000000
     31663       255  PMPE      HS              7.3400495929       36.4319737100      -17.3993714047  MEMB      255             0.0000000000
     31664       255  PMPE      O21             7.7937800142       34.4549196653      -16.8107089001  MEMB      255             0.0000000000
     31665       255  PMPE      C21             8.7405521481       34.5551605990      -15.9126493261  MEMB      255             0.0000000000
     31666       255  PMPE      O22             9.2205311346       35.5635962495      -15.4404466457  MEMB      255             0.0000000000
     31667       255  PMPE      C22             9.0094619024       33.1787381348      -15.4039590427  MEMB      255             0.0000000000
     31668       255  PMPE      H2R             9.7828475639       32.5989926557      -15.9517643651  MEMB      255             0.0000000000
     31669       255  PMPE      H2S             8.1072838548       32.5303927264      -15.4105796000  MEMB      255             0.0000000000
     31670       255  PMPE      C3              5.9375269496       35.7624531768      -15.8840047994  MEMB      255             0.0000000000
     31671       255  PMPE      HX              5.2381555051       36.5669515891      -16.1970271124  MEMB      255             0.0000000000
     31672       255  PMPE      HY              6.4270722687       36.3146711080      -15.0535100376  MEMB      255             0.0000000000
     31673       255  PMPE      O31             5.3968871691       34.4880654011      -15.3997970413  MEMB      255             0.0000000000
     31674       255  PMPE      C31             4.2260431506       34.5265055563      -14.8323877744  MEMB      255             0.0000000000
     31675       255  PMPE      O32             3.6168283952       35.4836174575      -14.4371699580  MEMB      255             0.0000000000
     31676       255  PMPE      C32             3.6521631847       33.1212612163      -14.8779735797  MEMB      255             0.0000000000
     31677       255  PMPE      H2X             3.8772355015       32.5632058601      -15.8119100480  MEMB      255             0.0000000000
     31678       255  PMPE      H2Y             2.5663874763       33.3520690285      -14.8317143913  MEMB      255             0.0000000000
     31679       255  PMPE      C23             9.5406725491       33.3267529126      -13.9862837687  MEMB      255             0.0000000000
     31680       255  PMPE      H3R             8.9152825770       33.9732247859      -13.3341469848  MEMB      255             0.0000000000
     31681       255  PMPE      H3S            10.4933777167       33.8924148427      -14.0681402664  MEMB      255             0.0000000000
     31682       255  PMPE      C24             9.7092300571       31.8682141267      -13.3332454131  MEMB      255             0.0000000000
     31683       255  PMPE      H4R            10.5513865142       31.3371342759      -13.8262443470  MEMB      255             0.0000000000
     31684       255  PMPE      H4S             8.7656968930       31.2964779310      -13.4643326101  MEMB      255             0.0000000000
     31685       255  PMPE      C25             9.8428536904       31.9707641604      -11.8019268254  MEMB      255             0.0000000000
     31686       255  PMPE      H5R             9.5913228580       31.0084982640      -11.3068536958  MEMB      255             0.0000000000
     31687       255  PMPE      H5S             9.1669274357       32.7164847079      -11.3314531099  MEMB      255             0.0000000000
     31688       255  PMPE      C26            11.2725116339       32.2781774098      -11.3485189286  MEMB      255             0.0000000000
     31689       255  PMPE      H6R            11.7689889102       32.9788116359      -12.0534603814  MEMB      255             0.0000000000
     31690       255  PMPE      H6S            11.9453091295       31.3959589834      -11.2905938694  MEMB      255             0.0000000000
     31691       255  PMPE      C27            11.4386302015       32.9765064311      -10.0461293597  MEMB      255             0.0000000000
     31692       255  PMPE      H7R            11.0376016061       34.0101974949      -10.1166981120  MEMB      255             0.0000000000
     31693       255  PMPE      H7S            12.5253711964       33.1935520707       -9.9673500224  MEMB      255             0.0000000000
     31694       255  PMPE      C28            10.9747028297       32.1625797840       -8.8685155730  MEMB      255             0.0000000000
     31695       255  PMPE      H8R            11.6774025176       32.4664784699       -8.0634203143  MEMB      255             0.0000000000
     31696       255  PMPE      H8S            11.2140360979       31.0943805262       -9.0582278583  MEMB      255             0.0000000000
     31697       255  PMPE      C29             9.5055395728       32.3380500730       -8.6058680702  MEMB      255             0.0000000000
     31698       255  PMPE      H9R             8.7465250261       32.1362503556       -9.3916763536  MEMB      255             0.0000000000
     31699       255  PMPE      C217            9.1181951464       33.6473163702       -7.9001978450  MEMB      255             0.0000000000
     31700       255  PMPE      H17R            8.1798961458       34.0419174822       -8.2700270038  MEMB      255             0.0000000000
     31701       255  PMPE      H17S            9.9865010799       34.2813155378       -7.7698937800  MEMB      255             0.0000000000
     31702       255  PMPE      C210            9.0556194760       32.2659619980       -7.1912771083  MEMB      255             0.0000000000
     31703       255  PMPE      H10R            8.0379769940       31.8399806229       -7.0598819330  MEMB      255             0.0000000000
     31704       255  PMPE      C211           10.0830445252       31.9585459994       -6.0366582971  MEMB      255             0.0000000000
     31705       255  PMPE      H11R            9.5823484247       32.2086046417       -5.0769212632  MEMB      255             0.0000000000
     31706       255  PMPE      H11S           10.8480124100       32.7492971864       -6.1911176176  MEMB      255             0.0000000000
     31707       255  PMPE      C212           10.4109630022       30.4489630752       -6.1051774709  MEMB      255             0.0000000000
     31708       255  PMPE      H12R           11.0548479256       30.1532440601       -6.9609134226  MEMB      255             0.0000000000
     31709       255  PMPE      H12S            9.5192767497       29.7985033639       -6.2321389887  MEMB      255             0.0000000000
     31710       255  PMPE      C213           11.3596267316       30.0221741964       -4.8671564572  MEMB      255             0.0000000000
     31711       255  PMPE      H13R           12.2965956001       30.6167112535       -4.9213431081  MEMB      255             0.0000000000
     31712       255  PMPE      H13S           11.7199528131       28.9941132226       -5.0852787309  MEMB      255             0.0000000000
     31713       255  PMPE      C214           10.6843176234       30.1518062624       -3.4913611215  MEMB      255             0.0000000000
     31714       255  PMPE      H14R           10.4428563006       31.1953061644       -3.1961911957  MEMB      255             0.0000000000
     31715       255  PMPE      H14S           11.4001588754       29.7625264865       -2.7361438915  MEMB      255             0.0000000000
     31716       255  PMPE      C215            9.2952118116       29.4740800977       -3.4852126207  MEMB      255             0.0000000000
     31717       255  PMPE      H15R            9.4003412494       28.4294136274       -3.8484501472  MEMB      255             0.0000000000
     31718       255  PMPE      H15S            8.6381026235       30.0916351419       -4.1341766981  MEMB      255             0.0000000000
     31719       255  PMPE      C216            8.6314044436       29.3955545413       -2.0408391193  MEMB      255             0.0000000000
     31720       255  PMPE      H16R            8.3515234192       30.3773448797       -1.6025740950  MEMB      255             0.0000000000
     31721       255  PMPE      H16S            7.6980116476       28.7954681861       -2.0955682212  MEMB      255             0.0000000000
     31722       255  PMPE      H16T            9.3667095138       28.8324218455       -1.4272200173  MEMB      255             0.0000000000
     31723       255  PMPE      C33             4.2219801268       32.4130171871      -13.6123823452  MEMB      255             0.0000000000
     31724       255  PMPE      H3X             3.6014116718       31.5133639787      -13.4127834049  MEMB      255             0.0000000000
     31725       255  PMPE      H3Y             3.9534142077       33.0342420613      -12.7313187617  MEMB      255             0.0000000000
     31726       255  PMPE      C34             5.6917977400       31.9055001269      -13.6798126069  MEMB      255             0.0000000000
     31727       255  PMPE      H4X             6.4697613272       32.6984708981      -13.6968700555  MEMB      255             0.0000000000
     31728       255  PMPE      H4Y             5.7636454587       31.4163651818      -14.6747526366  MEMB      255             0.0000000000
     31729       255  PMPE      C35             6.0612430602       30.7210066845      -12.7787348783  MEMB      255             0.0000000000
     31730       255  PMPE      H5X             7.1518721662       30.5616983733      -12.6391999555  MEMB      255             0.0000000000
     31731       255  PMPE      H5Y             5.5172454902       29.7731750972      -12.9787422426  MEMB      255             0.0000000000
     31732       255  PMPE      C36             5.6789625328       31.1900547648      -11.3554480058  MEMB      255             0.0000000000
     31733       255  PMPE      H6X             4.5936006687       31.3567043549      -11.1865141938  MEMB      255             0.0000000000
     31734       255  PMPE      H6Y             6.3019119536       32.1004090064      -11.2231224508  MEMB      255             0.0000000000
     31735       255  PMPE      C37             6.1944965460       30.3312327434      -10.1798256615  MEMB      255             0.0000000000
     31736       255  PMPE      H7X             7.3013039491       30.2865242374      -10.0943884486  MEMB      255             0.0000000000
     31737       255  PMPE      H7Y             5.8439423300       29.2909694416      -10.3509537887  MEMB      255             0.0000000000
     31738       255  PMPE      C38             5.6059975562       30.7622476109       -8.8465351838  MEMB      255             0.0000000000
     31739       255  PMPE      H8X             5.5363509821       31.8611857136       -8.6988690482  MEMB      255             0.0000000000
     31740       255  PMPE      H8Y             6.1515834551       30.2766387117       -8.0093726922  MEMB      255             0.0000000000
     31741       255  PMPE      C39             4.1361854012       30.2363064113       -8.6036847340  MEMB      255             0.0000000000
     31742       255  PMPE      H9X             4.0756126402       29.1582594876       -8.8653456260  MEMB      255             0.0000000000
     31743       255  PMPE      H9Y             3.4432157253       30.8108040018       -9.2548882662  MEMB      255             0.0000000000
     31744       255  PMPE      C310            3.5757921334       30.4560656645       -7.1510996056  MEMB      255             0.0000000000
     31745       255  PMPE      H10X            4.1428457915       29.8568361431       -6.4069928925  MEMB      255             0.0000000000
     31746       255  PMPE      H10Y            2.5559527935       30.0155620881       -7.1654454221  MEMB      255             0.0000000000
     31747       255  PMPE      C311            3.5992761308       31.9582106467       -6.6311170043  MEMB      255             0.0000000000
     31748       255  PMPE      H11X            2.9564350092       32.5876167042       -7.2829799184  MEMB      255             0.0000000000
     31749       255  PMPE      H11Y            4.6082088089       32.4183567677       -6.6992414190  MEMB      255             0.0000000000
     31750       255  PMPE      C312            3.1261009602       32.0918901216       -5.1440545824  MEMB      255             0.0000000000
     31751       255  PMPE      H12X            3.9184458721       31.5935378305       -4.5455932935  MEMB      255             0.0000000000
     31752       255  PMPE      H12Y            2.1813998167       31.5248376065       -5.0015341117  MEMB      255             0.0000000000
     31753       255  PMPE      C313            2.8245841351       33.5609585334       -4.8320099776  MEMB      255             0.0000000000
     31754       255  PMPE      H13X            2.1362393217       33.6182545802       -3.9618261785  MEMB      255             0.0000000000
     31755       255  PMPE      H13Y            2.2741031060       34.1429131078       -5.6018280922  MEMB      255             0.0000000000
     31756       255  PMPE      C314            4.0619632245       34.5136794542       -4.4735380492  MEMB      255             0.0000000000
     31757       255  PMPE      H14X            3.8607476458       35.4169752142       -5.0882656110  MEMB      255             0.0000000000
     31758       255  PMPE      H14Y            5.0145589766       34.1114667857       -4.8798713872  MEMB      255             0.0000000000
     31759       255  PMPE      C315            4.2511150616       34.8817541391       -3.0546410952  MEMB      255             0.0000000000
     31760       255  PMPE      H15X            3.3554488851       35.4307907107       -2.6931689013  MEMB      255             0.0000000000
     31761       255  PMPE      H15Y            5.1703489754       35.4731652553       -2.8557375071  MEMB      255             0.0000000000
     31762       255  PMPE      C316            4.3606689896       33.7224250977       -2.0734601775  MEMB      255             0.0000000000
     31763       255  PMPE      H16X            5.1104176675       33.0196170958       -2.4956668309  MEMB      255             0.0000000000
     31764       255  PMPE      H16Y            3.4411664156       33.1294985989       -1.8803956228  MEMB      255             0.0000000000
     31765       255  PMPE      H16Z            4.5306766243       34.0017517486       -1.0116716667  MEMB      255             0.0000000000
     31766       256  PMPE      N             -31.7906174895       -5.2155328464      -21.1833930508  MEMB      256             0.0000000000
     31767       256  PMPE      HN1           -32.5944063847       -4.6067808213      -21.4382352586  MEMB      256             0.0000000000
     31768       256  PMPE      HN2           -31.0412211801       -4.5383924581      -20.9354290920  MEMB      256             0.0000000000
     31769       256  PMPE      HN3           -31.5148993375       -5.7423683925      -22.0366361492  MEMB      256             0.0000000000
     31770       256  PMPE      C12           -32.0718382088       -6.3302798299      -20.1407462992  MEMB      256             0.0000000000
     31771       256  PMPE      H12A          -31.0981864979       -6.8484473660      -20.0072333129  MEMB      256             0.0000000000
     31772       256  PMPE      H12B          -32.9375116788       -6.9434393995      -20.4708458688  MEMB      256             0.0000000000
     31773       256  PMPE      C11           -32.5053137989       -5.6843135948      -18.7253106293  MEMB      256             0.0000000000
     31774       256  PMPE      H11A          -31.6298761129       -5.0763621640      -18.4117426337  MEMB      256             0.0000000000
     31775       256  PMPE      H11B          -32.6672490022       -6.4916647576      -17.9794674526  MEMB      256             0.0000000000
     31776       256  PMPE      P             -33.8227326759       -3.4172394606      -18.4200334600  MEMB      256             0.0000000000
     31777       256  PMPE      O13           -34.5998079277       -2.7886857386      -19.4782581651  MEMB      256             0.0000000000
     31778       256  PMPE      O14           -32.4645257551       -2.8307414445      -18.2235737000  MEMB      256             0.0000000000
     31779       256  PMPE      O11           -34.7372861906       -3.3847132857      -17.0172678445  MEMB      256             0.0000000000
     31780       256  PMPE      O12           -33.7369291440       -4.9149090436      -18.8114168512  MEMB      256             0.0000000000
     31781       256  PMPE      C1            -35.5211593338       -4.4309876167      -16.7428246975  MEMB      256             0.0000000000
     31782       256  PMPE      HA            -35.5291803595       -5.2047639566      -17.5400240466  MEMB      256             0.0000000000
     31783       256  PMPE      HB            -36.5965663394       -4.1602598896      -16.6755399122  MEMB      256             0.0000000000
     31784       256  PMPE      C2            -35.2096068027       -5.0972473136      -15.3943636556  MEMB      256             0.0000000000
     31785       256  PMPE      HS            -35.2128676877       -4.2798715603      -14.6418962596  MEMB      256             0.0000000000
     31786       256  PMPE      O21           -33.9633293174       -5.6616105298      -15.4629949142  MEMB      256             0.0000000000
     31787       256  PMPE      C21           -32.8248349860       -5.0075652974      -15.1379130538  MEMB      256             0.0000000000
     31788       256  PMPE      O22           -32.7496300836       -3.8076775294      -14.9553631820  MEMB      256             0.0000000000
     31789       256  PMPE      C22           -31.6670854840       -5.9990880949      -15.0074013800  MEMB      256             0.0000000000
     31790       256  PMPE      H2R           -30.8322137642       -5.6487307645      -15.6512647924  MEMB      256             0.0000000000
     31791       256  PMPE      H2S           -31.9927992287       -6.9859953405      -15.4001427094  MEMB      256             0.0000000000
     31792       256  PMPE      C3            -36.2730259396       -6.1965844432      -15.1251308285  MEMB      256             0.0000000000
     31793       256  PMPE      HX            -36.3385828301       -7.0606552829      -15.8204041677  MEMB      256             0.0000000000
     31794       256  PMPE      HY            -37.3136785339       -5.8088535594      -15.0930720638  MEMB      256             0.0000000000
     31795       256  PMPE      O31           -35.9275624825       -6.7723928019      -13.8721060731  MEMB      256             0.0000000000
     31796       256  PMPE      C31           -36.5092508974       -6.5499234190      -12.7497930028  MEMB      256             0.0000000000
     31797       256  PMPE      O32           -37.5436262908       -5.9444062101      -12.6047777680  MEMB      256             0.0000000000
     31798       256  PMPE      C32           -35.6924502531       -7.1693349001      -11.6629276782  MEMB      256             0.0000000000
     31799       256  PMPE      H2X           -34.5871996595       -7.0564889453      -11.6658040207  MEMB      256             0.0000000000
     31800       256  PMPE      H2Y           -35.8639168026       -8.2661899375      -11.6201595173  MEMB      256             0.0000000000
     31801       256  PMPE      C23           -31.3391110201       -5.9665100921      -13.5135430958  MEMB      256             0.0000000000
     31802       256  PMPE      H3R           -32.2656154191       -6.2242391841      -12.9572280600  MEMB      256             0.0000000000
     31803       256  PMPE      H3S           -31.0899449610       -4.9583106991      -13.1188644512  MEMB      256             0.0000000000
     31804       256  PMPE      C24           -30.1696538484       -6.8415545272      -13.0854064255  MEMB      256             0.0000000000
     31805       256  PMPE      H4R           -29.3220516461       -6.7151404109      -13.7924503611  MEMB      256             0.0000000000
     31806       256  PMPE      H4S           -30.5622094575       -7.8805498990      -13.0587690010  MEMB      256             0.0000000000
     31807       256  PMPE      C25           -29.6470946484       -6.5816807485      -11.6769719059  MEMB      256             0.0000000000
     31808       256  PMPE      H5R           -29.3562062557       -5.5147956471      -11.5699151574  MEMB      256             0.0000000000
     31809       256  PMPE      H5S           -28.7310373038       -7.1905475569      -11.5206356271  MEMB      256             0.0000000000
     31810       256  PMPE      C26           -30.5667349400       -6.8804987049      -10.4606943188  MEMB      256             0.0000000000
     31811       256  PMPE      H6R           -31.4414511020       -6.1959942237      -10.4352775961  MEMB      256             0.0000000000
     31812       256  PMPE      H6S           -29.9108250116       -6.6877157300       -9.5849440321  MEMB      256             0.0000000000
     31813       256  PMPE      C27           -30.7953605333       -8.3592693339      -10.1029572343  MEMB      256             0.0000000000
     31814       256  PMPE      H7R           -29.8823267417       -8.9455599629      -10.3416069903  MEMB      256             0.0000000000
     31815       256  PMPE      H7S           -31.6348701497       -8.6624626627      -10.7644847654  MEMB      256             0.0000000000
     31816       256  PMPE      C28           -31.2878820503       -8.5663993819       -8.6772378500  MEMB      256             0.0000000000
     31817       256  PMPE      H8R           -31.9366840625       -7.6875358049       -8.4748132543  MEMB      256             0.0000000000
     31818       256  PMPE      H8S           -30.5101995402       -8.3438009625       -7.9156728655  MEMB      256             0.0000000000
     31819       256  PMPE      C29           -31.9904212064       -9.9253863511       -8.4567291651  MEMB      256             0.0000000000
     31820       256  PMPE      H9R           -31.5369818561      -10.9054899579       -8.7177093827  MEMB      256             0.0000000000
     31821       256  PMPE      C217          -33.5381235366       -9.7327984721       -8.7008855727  MEMB      256             0.0000000000
     31822       256  PMPE      H17R          -34.0033975945      -10.5789575787       -9.1912166355  MEMB      256             0.0000000000
     31823       256  PMPE      H17S          -33.6543523205       -8.6732315222       -8.8924515572  MEMB      256             0.0000000000
     31824       256  PMPE      C210          -32.9375786349      -10.0801573645       -7.2436253945  MEMB      256             0.0000000000
     31825       256  PMPE      H10R          -32.9589680664      -11.1101419733       -6.8276998296  MEMB      256             0.0000000000
     31826       256  PMPE      C211          -33.0141605450       -9.0232604742       -6.0967797060  MEMB      256             0.0000000000
     31827       256  PMPE      H11R          -33.9114595064       -9.2782127245       -5.4933108125  MEMB      256             0.0000000000
     31828       256  PMPE      H11S          -33.1537694577       -8.0328008228       -6.5803289668  MEMB      256             0.0000000000
     31829       256  PMPE      C212          -31.7467420529       -9.0203483621       -5.3330503406  MEMB      256             0.0000000000
     31830       256  PMPE      H12R          -30.9946278410       -8.3607218633       -5.8163085129  MEMB      256             0.0000000000
     31831       256  PMPE      H12S          -31.2301550043       -9.9885194834       -5.5065536461  MEMB      256             0.0000000000
     31832       256  PMPE      C213          -31.7771983925       -8.6608565623       -3.8381870807  MEMB      256             0.0000000000
     31833       256  PMPE      H13R          -30.6735427045       -8.7015146449       -3.7173044971  MEMB      256             0.0000000000
     31834       256  PMPE      H13S          -32.2083552991       -9.3523174749       -3.0830009302  MEMB      256             0.0000000000
     31835       256  PMPE      C214          -32.3340643017       -7.2581961319       -3.4234953677  MEMB      256             0.0000000000
     31836       256  PMPE      H14R          -31.8494204370       -6.4688480451       -4.0369853880  MEMB      256             0.0000000000
     31837       256  PMPE      H14S          -31.9645494518       -7.1106437842       -2.3861877252  MEMB      256             0.0000000000
     31838       256  PMPE      C215          -33.8567018930       -7.2776015934       -3.3373259024  MEMB      256             0.0000000000
     31839       256  PMPE      H15R          -34.2379741350       -7.5668752214       -4.3399593963  MEMB      256             0.0000000000
     31840       256  PMPE      H15S          -34.2597385656       -6.2488449394       -3.2209551240  MEMB      256             0.0000000000
     31841       256  PMPE      C216          -34.5183019195       -8.0617566311       -2.1458006005  MEMB      256             0.0000000000
     31842       256  PMPE      H16R          -34.0009130794       -7.8151173640       -1.1940674462  MEMB      256             0.0000000000
     31843       256  PMPE      H16S          -35.5994616087       -7.8105469168       -2.0977503527  MEMB      256             0.0000000000
     31844       256  PMPE      H16T          -34.4433928467       -9.1701206662       -2.1612649285  MEMB      256             0.0000000000
     31845       256  PMPE      C33           -36.2005740581       -6.5477102423      -10.3316594757  MEMB      256             0.0000000000
     31846       256  PMPE      H3X           -35.7510536468       -7.1648225859       -9.5245510709  MEMB      256             0.0000000000
     31847       256  PMPE      H3Y           -37.3057934467       -6.5558043107      -10.2187633649  MEMB      256             0.0000000000
     31848       256  PMPE      C34           -35.6879472050       -5.1487643747       -9.9039701947  MEMB      256             0.0000000000
     31849       256  PMPE      H4X           -36.0414102709       -5.0232605978       -8.8582013536  MEMB      256             0.0000000000
     31850       256  PMPE      H4Y           -36.1775433417       -4.2746338721      -10.3840880040  MEMB      256             0.0000000000
     31851       256  PMPE      C35           -34.2033125714       -4.9291887390       -9.9046099163  MEMB      256             0.0000000000
     31852       256  PMPE      H5X           -33.8070180571       -4.6425283949      -10.9021553741  MEMB      256             0.0000000000
     31853       256  PMPE      H5Y           -33.8050591262       -5.9597564002       -9.7877959347  MEMB      256             0.0000000000
     31854       256  PMPE      C36           -33.6719305373       -4.0017357085       -8.8135358644  MEMB      256             0.0000000000
     31855       256  PMPE      H6X           -34.3214192030       -3.9560684854       -7.9133135576  MEMB      256             0.0000000000
     31856       256  PMPE      H6Y           -33.7284488890       -2.9771302008       -9.2393416887  MEMB      256             0.0000000000
     31857       256  PMPE      C37           -32.2094509502       -4.3015839055       -8.3264098662  MEMB      256             0.0000000000
     31858       256  PMPE      H7X           -31.5302288080       -4.3259580404       -9.2052638044  MEMB      256             0.0000000000
     31859       256  PMPE      H7Y           -31.9889092656       -5.2304112340       -7.7581125313  MEMB      256             0.0000000000
     31860       256  PMPE      C38           -31.6926902694       -3.2761897429       -7.2662447400  MEMB      256             0.0000000000
     31861       256  PMPE      H8X           -31.9433118541       -2.2893570331       -7.7108467561  MEMB      256             0.0000000000
     31862       256  PMPE      H8Y           -30.5825908627       -3.3199779723       -7.2753339435  MEMB      256             0.0000000000
     31863       256  PMPE      C39           -32.3110378073       -3.3068663366       -5.8467786014  MEMB      256             0.0000000000
     31864       256  PMPE      H9X           -32.1522127053       -4.2845279559       -5.3435164740  MEMB      256             0.0000000000
     31865       256  PMPE      H9Y           -33.3715505967       -2.9765057134       -5.8690412377  MEMB      256             0.0000000000
     31866       256  PMPE      C310          -31.6521117355       -2.2527192241       -4.9388230939  MEMB      256             0.0000000000
     31867       256  PMPE      H10X          -31.6879842909       -1.2785358920       -5.4717397055  MEMB      256             0.0000000000
     31868       256  PMPE      H10Y          -30.5811953493       -2.5462741659       -4.9029800800  MEMB      256             0.0000000000
     31869       256  PMPE      C311          -32.3514256501       -2.1781870077       -3.6166828072  MEMB      256             0.0000000000
     31870       256  PMPE      H11X          -33.4255530430       -1.9150840635       -3.7232080699  MEMB      256             0.0000000000
     31871       256  PMPE      H11Y          -31.8284327295       -1.4465268434       -2.9643993781  MEMB      256             0.0000000000
     31872       256  PMPE      C312          -32.2791371422       -3.5510926389       -2.7766452268  MEMB      256             0.0000000000
     31873       256  PMPE      H12X          -31.2691077796       -4.0129901570       -2.8051478753  MEMB      256             0.0000000000
     31874       256  PMPE      H12Y          -33.0207996118       -4.2355050323       -3.2412286359  MEMB      256             0.0000000000
     31875       256  PMPE      C313          -32.5976663565       -3.3759601325       -1.3011083135  MEMB      256             0.0000000000
     31876       256  PMPE      H13X          -33.6478316605       -3.0239033230       -1.2143346653  MEMB      256             0.0000000000
     31877       256  PMPE      H13Y          -31.9490693558       -2.5484277087       -0.9421749374  MEMB      256             0.0000000000
     31878       256  PMPE      C314          -32.3241895071       -4.5737432371       -0.4138132971  MEMB      256             0.0000000000
     31879       256  PMPE      H14X          -31.2641027986       -4.8718936279       -0.2666983867  MEMB      256             0.0000000000
     31880       256  PMPE      H14Y          -32.8269756220       -5.4673483936       -0.8415954559  MEMB      256             0.0000000000
     31881       256  PMPE      C315          -33.1432254562       -4.3746755479        0.9526710424  MEMB      256             0.0000000000
     31882       256  PMPE      H15X          -34.1145531188       -3.8672095130        0.7701310348  MEMB      256             0.0000000000
     31883       256  PMPE      H15Y          -32.5439369689       -3.9021537376        1.7600733918  MEMB      256             0.0000000000
     31884       256  PMPE      C316          -33.5497078367       -5.7016030700        1.4652920415  MEMB      256             0.0000000000
     31885       256  PMPE      H16X          -34.2103098805       -5.5847028345        2.3508774833  MEMB      256             0.0000000000
     31886       256  PMPE      H16Y          -32.6661188098       -6.2708829571        1.8251698663  MEMB      256             0.0000000000
     31887       256  PMPE      H16Z          -34.1246977499       -6.3006916419        0.7271871182  MEMB      256             0.0000000000
     31888       257  OYPE      N              35.4813369002        3.6225863184      -19.5173161713  MEMB      257             0.0000000000
     31889       257  OYPE      HN1            36.1695239875        4.3517500265      -19.7935751063  MEMB      257             0.0000000000
     31890       257  OYPE      HN2            34.5585571400        4.0425924012      -19.2856436136  MEMB      257             0.0000000000
     31891       257  OYPE      HN3            35.7901757702        3.1449055375      -18.6466615049  MEMB      257             0.0000000000
     31892       257  OYPE      C12            35.3632460024        2.5849058835      -20.5621289080  MEMB      257             0.0000000000
     31893       257  OYPE      H12A           36.4005720533        2.3061932340      -20.8460217743  MEMB      257             0.0000000000
     31894       257  OYPE      H12B           34.8732453577        2.9985336689      -21.4693953964  MEMB      257             0.0000000000
     31895       257  OYPE      C11            34.6577868176        1.3147658460      -19.9496147100  MEMB      257             0.0000000000
     31896       257  OYPE      H11A           35.3554471137        0.7079206773      -19.3337168376  MEMB      257             0.0000000000
     31897       257  OYPE      H11B           34.2728321612        0.6326907917      -20.7375895247  MEMB      257             0.0000000000
     31898       257  OYPE      P              32.6299128403        0.7078896620      -18.4616215917  MEMB      257             0.0000000000
     31899       257  OYPE      O13            32.7759240152       -0.6895346777      -18.9261638781  MEMB      257             0.0000000000
     31900       257  OYPE      O14            31.2486273546        1.2166999640      -18.3543072854  MEMB      257             0.0000000000
     31901       257  OYPE      O11            33.3036203501        0.6742920091      -16.9551678217  MEMB      257             0.0000000000
     31902       257  OYPE      O12            33.5518657164        1.7768722785      -19.2736796375  MEMB      257             0.0000000000
     31903       257  OYPE      C1             33.3721135164        1.9441138533      -16.3537753761  MEMB      257             0.0000000000
     31904       257  OYPE      HA             32.3291592488        2.2543126524      -16.1294004529  MEMB      257             0.0000000000
     31905       257  OYPE      HB             33.8234594630        2.7415726556      -16.9820009255  MEMB      257             0.0000000000
     31906       257  OYPE      C2             34.0742819157        2.0252846565      -14.9532701446  MEMB      257             0.0000000000
     31907       257  OYPE      HS             35.1308930364        1.7340934491      -15.1352085884  MEMB      257             0.0000000000
     31908       257  OYPE      O21            33.5394995238        0.9818357486      -14.1420093443  MEMB      257             0.0000000000
     31909       257  OYPE      C21            34.2022990216        0.5917497943      -13.0936175653  MEMB      257             0.0000000000
     31910       257  OYPE      O22            35.3806272199        0.8268141097      -12.8431826065  MEMB      257             0.0000000000
     31911       257  OYPE      C22            33.3268997906       -0.2814510190      -12.2317654635  MEMB      257             0.0000000000
     31912       257  OYPE      H2R            33.3241490629       -1.3558928150      -12.5144102546  MEMB      257             0.0000000000
     31913       257  OYPE      H2S            32.3333345421        0.2156819778      -12.2289643627  MEMB      257             0.0000000000
     31914       257  OYPE      C3             33.9624988589        3.3812951922      -14.1980718691  MEMB      257             0.0000000000
     31915       257  OYPE      HX             34.3316374120        4.1810544518      -14.8751562384  MEMB      257             0.0000000000
     31916       257  OYPE      HY             34.5016532245        3.2972759246      -13.2303043064  MEMB      257             0.0000000000
     31917       257  OYPE      O31            32.6025469052        3.5998976458      -13.9112532516  MEMB      257             0.0000000000
     31918       257  OYPE      C31            32.2260640379        3.5384815192      -12.6438082839  MEMB      257             0.0000000000
     31919       257  OYPE      O32            32.9087651099        3.4163211652      -11.6581383334  MEMB      257             0.0000000000
     31920       257  OYPE      C32            30.6814327427        3.7192425462      -12.6468971388  MEMB      257             0.0000000000
     31921       257  OYPE      H2X            30.5479264637        4.7378003307      -12.2237688556  MEMB      257             0.0000000000
     31922       257  OYPE      H2Y            30.2841764187        3.6521646607      -13.6822757985  MEMB      257             0.0000000000
     31923       257  OYPE      C23            33.8075648279       -0.2518144560      -10.7694908920  MEMB      257             0.0000000000
     31924       257  OYPE      H3R            33.7044770482        0.8010131214      -10.4300084221  MEMB      257             0.0000000000
     31925       257  OYPE      H3S            34.8890153863       -0.5031317229      -10.7291763776  MEMB      257             0.0000000000
     31926       257  OYPE      C24            33.0551818425       -1.1384033694       -9.8045196995  MEMB      257             0.0000000000
     31927       257  OYPE      H4R            33.7499393180       -1.6777880572       -9.1257728396  MEMB      257             0.0000000000
     31928       257  OYPE      H4S            32.4533596095       -1.8799412665      -10.3721927550  MEMB      257             0.0000000000
     31929       257  OYPE      C25            32.1551215657       -0.2603384715       -8.9334705770  MEMB      257             0.0000000000
     31930       257  OYPE      H5R            31.6413693079        0.5102356939       -9.5471439926  MEMB      257             0.0000000000
     31931       257  OYPE      H5S            32.7986352911        0.3583096536       -8.2720431008  MEMB      257             0.0000000000
     31932       257  OYPE      C26            31.0513306547       -0.9983435894       -8.1884133738  MEMB      257             0.0000000000
     31933       257  OYPE      H6R            30.7977830165       -1.9669048958       -8.6699973468  MEMB      257             0.0000000000
     31934       257  OYPE      H6S            30.1875426258       -0.3231243474       -8.3680523292  MEMB      257             0.0000000000
     31935       257  OYPE      C27            31.2559358486       -1.4842164663       -6.7747631849  MEMB      257             0.0000000000
     31936       257  OYPE      H7R            32.2811472110       -1.9123081511       -6.7748381262  MEMB      257             0.0000000000
     31937       257  OYPE      H7S            30.4946084169       -2.2317731683       -6.4651502467  MEMB      257             0.0000000000
     31938       257  OYPE      C28            31.2496290802       -0.4175214056       -5.5946650008  MEMB      257             0.0000000000
     31939       257  OYPE      H8R            31.9673666720        0.3092992166       -6.0315920088  MEMB      257             0.0000000000
     31940       257  OYPE      H8S            31.6857519859       -0.9852723922       -4.7450909435  MEMB      257             0.0000000000
     31941       257  OYPE      C29            29.9187477901        0.2281242338       -5.2293821481  MEMB      257             0.0000000000
     31942       257  OYPE      H9R            29.4143994255        0.8256281010       -6.0030884574  MEMB      257             0.0000000000
     31943       257  OYPE      C210           29.3246487432        0.1964894616       -4.0331151842  MEMB      257             0.0000000000
     31944       257  OYPE      H10R           28.3540754693        0.7141590320       -4.0355139792  MEMB      257             0.0000000000
     31945       257  OYPE      C211           29.7769237918       -0.4078198412       -2.7079554574  MEMB      257             0.0000000000
     31946       257  OYPE      H11R           30.8126860908       -0.7946223365       -2.8170488252  MEMB      257             0.0000000000
     31947       257  OYPE      H11S           29.1438499149       -1.1709030675       -2.2067144835  MEMB      257             0.0000000000
     31948       257  OYPE      C212           29.8978249216        0.7021901242       -1.6950426035  MEMB      257             0.0000000000
     31949       257  OYPE      H12R           28.8736842844        1.0921372858       -1.5122908337  MEMB      257             0.0000000000
     31950       257  OYPE      H12S           30.3998779817        1.6331973566       -2.0348800232  MEMB      257             0.0000000000
     31951       257  OYPE      C213           30.4768084213        0.2223893571       -0.3625084655  MEMB      257             0.0000000000
     31952       257  OYPE      H13R           31.5267140178       -0.1191213428       -0.4865636531  MEMB      257             0.0000000000
     31953       257  OYPE      H13S           29.8263731722       -0.6379066724       -0.0957772302  MEMB      257             0.0000000000
     31954       257  OYPE      C214           30.5810614244        1.3197869097        0.7717937900  MEMB      257             0.0000000000
     31955       257  OYPE      H14R           29.5528362622        1.7338342575        0.8468844074  MEMB      257             0.0000000000
     31956       257  OYPE      H14S           31.3465552406        1.9934690215        0.3307798735  MEMB      257             0.0000000000
     31957       257  OYPE      C215           31.0858569250        0.6469259193        2.0439340199  MEMB      257             0.0000000000
     31958       257  OYPE      H15R           31.9523141424        0.0154329651        1.7527491132  MEMB      257             0.0000000000
     31959       257  OYPE      H15S           30.2214456220        0.0182922169        2.3471413084  MEMB      257             0.0000000000
     31960       257  OYPE      C216           31.5950614855        1.6541672176        3.0805275442  MEMB      257             0.0000000000
     31961       257  OYPE      H16R           31.8342989106        1.0630973512        3.9903210746  MEMB      257             0.0000000000
     31962       257  OYPE      H16S           30.8361744590        2.4443511132        3.2649752913  MEMB      257             0.0000000000
     31963       257  OYPE      H16T           32.5724665559        2.0797396763        2.7676570960  MEMB      257             0.0000000000
     31964       257  OYPE      C33            29.9793977147        2.6852634071      -11.8126836890  MEMB      257             0.0000000000
     31965       257  OYPE      H3X            30.2534051967        1.6755256937      -12.1864089222  MEMB      257             0.0000000000
     31966       257  OYPE      H3Y            28.9210778584        2.9844398220      -11.9700794524  MEMB      257             0.0000000000
     31967       257  OYPE      C34            29.9971064453        2.7951913463      -10.2734843029  MEMB      257             0.0000000000
     31968       257  OYPE      H4X            29.3732998759        2.0371975130       -9.7532614378  MEMB      257             0.0000000000
     31969       257  OYPE      H4Y            31.0703945777        2.6329422527      -10.0367374628  MEMB      257             0.0000000000
     31970       257  OYPE      C35            29.6332872070        4.2034929737       -9.8521048297  MEMB      257             0.0000000000
     31971       257  OYPE      H5X            28.5806116847        4.4453969217      -10.1122527138  MEMB      257             0.0000000000
     31972       257  OYPE      H5Y            30.2480322217        5.0150693872      -10.2968000918  MEMB      257             0.0000000000
     31973       257  OYPE      C36            29.6207692823        4.2756319761       -8.3063905133  MEMB      257             0.0000000000
     31974       257  OYPE      H6X            29.0629344234        5.1720352714       -7.9605537998  MEMB      257             0.0000000000
     31975       257  OYPE      H6Y            28.9844286626        3.4176035718       -8.0011378673  MEMB      257             0.0000000000
     31976       257  OYPE      C37            31.0103585259        4.3124656576       -7.6913986440  MEMB      257             0.0000000000
     31977       257  OYPE      H7X            31.6374074922        3.4574141031       -8.0230878226  MEMB      257             0.0000000000
     31978       257  OYPE      H7Y            31.6117090204        5.1148718636       -8.1697745527  MEMB      257             0.0000000000
     31979       257  OYPE      C38            31.0401670149        4.5586130382       -6.2202458003  MEMB      257             0.0000000000
     31980       257  OYPE      H8X            32.1034507864        4.8696179659       -6.1364336604  MEMB      257             0.0000000000
     31981       257  OYPE      H8Y            30.2825048212        5.3316749865       -5.9699580147  MEMB      257             0.0000000000
     31982       257  OYPE      C39            30.8365910777        3.3932916756       -5.3145412934  MEMB      257             0.0000000000
     31983       257  OYPE      H9X            29.8137432572        2.9898006289       -5.2832795129  MEMB      257             0.0000000000
     31984       257  OYPE      C310           31.8329753595        2.9545241127       -4.4553123206  MEMB      257             0.0000000000
     31985       257  OYPE      H10X           31.6482582978        2.0559162313       -3.8483663590  MEMB      257             0.0000000000
     31986       257  OYPE      C311           33.2149146897        3.5022145232       -4.2834481136  MEMB      257             0.0000000000
     31987       257  OYPE      H11X           33.6115245983        3.8793949121       -5.2502755191  MEMB      257             0.0000000000
     31988       257  OYPE      H11Y           33.1737242281        4.3057293379       -3.5172962658  MEMB      257             0.0000000000
     31989       257  OYPE      C312           34.2044180109        2.4357856717       -3.7109851066  MEMB      257             0.0000000000
     31990       257  OYPE      H12X           35.2045157443        2.9176429744       -3.6669522627  MEMB      257             0.0000000000
     31991       257  OYPE      H12Y           34.3278314733        1.6348021601       -4.4709296297  MEMB      257             0.0000000000
     31992       257  OYPE      C313           33.6750045224        1.9267467825       -2.3464298244  MEMB      257             0.0000000000
     31993       257  OYPE      H13X           33.7485413632        2.8033095729       -1.6677906328  MEMB      257             0.0000000000
     31994       257  OYPE      H13Y           32.6069512152        1.6221205881       -2.3744659713  MEMB      257             0.0000000000
     31995       257  OYPE      C314           34.6112931316        0.8739766735       -1.7297447427  MEMB      257             0.0000000000
     31996       257  OYPE      H14X           34.3063170525        0.8001687020       -0.6639763225  MEMB      257             0.0000000000
     31997       257  OYPE      H14Y           35.6736334885        1.1934734455       -1.6691145967  MEMB      257             0.0000000000
     31998       257  OYPE      C315           34.3841003046       -0.3972762266       -2.4544527813  MEMB      257             0.0000000000
     31999       257  OYPE      H15X           34.4642920687       -0.2171849563       -3.5478227782  MEMB      257             0.0000000000
     32000       257  OYPE      H15Y           33.3780350518       -0.8189582413       -2.2438872304  MEMB      257             0.0000000000
     32001       257  OYPE      C316           35.4097844816       -1.4820861934       -2.1156065159  MEMB      257             0.0000000000
     32002       257  OYPE      H16X           35.4507708727       -1.7352393622       -1.0346102863  MEMB      257             0.0000000000
     32003       257  OYPE      H16Y           36.4166145651       -1.1691461671       -2.4658673241  MEMB      257             0.0000000000
     32004       257  OYPE      C317           35.0363696231       -2.8658459030       -2.7597115626  MEMB      257             0.0000000000
     32005       257  OYPE      H17X           35.9677117270       -3.4591049775       -2.8820507474  MEMB      257             0.0000000000
     32006       257  OYPE      H17Y           34.8728666593       -2.9187831298       -3.8573385734  MEMB      257             0.0000000000
     32007       257  OYPE      C318           34.0152192162       -3.7193094444       -1.9257094053  MEMB      257             0.0000000000
     32008       257  OYPE      H18X           34.2840173191       -3.7517219839       -0.8482042105  MEMB      257             0.0000000000
     32009       257  OYPE      H18Y           32.9708124440       -3.3427849494       -1.9677222836  MEMB      257             0.0000000000
     32010       257  OYPE      H18Z           34.0015863290       -4.7509383031       -2.3378710725  MEMB      257             0.0000000000
     32011       258  PMPE      N             -19.8664533640       25.8137189875      -17.0881790096  MEMB      258             0.0000000000
     32012       258  PMPE      HN1           -20.1576101375       26.0366611287      -16.1149756473  MEMB      258             0.0000000000
     32013       258  PMPE      HN2           -19.6686453832       24.7927441092      -17.0972570633  MEMB      258             0.0000000000
     32014       258  PMPE      HN3           -18.9682110668       26.2763712594      -17.3345804417  MEMB      258             0.0000000000
     32015       258  PMPE      C12           -20.8355488868       26.1116782656      -18.1091296347  MEMB      258             0.0000000000
     32016       258  PMPE      H12A          -21.6434720266       25.3835828832      -17.8822856495  MEMB      258             0.0000000000
     32017       258  PMPE      H12B          -20.4655803777       25.7958723758      -19.1079844458  MEMB      258             0.0000000000
     32018       258  PMPE      C11           -20.9746680145       27.6305783215      -18.1774665325  MEMB      258             0.0000000000
     32019       258  PMPE      H11A          -21.4703414881       28.0523824512      -17.2770721378  MEMB      258             0.0000000000
     32020       258  PMPE      H11B          -21.6451355296       27.7562902508      -19.0543876689  MEMB      258             0.0000000000
     32021       258  PMPE      P             -18.9267648450       28.2648567564      -19.7957359397  MEMB      258             0.0000000000
     32022       258  PMPE      O13           -19.8000609899       28.4976261706      -20.9540978151  MEMB      258             0.0000000000
     32023       258  PMPE      O14           -18.1047733346       27.0332669535      -19.7427959481  MEMB      258             0.0000000000
     32024       258  PMPE      O11           -17.9646765480       29.5330818846      -19.6340912922  MEMB      258             0.0000000000
     32025       258  PMPE      O12           -19.7809252163       28.4006502643      -18.4985037950  MEMB      258             0.0000000000
     32026       258  PMPE      C1            -18.5505590017       30.5982581236      -18.7878635583  MEMB      258             0.0000000000
     32027       258  PMPE      HA            -19.6483817654       30.5835159717      -18.6178963939  MEMB      258             0.0000000000
     32028       258  PMPE      HB            -18.3791725895       31.5766900722      -19.2854762068  MEMB      258             0.0000000000
     32029       258  PMPE      C2            -17.6900251834       30.7362144401      -17.4829897630  MEMB      258             0.0000000000
     32030       258  PMPE      HS            -16.6749771626       31.1247633259      -17.7132687440  MEMB      258             0.0000000000
     32031       258  PMPE      O21           -17.5185438206       29.3802314988      -16.9713312345  MEMB      258             0.0000000000
     32032       258  PMPE      C21           -16.5601267874       29.1857331680      -16.0671072893  MEMB      258             0.0000000000
     32033       258  PMPE      O22           -15.7797872535       29.9918796167      -15.6401191510  MEMB      258             0.0000000000
     32034       258  PMPE      C22           -16.3970787170       27.6557420698      -15.8840878524  MEMB      258             0.0000000000
     32035       258  PMPE      H2R           -15.5216553080       27.4313263067      -16.5303015992  MEMB      258             0.0000000000
     32036       258  PMPE      H2S           -17.3104178538       27.0907295422      -16.1685057346  MEMB      258             0.0000000000
     32037       258  PMPE      C3            -18.3724776152       31.6765550113      -16.4246495334  MEMB      258             0.0000000000
     32038       258  PMPE      HX            -18.2707067362       32.6404819117      -16.9676127604  MEMB      258             0.0000000000
     32039       258  PMPE      HY            -17.8113000724       31.7125454429      -15.4664713448  MEMB      258             0.0000000000
     32040       258  PMPE      O31           -19.8098807746       31.3808669307      -16.1887821146  MEMB      258             0.0000000000
     32041       258  PMPE      C31           -20.1759934187       30.3762739566      -15.4249289938  MEMB      258             0.0000000000
     32042       258  PMPE      O32           -19.4607504055       29.6416319963      -14.7632976385  MEMB      258             0.0000000000
     32043       258  PMPE      C32           -21.6794879555       30.3152405835      -15.3807799993  MEMB      258             0.0000000000
     32044       258  PMPE      H2X           -21.9934304963       30.4055131108      -16.4426706815  MEMB      258             0.0000000000
     32045       258  PMPE      H2Y           -22.2236594136       31.1134809266      -14.8321358758  MEMB      258             0.0000000000
     32046       258  PMPE      C23           -16.0120789724       27.3602053559      -14.4329766769  MEMB      258             0.0000000000
     32047       258  PMPE      H3R           -15.2827419653       28.0967077695      -14.0330359673  MEMB      258             0.0000000000
     32048       258  PMPE      H3S           -15.5466007055       26.3514188329      -14.4321596050  MEMB      258             0.0000000000
     32049       258  PMPE      C24           -17.2509198043       27.3056410355      -13.4163219738  MEMB      258             0.0000000000
     32050       258  PMPE      H4R           -17.8992125131       26.4274809192      -13.6233783879  MEMB      258             0.0000000000
     32051       258  PMPE      H4S           -17.9307591911       28.1681628241      -13.5842370982  MEMB      258             0.0000000000
     32052       258  PMPE      C25           -16.8015864861       27.4594887971      -11.9596999000  MEMB      258             0.0000000000
     32053       258  PMPE      H5R           -16.1948407580       28.3885519230      -11.9047252638  MEMB      258             0.0000000000
     32054       258  PMPE      H5S           -16.1366984183       26.5735163275      -11.8742753394  MEMB      258             0.0000000000
     32055       258  PMPE      C26           -18.0568773904       27.4280446393      -11.0171218296  MEMB      258             0.0000000000
     32056       258  PMPE      H6R           -18.4393015809       26.4050701725      -10.8131705794  MEMB      258             0.0000000000
     32057       258  PMPE      H6S           -18.9672482703       27.9136818517      -11.4290716168  MEMB      258             0.0000000000
     32058       258  PMPE      C27           -17.9502208593       28.0158732463       -9.6181733810  MEMB      258             0.0000000000
     32059       258  PMPE      H7R           -18.9585965624       28.0188741910       -9.1518145269  MEMB      258             0.0000000000
     32060       258  PMPE      H7S           -17.7694419482       29.0961868210       -9.8040835158  MEMB      258             0.0000000000
     32061       258  PMPE      C28           -16.7856822303       27.4649203479       -8.7151494686  MEMB      258             0.0000000000
     32062       258  PMPE      H8R           -15.7463431229       27.6078858799       -9.0807386172  MEMB      258             0.0000000000
     32063       258  PMPE      H8S           -16.9679894198       26.3771832592       -8.5813087495  MEMB      258             0.0000000000
     32064       258  PMPE      C29           -16.9377193014       28.2295211244       -7.3711917251  MEMB      258             0.0000000000
     32065       258  PMPE      H9R           -17.9730657778       28.4443945378       -7.0302983695  MEMB      258             0.0000000000
     32066       258  PMPE      C217          -15.8794065747       29.2760114340       -7.2019092944  MEMB      258             0.0000000000
     32067       258  PMPE      H17R          -16.2606764506       30.1851452909       -6.7535813948  MEMB      258             0.0000000000
     32068       258  PMPE      H17S          -14.9996258956       29.3354246084       -7.8306739360  MEMB      258             0.0000000000
     32069       258  PMPE      C210          -15.8915163784       28.0226995550       -6.3335717581  MEMB      258             0.0000000000
     32070       258  PMPE      H10R          -16.1491089354       28.2446573179       -5.2758851956  MEMB      258             0.0000000000
     32071       258  PMPE      C211          -14.6346771767       27.1475046692       -6.6667313146  MEMB      258             0.0000000000
     32072       258  PMPE      H11R          -13.9710670859       27.8174152327       -7.2542368504  MEMB      258             0.0000000000
     32073       258  PMPE      H11S          -14.9042943902       26.2864811171       -7.3150103271  MEMB      258             0.0000000000
     32074       258  PMPE      C212          -13.9389301408       26.6281213352       -5.4559150021  MEMB      258             0.0000000000
     32075       258  PMPE      H12R          -13.5511584288       27.5220515345       -4.9222085337  MEMB      258             0.0000000000
     32076       258  PMPE      H12S          -13.0439397993       26.0093062707       -5.6803731866  MEMB      258             0.0000000000
     32077       258  PMPE      C213          -14.8224507419       25.6263210810       -4.8173382125  MEMB      258             0.0000000000
     32078       258  PMPE      H13R          -14.6336590143       24.6866524346       -5.3792111238  MEMB      258             0.0000000000
     32079       258  PMPE      H13S          -15.8789696209       25.9118932526       -5.0084856468  MEMB      258             0.0000000000
     32080       258  PMPE      C214          -14.6091259278       25.6072274023       -3.2651612864  MEMB      258             0.0000000000
     32081       258  PMPE      H14R          -14.6837845799       26.6461986804       -2.8787846009  MEMB      258             0.0000000000
     32082       258  PMPE      H14S          -13.5746985147       25.2460657775       -3.0811949892  MEMB      258             0.0000000000
     32083       258  PMPE      C215          -15.6570876204       24.7476553512       -2.4952447196  MEMB      258             0.0000000000
     32084       258  PMPE      H15R          -16.6337506754       25.2235819678       -2.7275056172  MEMB      258             0.0000000000
     32085       258  PMPE      H15S          -15.4668579866       24.7072247017       -1.4013982947  MEMB      258             0.0000000000
     32086       258  PMPE      C216          -15.6968632259       23.2827847350       -3.0484327141  MEMB      258             0.0000000000
     32087       258  PMPE      H16R          -14.8081416345       22.6404078499       -2.8699729823  MEMB      258             0.0000000000
     32088       258  PMPE      H16S          -16.4580091213       22.6800453140       -2.5083549718  MEMB      258             0.0000000000
     32089       258  PMPE      H16T          -16.0290134736       23.3577494567       -4.1059653928  MEMB      258             0.0000000000
     32090       258  PMPE      C33           -22.1221200947       28.9616560468      -14.7907990291  MEMB      258             0.0000000000
     32091       258  PMPE      H3X           -21.5387823874       28.0629434404      -15.0846592720  MEMB      258             0.0000000000
     32092       258  PMPE      H3Y           -23.2050263659       28.7542143964      -14.9271916500  MEMB      258             0.0000000000
     32093       258  PMPE      C34           -21.9638650505       28.9180585702      -13.1789609165  MEMB      258             0.0000000000
     32094       258  PMPE      H4X           -22.1876817971       29.9551077913      -12.8491793612  MEMB      258             0.0000000000
     32095       258  PMPE      H4Y           -20.8995581259       28.7349596989      -12.9181035506  MEMB      258             0.0000000000
     32096       258  PMPE      C35           -22.8503999118       28.0750735015      -12.2028822192  MEMB      258             0.0000000000
     32097       258  PMPE      H5X           -22.8910510235       27.0625345141      -12.6583305587  MEMB      258             0.0000000000
     32098       258  PMPE      H5Y           -23.8699168724       28.5052911058      -12.3019725513  MEMB      258             0.0000000000
     32099       258  PMPE      C36           -22.3089575853       28.0909657185      -10.7774047728  MEMB      258             0.0000000000
     32100       258  PMPE      H6X           -22.2504930826       29.1246509575      -10.3744183008  MEMB      258             0.0000000000
     32101       258  PMPE      H6Y           -21.2747018237       27.6852241573      -10.7742979473  MEMB      258             0.0000000000
     32102       258  PMPE      C37           -23.0776187781       27.2801781407       -9.6584009107  MEMB      258             0.0000000000
     32103       258  PMPE      H7X           -23.0177270072       26.2051560867       -9.9323742353  MEMB      258             0.0000000000
     32104       258  PMPE      H7Y           -24.1525955605       27.5595924932       -9.6843428269  MEMB      258             0.0000000000
     32105       258  PMPE      C38           -22.6621144357       27.3894347715       -8.2148631147  MEMB      258             0.0000000000
     32106       258  PMPE      H8X           -23.5258325269       27.0429887319       -7.6079957394  MEMB      258             0.0000000000
     32107       258  PMPE      H8Y           -22.4427807577       28.4492127882       -7.9636974576  MEMB      258             0.0000000000
     32108       258  PMPE      C39           -21.5479133885       26.4609420615       -7.8352890328  MEMB      258             0.0000000000
     32109       258  PMPE      H9X           -20.6973463499       26.5869517522       -8.5388355477  MEMB      258             0.0000000000
     32110       258  PMPE      H9Y           -21.9330493334       25.4198356028       -7.7895884879  MEMB      258             0.0000000000
     32111       258  PMPE      C310          -20.9957784971       26.8729334276       -6.4695177745  MEMB      258             0.0000000000
     32112       258  PMPE      H10X          -20.6064383478       27.9131389102       -6.4961231724  MEMB      258             0.0000000000
     32113       258  PMPE      H10Y          -20.1267109353       26.1875660014       -6.3730087018  MEMB      258             0.0000000000
     32114       258  PMPE      C311          -21.8123627586       26.5183583351       -5.2107484948  MEMB      258             0.0000000000
     32115       258  PMPE      H11X          -21.9302213536       25.4285215268       -5.0299567201  MEMB      258             0.0000000000
     32116       258  PMPE      H11Y          -22.8393306943       26.8711212252       -5.4457294793  MEMB      258             0.0000000000
     32117       258  PMPE      C312          -21.2237176329       27.1405094515       -3.9496332714  MEMB      258             0.0000000000
     32118       258  PMPE      H12X          -21.4883773196       28.2103672898       -4.0899193128  MEMB      258             0.0000000000
     32119       258  PMPE      H12Y          -20.1220197703       27.0034083282       -3.9073706351  MEMB      258             0.0000000000
     32120       258  PMPE      C313          -21.8849791302       26.4628716137       -2.6634246594  MEMB      258             0.0000000000
     32121       258  PMPE      H13X          -21.8405496053       25.3650715239       -2.8282935808  MEMB      258             0.0000000000
     32122       258  PMPE      H13Y          -22.9071288146       26.8981446599       -2.6551526175  MEMB      258             0.0000000000
     32123       258  PMPE      C314          -21.2198438781       26.8767374329       -1.3398984752  MEMB      258             0.0000000000
     32124       258  PMPE      H14X          -21.8923133324       26.5015639320       -0.5390536778  MEMB      258             0.0000000000
     32125       258  PMPE      H14Y          -21.1287554357       27.9784425678       -1.2291293775  MEMB      258             0.0000000000
     32126       258  PMPE      C315          -19.8871116636       26.2206625704       -1.0503060294  MEMB      258             0.0000000000
     32127       258  PMPE      H15X          -19.2813495922       26.6670694544       -1.8676767798  MEMB      258             0.0000000000
     32128       258  PMPE      H15Y          -19.9626679185       25.1123392110       -1.0350912649  MEMB      258             0.0000000000
     32129       258  PMPE      C316          -19.2808522961       26.7465575026        0.2819411193  MEMB      258             0.0000000000
     32130       258  PMPE      H16X          -18.4151413135       26.0979731979        0.5353246333  MEMB      258             0.0000000000
     32131       258  PMPE      H16Y          -19.9672132741       26.6199296148        1.1463449300  MEMB      258             0.0000000000
     32132       258  PMPE      H16Z          -19.0127770022       27.8225893316        0.2140281207  MEMB      258             0.0000000000
     32133       259  PMPE      N             -12.7039490157      -29.1007052449      -19.5993881892  MEMB      259             0.0000000000
     32134       259  PMPE      HN1           -11.6860703260      -29.1619291931      -19.3949994748  MEMB      259             0.0000000000
     32135       259  PMPE      HN2           -12.9132658121      -28.2894417204      -20.2155359011  MEMB      259             0.0000000000
     32136       259  PMPE      HN3           -13.2519570332      -28.9789600646      -18.7239081569  MEMB      259             0.0000000000
     32137       259  PMPE      C12           -13.0212752870      -30.3319823140      -20.4706756871  MEMB      259             0.0000000000
     32138       259  PMPE      H12A          -12.2387143700      -30.3281461945      -21.2592851174  MEMB      259             0.0000000000
     32139       259  PMPE      H12B          -14.0525836793      -30.1369149683      -20.8349183160  MEMB      259             0.0000000000
     32140       259  PMPE      C11           -12.9051726765      -31.7222841084      -19.7388495968  MEMB      259             0.0000000000
     32141       259  PMPE      H11A          -11.8837884436      -31.7816403322      -19.3057537890  MEMB      259             0.0000000000
     32142       259  PMPE      H11B          -13.0546177726      -32.6178077957      -20.3791812007  MEMB      259             0.0000000000
     32143       259  PMPE      P             -15.0742841537      -32.3870120003      -18.4388189206  MEMB      259             0.0000000000
     32144       259  PMPE      O13           -15.8012373068      -32.4251216520      -19.7026620087  MEMB      259             0.0000000000
     32145       259  PMPE      O14           -15.7907357909      -31.9842995031      -17.2484277863  MEMB      259             0.0000000000
     32146       259  PMPE      O11           -14.3596552935      -33.7798953062      -18.1849413651  MEMB      259             0.0000000000
     32147       259  PMPE      O12           -13.8158808723      -31.5639094478      -18.6162364429  MEMB      259             0.0000000000
     32148       259  PMPE      C1            -13.3611175067      -33.9613926638      -17.1988401897  MEMB      259             0.0000000000
     32149       259  PMPE      HA            -12.9377783008      -33.0201093424      -16.7876339667  MEMB      259             0.0000000000
     32150       259  PMPE      HB            -12.4795903039      -34.4261589705      -17.6899848217  MEMB      259             0.0000000000
     32151       259  PMPE      C2            -13.8228683536      -34.8208998992      -15.9620731798  MEMB      259             0.0000000000
     32152       259  PMPE      HS            -14.0892562789      -35.8380182897      -16.3210007550  MEMB      259             0.0000000000
     32153       259  PMPE      O21           -14.9994837807      -34.2268847059      -15.3460362118  MEMB      259             0.0000000000
     32154       259  PMPE      C21           -15.6673789815      -35.0123463109      -14.5302375142  MEMB      259             0.0000000000
     32155       259  PMPE      O22           -15.4601160282      -36.1785585531      -14.3222638222  MEMB      259             0.0000000000
     32156       259  PMPE      C22           -16.5776400433      -34.1125310101      -13.6702822608  MEMB      259             0.0000000000
     32157       259  PMPE      H2R           -17.3205314547      -34.8185247233      -13.2413220515  MEMB      259             0.0000000000
     32158       259  PMPE      H2S           -17.1167512996      -33.4341700546      -14.3656283413  MEMB      259             0.0000000000
     32159       259  PMPE      C3            -12.6361230106      -34.8906397310      -14.9214807359  MEMB      259             0.0000000000
     32160       259  PMPE      HX            -11.7516233054      -35.1586879909      -15.5380285615  MEMB      259             0.0000000000
     32161       259  PMPE      HY            -12.8999885194      -35.6128562018      -14.1195462252  MEMB      259             0.0000000000
     32162       259  PMPE      O31           -12.4607367270      -33.6215071866      -14.4369772839  MEMB      259             0.0000000000
     32163       259  PMPE      C31           -11.2530955810      -32.9491787648      -14.4857708168  MEMB      259             0.0000000000
     32164       259  PMPE      O32           -10.1440452120      -33.4258581432      -14.6603666573  MEMB      259             0.0000000000
     32165       259  PMPE      C32           -11.4513854295      -31.5260080695      -14.1110455749  MEMB      259             0.0000000000
     32166       259  PMPE      H2X           -12.1028845592      -30.9255255439      -14.7813369902  MEMB      259             0.0000000000
     32167       259  PMPE      H2Y           -10.4558400843      -31.0381469380      -14.0389209078  MEMB      259             0.0000000000
     32168       259  PMPE      C23           -15.7125672842      -33.4130248271      -12.6160679922  MEMB      259             0.0000000000
     32169       259  PMPE      H3R           -16.2729017453      -32.8628226980      -11.8301772056  MEMB      259             0.0000000000
     32170       259  PMPE      H3S           -15.1235708354      -32.6786918029      -13.2061179512  MEMB      259             0.0000000000
     32171       259  PMPE      C24           -14.7698055987      -34.2582777859      -11.6109728160  MEMB      259             0.0000000000
     32172       259  PMPE      H4R           -14.0725878614      -33.7517380957      -10.9098128357  MEMB      259             0.0000000000
     32173       259  PMPE      H4S           -14.0519845288      -34.8819798000      -12.1854728617  MEMB      259             0.0000000000
     32174       259  PMPE      C25           -15.6537556127      -35.1960556014      -10.6553504940  MEMB      259             0.0000000000
     32175       259  PMPE      H5R           -16.1920346923      -35.8862049497      -11.3396536095  MEMB      259             0.0000000000
     32176       259  PMPE      H5S           -16.4648295686      -34.5980225297      -10.1875512085  MEMB      259             0.0000000000
     32177       259  PMPE      C26           -14.7044872089      -36.0062818857       -9.6587904528  MEMB      259             0.0000000000
     32178       259  PMPE      H6R           -13.9493553664      -36.5186658451      -10.2924768925  MEMB      259             0.0000000000
     32179       259  PMPE      H6S           -15.3478853616      -36.8362313410       -9.2961010410  MEMB      259             0.0000000000
     32180       259  PMPE      C27           -14.0592070776      -35.2938840267       -8.4620883957  MEMB      259             0.0000000000
     32181       259  PMPE      H7R           -14.0651074459      -34.2492637136       -8.8403145197  MEMB      259             0.0000000000
     32182       259  PMPE      H7S           -12.9850253289      -35.5125120132       -8.2813771023  MEMB      259             0.0000000000
     32183       259  PMPE      C28           -14.8839170035      -35.3401532246       -7.1871417193  MEMB      259             0.0000000000
     32184       259  PMPE      H8R           -14.6363367426      -36.3161700355       -6.7176564513  MEMB      259             0.0000000000
     32185       259  PMPE      H8S           -15.9619813953      -35.3097979874       -7.4539312603  MEMB      259             0.0000000000
     32186       259  PMPE      C29           -14.5662605513      -34.1531271456       -6.2545966198  MEMB      259             0.0000000000
     32187       259  PMPE      H9R           -14.1953717251      -33.2402494777       -6.7678381431  MEMB      259             0.0000000000
     32188       259  PMPE      C217          -13.7014051008      -34.3651786100       -5.0741646061  MEMB      259             0.0000000000
     32189       259  PMPE      H17R          -13.1107272650      -33.4886801912       -4.8380732136  MEMB      259             0.0000000000
     32190       259  PMPE      H17S          -13.4095576717      -35.3719841934       -4.8020308371  MEMB      259             0.0000000000
     32191       259  PMPE      C210          -15.1712572290      -34.1741684134       -4.8883811411  MEMB      259             0.0000000000
     32192       259  PMPE      H10R          -15.5215487066      -33.1807130597       -4.5353035296  MEMB      259             0.0000000000
     32193       259  PMPE      C211          -15.9702940962      -35.4279469394       -4.5155197358  MEMB      259             0.0000000000
     32194       259  PMPE      H11R          -15.3766206872      -36.3250970540       -4.7929992324  MEMB      259             0.0000000000
     32195       259  PMPE      H11S          -16.7764957909      -35.4011673441       -5.2794847361  MEMB      259             0.0000000000
     32196       259  PMPE      C212          -16.5662156125      -35.4571245518       -3.0740700422  MEMB      259             0.0000000000
     32197       259  PMPE      H12R          -15.6751527980      -35.6264478645       -2.4324649339  MEMB      259             0.0000000000
     32198       259  PMPE      H12S          -17.2299836652      -36.3304632093       -2.8979660441  MEMB      259             0.0000000000
     32199       259  PMPE      C213          -17.4335670586      -34.2742139192       -2.6257037714  MEMB      259             0.0000000000
     32200       259  PMPE      H13R          -16.8439148254      -33.3766347233       -2.9102798806  MEMB      259             0.0000000000
     32201       259  PMPE      H13S          -17.6841440662      -34.2835063381       -1.5433708307  MEMB      259             0.0000000000
     32202       259  PMPE      C214          -18.7802806889      -34.1557284284       -3.4341525856  MEMB      259             0.0000000000
     32203       259  PMPE      H14R          -19.3640840329      -35.0599850735       -3.1588067197  MEMB      259             0.0000000000
     32204       259  PMPE      H14S          -18.4564619292      -34.2570114354       -4.4920774606  MEMB      259             0.0000000000
     32205       259  PMPE      C215          -19.6644177763      -32.9415565895       -3.0983180090  MEMB      259             0.0000000000
     32206       259  PMPE      H15R          -20.4219352280      -32.7162559551       -3.8791694381  MEMB      259             0.0000000000
     32207       259  PMPE      H15S          -18.8778055528      -32.1573493285       -3.0742175299  MEMB      259             0.0000000000
     32208       259  PMPE      C216          -20.3139519098      -32.8993958787       -1.7211264806  MEMB      259             0.0000000000
     32209       259  PMPE      H16R          -19.6213928980      -33.1278500643       -0.8829780516  MEMB      259             0.0000000000
     32210       259  PMPE      H16S          -20.6534181149      -31.8592473815       -1.5283173374  MEMB      259             0.0000000000
     32211       259  PMPE      H16T          -21.0594501559      -33.7220198983       -1.6781882881  MEMB      259             0.0000000000
     32212       259  PMPE      C33           -12.1958311360      -31.4464983724      -12.6892929727  MEMB      259             0.0000000000
     32213       259  PMPE      H3X           -13.2652831897      -31.7201865905      -12.8145450949  MEMB      259             0.0000000000
     32214       259  PMPE      H3Y           -12.2456008998      -30.3839325751      -12.3686715716  MEMB      259             0.0000000000
     32215       259  PMPE      C34           -11.5703788150      -32.2376794327      -11.5408043646  MEMB      259             0.0000000000
     32216       259  PMPE      H4X           -10.4751660205      -32.0763076844      -11.6345531305  MEMB      259             0.0000000000
     32217       259  PMPE      H4Y           -11.8131454684      -33.3027858821      -11.7431248983  MEMB      259             0.0000000000
     32218       259  PMPE      C35           -12.0211190384      -31.7884117552      -10.0820734048  MEMB      259             0.0000000000
     32219       259  PMPE      H5X           -12.1726089720      -32.6535215069       -9.4016636180  MEMB      259             0.0000000000
     32220       259  PMPE      H5Y           -13.0352621219      -31.3439306935      -10.1730212965  MEMB      259             0.0000000000
     32221       259  PMPE      C36           -11.0064431063      -30.9015933402       -9.4038182120  MEMB      259             0.0000000000
     32222       259  PMPE      H6X           -10.8384069092      -30.0159212300      -10.0531794186  MEMB      259             0.0000000000
     32223       259  PMPE      H6Y           -10.0355105260      -31.4353870400       -9.3221186112  MEMB      259             0.0000000000
     32224       259  PMPE      C37           -11.5018392594      -30.4231890100       -8.0137995366  MEMB      259             0.0000000000
     32225       259  PMPE      H7X           -12.5366159348      -30.0187704749       -8.0117880556  MEMB      259             0.0000000000
     32226       259  PMPE      H7Y           -10.7210509915      -29.6940600070       -7.7087406576  MEMB      259             0.0000000000
     32227       259  PMPE      C38           -11.4972601976      -31.4747624402       -6.9350792970  MEMB      259             0.0000000000
     32228       259  PMPE      H8X           -10.5448005628      -32.0386003387       -7.0311410747  MEMB      259             0.0000000000
     32229       259  PMPE      H8Y           -12.3101284554      -32.1743427367       -7.2251721088  MEMB      259             0.0000000000
     32230       259  PMPE      C39           -11.6588502896      -30.9372663722       -5.5107520772  MEMB      259             0.0000000000
     32231       259  PMPE      H9X           -11.0677422570      -30.0140916824       -5.3300290715  MEMB      259             0.0000000000
     32232       259  PMPE      H9Y           -11.3041316720      -31.7774955808       -4.8763142445  MEMB      259             0.0000000000
     32233       259  PMPE      C310          -13.1236815536      -30.5725938388       -4.9822628474  MEMB      259             0.0000000000
     32234       259  PMPE      H10X          -13.8353163523      -31.4086301201       -5.1523812071  MEMB      259             0.0000000000
     32235       259  PMPE      H10Y          -13.4456415683      -29.7591315344       -5.6670562067  MEMB      259             0.0000000000
     32236       259  PMPE      C311          -13.1266858744      -30.1514167749       -3.5192043308  MEMB      259             0.0000000000
     32237       259  PMPE      H11X          -12.4695767671      -29.2564271310       -3.4801907680  MEMB      259             0.0000000000
     32238       259  PMPE      H11Y          -12.5914034613      -30.9682790794       -2.9895536814  MEMB      259             0.0000000000
     32239       259  PMPE      C312          -14.4903346547      -29.8907236724       -2.9857067323  MEMB      259             0.0000000000
     32240       259  PMPE      H12X          -14.9351860320      -30.8823333956       -2.7551887183  MEMB      259             0.0000000000
     32241       259  PMPE      H12Y          -15.1029256594      -29.2855263189       -3.6876957759  MEMB      259             0.0000000000
     32242       259  PMPE      C313          -14.3087523693      -29.1703690542       -1.6391500213  MEMB      259             0.0000000000
     32243       259  PMPE      H13X          -13.9614570645      -28.1213465572       -1.7542944791  MEMB      259             0.0000000000
     32244       259  PMPE      H13Y          -13.7486922377      -29.8759400239       -0.9889006961  MEMB      259             0.0000000000
     32245       259  PMPE      C314          -15.7027664543      -29.0980548973       -1.0224265655  MEMB      259             0.0000000000
     32246       259  PMPE      H14X          -16.1465357674      -30.0791675994       -0.7489180697  MEMB      259             0.0000000000
     32247       259  PMPE      H14Y          -16.4768676177      -28.6266712267       -1.6649883689  MEMB      259             0.0000000000
     32248       259  PMPE      C315          -15.8056034062      -28.0915546483        0.2515336240  MEMB      259             0.0000000000
     32249       259  PMPE      H15X          -16.8887971634      -27.8629662245        0.3451259962  MEMB      259             0.0000000000
     32250       259  PMPE      H15Y          -15.2623598660      -27.1502056432        0.0211671442  MEMB      259             0.0000000000
     32251       259  PMPE      C316          -15.2954139187      -28.7321016688        1.5758569987  MEMB      259             0.0000000000
     32252       259  PMPE      H16X          -15.2705699739      -28.0069390257        2.4171896454  MEMB      259             0.0000000000
     32253       259  PMPE      H16Y          -14.3209129046      -29.2599909653        1.4983877642  MEMB      259             0.0000000000
     32254       259  PMPE      H16Z          -16.0344891192      -29.4682835676        1.9581189021  MEMB      259             0.0000000000
     32255       260  POPE      N              18.4171166214      -27.3546682390      -17.2199510029  MEMB      260             0.0000000000
     32256       260  POPE      HN1            19.2051683919      -27.8029673532      -16.7104391338  MEMB      260             0.0000000000
     32257       260  POPE      HN2            18.0599325863      -26.5438699921      -16.6753172911  MEMB      260             0.0000000000
     32258       260  POPE      HN3            17.7752010395      -28.0517548613      -17.6484539112  MEMB      260             0.0000000000
     32259       260  POPE      C12            18.9439634576      -26.6384286787      -18.4809443269  MEMB      260             0.0000000000
     32260       260  POPE      H12A           19.3085152060      -25.6579319930      -18.1067124287  MEMB      260             0.0000000000
     32261       260  POPE      H12B           18.0070457235      -26.4071803722      -19.0314261854  MEMB      260             0.0000000000
     32262       260  POPE      C11            20.0319507352      -27.4762969962      -19.2001363327  MEMB      260             0.0000000000
     32263       260  POPE      H11A           20.6653692346      -27.8554868276      -18.3698851026  MEMB      260             0.0000000000
     32264       260  POPE      H11B           20.6151553756      -26.8721462043      -19.9275944048  MEMB      260             0.0000000000
     32265       260  POPE      P              19.7020873013      -30.0466070780      -19.4528283138  MEMB      260             0.0000000000
     32266       260  POPE      O13            20.9456378757      -30.5416388853      -20.0394906531  MEMB      260             0.0000000000
     32267       260  POPE      O14            18.4420971426      -30.7492186473      -19.8143488215  MEMB      260             0.0000000000
     32268       260  POPE      O11            19.8300095271      -30.0120740126      -17.9152367578  MEMB      260             0.0000000000
     32269       260  POPE      O12            19.3960365066      -28.5416514511      -19.8770637932  MEMB      260             0.0000000000
     32270       260  POPE      C1             19.8066394370      -31.3291298639      -17.3493386621  MEMB      260             0.0000000000
     32271       260  POPE      HA             20.2227782159      -32.1844389082      -17.9234429477  MEMB      260             0.0000000000
     32272       260  POPE      HB             18.7560403103      -31.6130917337      -17.1258921488  MEMB      260             0.0000000000
     32273       260  POPE      C2             20.5382325870      -31.3525217669      -15.9906624883  MEMB      260             0.0000000000
     32274       260  POPE      HS             20.4749378670      -32.4039395274      -15.6373420051  MEMB      260             0.0000000000
     32275       260  POPE      O21            19.9101114336      -30.3455466308      -15.1105743108  MEMB      260             0.0000000000
     32276       260  POPE      C21            18.8015251698      -30.8134926731      -14.4292789354  MEMB      260             0.0000000000
     32277       260  POPE      O22            18.1721502511      -31.8164507677      -14.6738835860  MEMB      260             0.0000000000
     32278       260  POPE      C22            18.4594622733      -29.7582036621      -13.2925624015  MEMB      260             0.0000000000
     32279       260  POPE      H2R            17.3533888236      -29.7268630706      -13.1928598516  MEMB      260             0.0000000000
     32280       260  POPE      H2S            18.8660888814      -28.7655507278      -13.5817261284  MEMB      260             0.0000000000
     32281       260  POPE      C3             22.0432806718      -31.0391204648      -16.0758941407  MEMB      260             0.0000000000
     32282       260  POPE      HX             22.1066259667      -30.4098944870      -16.9893397541  MEMB      260             0.0000000000
     32283       260  POPE      HY             22.6341514039      -31.9664826598      -16.2346148779  MEMB      260             0.0000000000
     32284       260  POPE      O31            22.5462876170      -30.3096173501      -14.9442862125  MEMB      260             0.0000000000
     32285       260  POPE      C31            22.7330263293      -31.1189081513      -13.8795660427  MEMB      260             0.0000000000
     32286       260  POPE      O32            22.5484750787      -32.3256486058      -13.7565604031  MEMB      260             0.0000000000
     32287       260  POPE      C32            23.0874515088      -30.2384691378      -12.7118510314  MEMB      260             0.0000000000
     32288       260  POPE      H2X            22.5315593172      -30.6456077733      -11.8403331259  MEMB      260             0.0000000000
     32289       260  POPE      H2Y            22.8192869652      -29.1604896776      -12.7310612982  MEMB      260             0.0000000000
     32290       260  POPE      C23            19.1090363914      -30.4250007888      -12.0525978159  MEMB      260             0.0000000000
     32291       260  POPE      H3R            20.1579873336      -30.7431602232      -12.2336985003  MEMB      260             0.0000000000
     32292       260  POPE      H3S            18.5561656667      -31.3768869741      -11.9023717331  MEMB      260             0.0000000000
     32293       260  POPE      C24            19.1038032246      -29.5639395658      -10.7257709776  MEMB      260             0.0000000000
     32294       260  POPE      H4R            19.5497116805      -30.2748846337       -9.9977292920  MEMB      260             0.0000000000
     32295       260  POPE      H4S            18.0367085085      -29.5373626876      -10.4176740339  MEMB      260             0.0000000000
     32296       260  POPE      C25            19.9228364976      -28.2780492978      -10.8548175680  MEMB      260             0.0000000000
     32297       260  POPE      H5R            19.3734200173      -27.5998781157      -11.5422374667  MEMB      260             0.0000000000
     32298       260  POPE      H5S            20.8718861561      -28.5918751062      -11.3397287490  MEMB      260             0.0000000000
     32299       260  POPE      C26            20.2285862115      -27.6592413601       -9.5077809123  MEMB      260             0.0000000000
     32300       260  POPE      H6R            20.9055619922      -26.7827758137       -9.5962844288  MEMB      260             0.0000000000
     32301       260  POPE      H6S            20.9130922532      -28.3458104202       -8.9651990008  MEMB      260             0.0000000000
     32302       260  POPE      C27            19.0460337439      -27.4527108346       -8.5558164342  MEMB      260             0.0000000000
     32303       260  POPE      H7R            19.3773723380      -27.2967882151       -7.5069002395  MEMB      260             0.0000000000
     32304       260  POPE      H7S            18.4213981256      -28.3714696794       -8.5500386611  MEMB      260             0.0000000000
     32305       260  POPE      C28            18.2000563220      -26.2049400050       -8.9664950882  MEMB      260             0.0000000000
     32306       260  POPE      H8R            17.4145743832      -26.1673031607       -8.1816875422  MEMB      260             0.0000000000
     32307       260  POPE      H8S            17.6335668949      -26.4502822319       -9.8901934856  MEMB      260             0.0000000000
     32308       260  POPE      C29            18.8311066920      -24.8505221061       -9.2355202073  MEMB      260             0.0000000000
     32309       260  POPE      H91            18.8220202697      -24.5197631757      -10.2845758003  MEMB      260             0.0000000000
     32310       260  POPE      C210           19.4955574743      -24.1186364631       -8.3411634845  MEMB      260             0.0000000000
     32311       260  POPE      H101           19.9345245600      -23.1621727067       -8.6612960242  MEMB      260             0.0000000000
     32312       260  POPE      C211           19.7302911225      -24.5499113110       -6.8950028942  MEMB      260             0.0000000000
     32313       260  POPE      H11R           19.1108106784      -25.4374499088       -6.6443229464  MEMB      260             0.0000000000
     32314       260  POPE      H11S           19.5288394193      -23.7461461050       -6.1549363999  MEMB      260             0.0000000000
     32315       260  POPE      C212           21.1976764461      -24.7903655098       -6.6026768031  MEMB      260             0.0000000000
     32316       260  POPE      H12R           21.6583245431      -23.8184315048       -6.8810087453  MEMB      260             0.0000000000
     32317       260  POPE      H12S           21.5665823107      -25.6125313951       -7.2525016913  MEMB      260             0.0000000000
     32318       260  POPE      C213           21.5704387315      -25.1587382611       -5.1354673764  MEMB      260             0.0000000000
     32319       260  POPE      H13R           21.2601324206      -26.2186783899       -5.0148120083  MEMB      260             0.0000000000
     32320       260  POPE      H13S           21.0033111244      -24.5212532479       -4.4239198987  MEMB      260             0.0000000000
     32321       260  POPE      C214           23.0281588180      -25.0519639199       -4.6853346849  MEMB      260             0.0000000000
     32322       260  POPE      H14R           23.3458606580      -24.1072472166       -5.1761466874  MEMB      260             0.0000000000
     32323       260  POPE      H14S           23.5940319540      -25.9494429774       -5.0149409508  MEMB      260             0.0000000000
     32324       260  POPE      C215           23.1719202072      -25.0602875436       -3.1786344991  MEMB      260             0.0000000000
     32325       260  POPE      H15R           22.8118632175      -26.0008796517       -2.7096277391  MEMB      260             0.0000000000
     32326       260  POPE      H15S           22.6296196859      -24.2033891166       -2.7248095337  MEMB      260             0.0000000000
     32327       260  POPE      C216           24.6210474680      -24.7494322512       -2.6337761295  MEMB      260             0.0000000000
     32328       260  POPE      H16R           24.9741796226      -23.7251920282       -2.8798462076  MEMB      260             0.0000000000
     32329       260  POPE      H16S           25.2866833134      -25.3241702761       -3.3126908333  MEMB      260             0.0000000000
     32330       260  POPE      C217           24.7864723072      -25.2379974798       -1.1858449602  MEMB      260             0.0000000000
     32331       260  POPE      H17R           24.2949548727      -26.2100607566       -0.9671559140  MEMB      260             0.0000000000
     32332       260  POPE      H17S           24.2510279231      -24.5054398462       -0.5447681978  MEMB      260             0.0000000000
     32333       260  POPE      C218           26.2655396215      -25.2071502244       -0.7144431674  MEMB      260             0.0000000000
     32334       260  POPE      H18R           26.7537384278      -24.3296488293       -1.1898105812  MEMB      260             0.0000000000
     32335       260  POPE      H18S           26.7919315220      -26.1127733224       -1.0846848533  MEMB      260             0.0000000000
     32336       260  POPE      H18T           26.2992976592      -25.1810664687        0.3957382697  MEMB      260             0.0000000000
     32337       260  POPE      C33            24.5751886869      -30.2096216817      -12.5469239876  MEMB      260             0.0000000000
     32338       260  POPE      H3X            24.8852254751      -29.6396327199      -13.4487617547  MEMB      260             0.0000000000
     32339       260  POPE      H3Y            25.1165202631      -31.1798166361      -12.5451911195  MEMB      260             0.0000000000
     32340       260  POPE      C34            25.2228269489      -29.3524399616      -11.3734155757  MEMB      260             0.0000000000
     32341       260  POPE      H4X            24.5499922081      -28.4693623574      -11.3311266139  MEMB      260             0.0000000000
     32342       260  POPE      H4Y            26.2678156063      -29.1247274767      -11.6741913701  MEMB      260             0.0000000000
     32343       260  POPE      C35            25.2210693589      -30.0248443118      -10.0157915913  MEMB      260             0.0000000000
     32344       260  POPE      H5X            25.9725572170      -29.5893904326       -9.3229957148  MEMB      260             0.0000000000
     32345       260  POPE      H5Y            25.5195704804      -31.0743247182      -10.2250960441  MEMB      260             0.0000000000
     32346       260  POPE      C36            23.8454001375      -30.0825122573       -9.3268525046  MEMB      260             0.0000000000
     32347       260  POPE      H6X            23.1210217242      -30.7667757493       -9.8181566696  MEMB      260             0.0000000000
     32348       260  POPE      H6Y            23.3984885115      -29.0686446691       -9.2452214758  MEMB      260             0.0000000000
     32349       260  POPE      C37            23.9765338941      -30.5932044608       -7.8559813455  MEMB      260             0.0000000000
     32350       260  POPE      H7X            24.6241217960      -29.9219714171       -7.2523285814  MEMB      260             0.0000000000
     32351       260  POPE      H7Y            24.2412772447      -31.6674211502       -7.9574249932  MEMB      260             0.0000000000
     32352       260  POPE      C38            22.6102903092      -30.7299158457       -7.0870972126  MEMB      260             0.0000000000
     32353       260  POPE      H8X            22.2448882524      -29.6817691276       -7.0402919526  MEMB      260             0.0000000000
     32354       260  POPE      H8Y            22.9404771184      -30.9704574807       -6.0539292925  MEMB      260             0.0000000000
     32355       260  POPE      C39            21.5964974201      -31.6388253707       -7.6328214173  MEMB      260             0.0000000000
     32356       260  POPE      H9X            21.8544630613      -32.6942704112       -7.4008506926  MEMB      260             0.0000000000
     32357       260  POPE      H9Y            21.3953123756      -31.6485551345       -8.7254101587  MEMB      260             0.0000000000
     32358       260  POPE      C310           20.1094900255      -31.3823243330       -7.0534014308  MEMB      260             0.0000000000
     32359       260  POPE      H10X           19.3329259339      -32.0836041574       -7.4268660382  MEMB      260             0.0000000000
     32360       260  POPE      H10Y           19.8485416701      -30.3290603777       -7.2918594799  MEMB      260             0.0000000000
     32361       260  POPE      C311           20.0053117750      -31.4418294175       -5.4892248755  MEMB      260             0.0000000000
     32362       260  POPE      H11X           20.5380884069      -32.3635725041       -5.1716405918  MEMB      260             0.0000000000
     32363       260  POPE      H11Y           18.9179397584      -31.5968610238       -5.3221677303  MEMB      260             0.0000000000
     32364       260  POPE      C312           20.3023546306      -30.0776796261       -4.8264167621  MEMB      260             0.0000000000
     32365       260  POPE      H12X           19.6244459822      -29.3385343309       -5.3043554211  MEMB      260             0.0000000000
     32366       260  POPE      H12Y           21.3746036202      -29.8437647175       -4.9992951839  MEMB      260             0.0000000000
     32367       260  POPE      C313           20.0907510745      -29.9754158199       -3.2753212647  MEMB      260             0.0000000000
     32368       260  POPE      H13X           18.9843534244      -29.8964433479       -3.2123216200  MEMB      260             0.0000000000
     32369       260  POPE      H13Y           20.5545000784      -29.0466874804       -2.8794413480  MEMB      260             0.0000000000
     32370       260  POPE      C314           20.6422890097      -31.1800679548       -2.4198967947  MEMB      260             0.0000000000
     32371       260  POPE      H14X           21.6325155815      -31.5192210137       -2.7923853604  MEMB      260             0.0000000000
     32372       260  POPE      H14Y           19.8257884483      -31.8878191240       -2.6782274500  MEMB      260             0.0000000000
     32373       260  POPE      C315           20.6927471132      -30.9534788415       -0.9259405212  MEMB      260             0.0000000000
     32374       260  POPE      H15X           19.6940851950      -30.7055746764       -0.5069662936  MEMB      260             0.0000000000
     32375       260  POPE      H15Y           21.3540785690      -30.0791581265       -0.7455936736  MEMB      260             0.0000000000
     32376       260  POPE      C316           21.3705639289      -32.0808140953       -0.0319694063  MEMB      260             0.0000000000
     32377       260  POPE      H16X           22.3596694892      -32.4371220069       -0.3911851926  MEMB      260             0.0000000000
     32378       260  POPE      H16Y           20.7078936254      -32.9696792737       -0.1034440013  MEMB      260             0.0000000000
     32379       260  POPE      H16Z           21.3968808543      -31.7554210885        1.0299853829  MEMB      260             0.0000000000
     32380       261  PYPG      C13            13.0808832178       32.8792547338      -20.7974556509  MEMB      261             0.0000000000
     32381       261  PYPG      H13A           12.5542264776       31.9502817536      -20.4909221918  MEMB      261             0.0000000000
     32382       261  PYPG      H13B           12.9272669483       33.5782436083      -19.9476686975  MEMB      261             0.0000000000
     32383       261  PYPG      OC3            12.6393212833       33.3130541096      -22.1316242253  MEMB      261             0.0000000000
     32384       261  PYPG      HO3            12.0555338251       34.0442155825      -21.9166940269  MEMB      261             0.0000000000
     32385       261  PYPG      C12            14.6401555831       32.5553891684      -20.7610967229  MEMB      261             0.0000000000
     32386       261  PYPG      H12A           15.1817682608       33.5158027881      -20.9255364577  MEMB      261             0.0000000000
     32387       261  PYPG      OC2            14.9833219647       31.6679489117      -21.8263326195  MEMB      261             0.0000000000
     32388       261  PYPG      HO2            15.9163410601       31.4342866351      -21.6273498359  MEMB      261             0.0000000000
     32389       261  PYPG      C11            15.2556446117       31.9612369971      -19.4562911764  MEMB      261             0.0000000000
     32390       261  PYPG      H11A           16.3454996178       31.8301577802      -19.6276251098  MEMB      261             0.0000000000
     32391       261  PYPG      H11B           14.7282305348       30.9948674739      -19.3070085176  MEMB      261             0.0000000000
     32392       261  PYPG      P              15.6172633247       32.5153978478      -16.9454471199  MEMB      261             0.0000000000
     32393       261  PYPG      O13            15.3744905938       33.5324006944      -15.9429647058  MEMB      261             0.0000000000
     32394       261  PYPG      O14            17.0356068741       32.0467094817      -17.0403132802  MEMB      261             0.0000000000
     32395       261  PYPG      O11            14.7449893213       31.1644425365      -16.7492685197  MEMB      261             0.0000000000
     32396       261  PYPG      O12            15.0883442599       32.8777264921      -18.3492059788  MEMB      261             0.0000000000
     32397       261  PYPG      C1             14.6260632941       30.6203688304      -15.4421472759  MEMB      261             0.0000000000
     32398       261  PYPG      HA             15.4191975989       30.9078948215      -14.7192450511  MEMB      261             0.0000000000
     32399       261  PYPG      HB             14.8111820733       29.5424488152      -15.6374423055  MEMB      261             0.0000000000
     32400       261  PYPG      C2             13.2630990247       30.9604674212      -14.7403173810  MEMB      261             0.0000000000
     32401       261  PYPG      HS             12.3777428091       30.6087364963      -15.3119383708  MEMB      261             0.0000000000
     32402       261  PYPG      O21            13.1294396289       32.4296242295      -14.6298839853  MEMB      261             0.0000000000
     32403       261  PYPG      C21            11.9046949923       32.9025301662      -14.2819412061  MEMB      261             0.0000000000
     32404       261  PYPG      O22            10.8422463205       32.2973312294      -14.4513184574  MEMB      261             0.0000000000
     32405       261  PYPG      C22            12.0191474976       34.2826676255      -13.5223980374  MEMB      261             0.0000000000
     32406       261  PYPG      H2R            12.1848942737       35.1266607884      -14.2256222601  MEMB      261             0.0000000000
     32407       261  PYPG      H2S            12.8168947609       34.3732716568      -12.7544717739  MEMB      261             0.0000000000
     32408       261  PYPG      C3             13.1808444157       30.2605687652      -13.3200680340  MEMB      261             0.0000000000
     32409       261  PYPG      HX             13.2985048868       29.1606791554      -13.4236044605  MEMB      261             0.0000000000
     32410       261  PYPG      HY             12.1797854038       30.5177933108      -12.9125912593  MEMB      261             0.0000000000
     32411       261  PYPG      O31            14.2810253435       30.7947131129      -12.5603749887  MEMB      261             0.0000000000
     32412       261  PYPG      C31            13.9714598210       31.7353907818      -11.7716239497  MEMB      261             0.0000000000
     32413       261  PYPG      O32            12.8532414314       32.1442084771      -11.5575118611  MEMB      261             0.0000000000
     32414       261  PYPG      C32            15.3218396767       32.1705467146      -11.0673950277  MEMB      261             0.0000000000
     32415       261  PYPG      H2X            15.0569895161       32.2143275173       -9.9893143794  MEMB      261             0.0000000000
     32416       261  PYPG      H2Y            16.1299740596       31.4442191315      -11.2991015494  MEMB      261             0.0000000000
     32417       261  PYPG      C23            10.7171792159       34.5706352888      -12.6733205850  MEMB      261             0.0000000000
     32418       261  PYPG      H3R            10.4424856338       33.6832620244      -12.0638675924  MEMB      261             0.0000000000
     32419       261  PYPG      H3S             9.9684309869       34.7864517304      -13.4652295846  MEMB      261             0.0000000000
     32420       261  PYPG      C24            10.7794673200       35.8320444470      -11.7923990959  MEMB      261             0.0000000000
     32421       261  PYPG      H4R             9.7334824532       35.9168356878      -11.4276420368  MEMB      261             0.0000000000
     32422       261  PYPG      H4S            10.9637823440       36.6844145117      -12.4807405942  MEMB      261             0.0000000000
     32423       261  PYPG      C25            11.7263568254       35.9186743384      -10.5478608997  MEMB      261             0.0000000000
     32424       261  PYPG      H5R            11.5462358717       36.9358051756      -10.1388108492  MEMB      261             0.0000000000
     32425       261  PYPG      H5S            12.8012716669       35.8663205025      -10.8237935649  MEMB      261             0.0000000000
     32426       261  PYPG      C26            11.4817663728       34.8168352253       -9.5517217155  MEMB      261             0.0000000000
     32427       261  PYPG      H6R            11.6558132926       33.8576718359      -10.0846698643  MEMB      261             0.0000000000
     32428       261  PYPG      H6S            10.4327372193       34.9135858456       -9.1988792857  MEMB      261             0.0000000000
     32429       261  PYPG      C27            12.3657047986       34.9353453079       -8.3879351239  MEMB      261             0.0000000000
     32430       261  PYPG      H7R            12.3115537960       35.9372089740       -7.9107997987  MEMB      261             0.0000000000
     32431       261  PYPG      H7S            13.3945649357       34.8737138583       -8.8026269083  MEMB      261             0.0000000000
     32432       261  PYPG      C28            12.2553578118       33.7955362784       -7.3222840244  MEMB      261             0.0000000000
     32433       261  PYPG      H8R            13.2511614367       33.8128779791       -6.8299472603  MEMB      261             0.0000000000
     32434       261  PYPG      H8S            12.0072672960       32.7718043208       -7.6754770427  MEMB      261             0.0000000000
     32435       261  PYPG      C29            11.1122895036       34.0744695993       -6.3226411508  MEMB      261             0.0000000000
     32436       261  PYPG      H9R            10.1564228611       34.2761958723       -6.8282351405  MEMB      261             0.0000000000
     32437       261  PYPG      C210           11.0588961803       34.0639772315       -4.9763841388  MEMB      261             0.0000000000
     32438       261  PYPG      H10R           10.1331715517       34.3319171807       -4.4460613863  MEMB      261             0.0000000000
     32439       261  PYPG      C211           12.3154895992       33.7785687944       -4.1277343157  MEMB      261             0.0000000000
     32440       261  PYPG      H11R           12.9394415516       32.9082433197       -4.4236024502  MEMB      261             0.0000000000
     32441       261  PYPG      H11S           11.9197794711       33.4816972309       -3.1329464384  MEMB      261             0.0000000000
     32442       261  PYPG      C212           13.3414137787       34.9207137848       -3.8443467468  MEMB      261             0.0000000000
     32443       261  PYPG      H12R           13.7186716882       35.3012529552       -4.8175823052  MEMB      261             0.0000000000
     32444       261  PYPG      H12S           14.2130269242       34.4914530749       -3.3055082480  MEMB      261             0.0000000000
     32445       261  PYPG      C213           12.8002049452       36.1738195128       -3.1028753844  MEMB      261             0.0000000000
     32446       261  PYPG      H13R           11.7726764580       36.4194496096       -3.4466368443  MEMB      261             0.0000000000
     32447       261  PYPG      H13S           13.4598699765       37.0209896012       -3.3882977533  MEMB      261             0.0000000000
     32448       261  PYPG      C214           12.7832850932       36.0677921898       -1.6116923530  MEMB      261             0.0000000000
     32449       261  PYPG      H14R           12.0309725510       35.2891332064       -1.3626191011  MEMB      261             0.0000000000
     32450       261  PYPG      H14S           13.7909483206       35.8104341866       -1.2209206565  MEMB      261             0.0000000000
     32451       261  PYPG      C215           12.2292586915       37.2560326135       -0.9523647616  MEMB      261             0.0000000000
     32452       261  PYPG      H15R           12.1839228123       38.0768226247       -1.6997404684  MEMB      261             0.0000000000
     32453       261  PYPG      H15S           12.9273370166       37.5843178426       -0.1528425222  MEMB      261             0.0000000000
     32454       261  PYPG      C216           10.8627600635       37.1458706324       -0.2531842022  MEMB      261             0.0000000000
     32455       261  PYPG      H16R           10.2649375635       38.0711266909       -0.1088530288  MEMB      261             0.0000000000
     32456       261  PYPG      H16S           11.1412678319       36.8474518148        0.7801119345  MEMB      261             0.0000000000
     32457       261  PYPG      H16T           10.2335736505       36.3885598270       -0.7678921006  MEMB      261             0.0000000000
     32458       261  PYPG      C33            15.7801742725       33.4592741600      -11.6674189940  MEMB      261             0.0000000000
     32459       261  PYPG      H3X            14.9766969757       34.2232014548      -11.5955841748  MEMB      261             0.0000000000
     32460       261  PYPG      H3Y            16.0351924587       33.2134602003      -12.7204442017  MEMB      261             0.0000000000
     32461       261  PYPG      C34            17.0859116155       34.0447044685      -11.0318186154  MEMB      261             0.0000000000
     32462       261  PYPG      H4X            17.6184796702       34.7561260236      -11.6985803686  MEMB      261             0.0000000000
     32463       261  PYPG      H4Y            17.7568564247       33.1596113006      -11.0041765662  MEMB      261             0.0000000000
     32464       261  PYPG      C35            16.8274179084       34.5224645829       -9.6292074584  MEMB      261             0.0000000000
     32465       261  PYPG      H5X            16.5753395025       33.6224987600       -9.0285085981  MEMB      261             0.0000000000
     32466       261  PYPG      H5Y            16.0445316151       35.3063215496       -9.5456685580  MEMB      261             0.0000000000
     32467       261  PYPG      C36            17.9913351663       35.2758898996       -9.0026480154  MEMB      261             0.0000000000
     32468       261  PYPG      H6X            18.1330084705       36.1835727696       -9.6274371512  MEMB      261             0.0000000000
     32469       261  PYPG      H6Y            18.8435500741       34.5845222422       -9.1760297103  MEMB      261             0.0000000000
     32470       261  PYPG      C37            17.7967229487       35.4550274006       -7.4909798632  MEMB      261             0.0000000000
     32471       261  PYPG      H7X            18.6018811145       36.1956265531       -7.2971895646  MEMB      261             0.0000000000
     32472       261  PYPG      H7Y            16.7951904651       35.8994485538       -7.3072848716  MEMB      261             0.0000000000
     32473       261  PYPG      C38            18.1044433939       34.2506644469       -6.6458563804  MEMB      261             0.0000000000
     32474       261  PYPG      H8X            19.1362717466       34.2870943129       -6.2355837089  MEMB      261             0.0000000000
     32475       261  PYPG      H8Y            17.8626057335       33.2917709337       -7.1521752072  MEMB      261             0.0000000000
     32476       261  PYPG      C39            17.2928621439       34.0750283960       -5.3597682488  MEMB      261             0.0000000000
     32477       261  PYPG      H9X            16.2128864348       34.0442468634       -5.6186622868  MEMB      261             0.0000000000
     32478       261  PYPG      H9Y            17.4210792807       35.0465735238       -4.8363365781  MEMB      261             0.0000000000
     32479       261  PYPG      C310           17.7768757096       32.9061221260       -4.4411449970  MEMB      261             0.0000000000
     32480       261  PYPG      H10X           18.8768623302       33.0431095813       -4.3664145952  MEMB      261             0.0000000000
     32481       261  PYPG      H10Y           17.5826233963       31.9295272284       -4.9339430904  MEMB      261             0.0000000000
     32482       261  PYPG      C311           17.1177138980       32.9276246380       -3.0707655247  MEMB      261             0.0000000000
     32483       261  PYPG      H11X           17.2793919570       31.9331021438       -2.6026784058  MEMB      261             0.0000000000
     32484       261  PYPG      H11Y           16.0106423441       32.8483393104       -3.1200354145  MEMB      261             0.0000000000
     32485       261  PYPG      C312           17.6651389965       34.0369875387       -2.1727347627  MEMB      261             0.0000000000
     32486       261  PYPG      H12X           18.7723978471       33.9566915078       -2.1297067469  MEMB      261             0.0000000000
     32487       261  PYPG      H12Y           17.3715448080       35.0014043236       -2.6396644883  MEMB      261             0.0000000000
     32488       261  PYPG      C313           16.9635641816       33.9223861360       -0.7875633023  MEMB      261             0.0000000000
     32489       261  PYPG      H13X           15.8929805382       33.7562169827       -1.0336517715  MEMB      261             0.0000000000
     32490       261  PYPG      H13Y           17.3675714999       33.0610888345       -0.2137460689  MEMB      261             0.0000000000
     32491       261  PYPG      C314           16.8915471638       35.2212170762        0.0831289157  MEMB      261             0.0000000000
     32492       261  PYPG      H14X           16.4967363846       36.0346233214       -0.5624838463  MEMB      261             0.0000000000
     32493       261  PYPG      H14Y           16.2822483428       35.1733955444        1.0109172147  MEMB      261             0.0000000000
     32494       261  PYPG      C315           18.2126387738       35.6117474390        0.6041892354  MEMB      261             0.0000000000
     32495       261  PYPG      H15X           18.4908258406       34.7580825483        1.2585507577  MEMB      261             0.0000000000
     32496       261  PYPG      H15Y           18.9607463900       35.7767017375       -0.2004508588  MEMB      261             0.0000000000
     32497       261  PYPG      C316           18.0734481893       36.9393203492        1.3661981992  MEMB      261             0.0000000000
     32498       261  PYPG      H16X           17.4808723184       36.8421016385        2.3009289255  MEMB      261             0.0000000000
     32499       261  PYPG      H16Y           17.8228112989       37.7484157840        0.6472639954  MEMB      261             0.0000000000
     32500       261  PYPG      H16Z           19.0589715448       37.2343034550        1.7857797763  MEMB      261             0.0000000000
     32501       262  OYPE      N             -31.7573117141        9.0736864452      -20.8280528778  MEMB      262             0.0000000000
     32502       262  OYPE      HN1           -31.0046247483        8.4392404797      -20.4925821554  MEMB      262             0.0000000000
     32503       262  OYPE      HN2           -32.6146932797        8.4863678750      -20.8674691309  MEMB      262             0.0000000000
     32504       262  OYPE      HN3           -31.5854542951        9.3720476304      -21.8094015915  MEMB      262             0.0000000000
     32505       262  OYPE      C12           -31.8835140453       10.1970094104      -19.8013812655  MEMB      262             0.0000000000
     32506       262  OYPE      H12A          -31.1451399975       11.0021870908      -20.0034056118  MEMB      262             0.0000000000
     32507       262  OYPE      H12B          -31.7255684572        9.6814528965      -18.8300029961  MEMB      262             0.0000000000
     32508       262  OYPE      C11           -33.3231361371       10.9120428220      -19.9679868762  MEMB      262             0.0000000000
     32509       262  OYPE      H11A          -33.4255235504       11.3469083161      -20.9852036928  MEMB      262             0.0000000000
     32510       262  OYPE      H11B          -33.3239135496       11.8357781832      -19.3507079713  MEMB      262             0.0000000000
     32511       262  OYPE      P             -35.0294095393        9.9077568313      -18.2582746721  MEMB      262             0.0000000000
     32512       262  OYPE      O13           -36.5025418369        9.6509025931      -18.3584128247  MEMB      262             0.0000000000
     32513       262  OYPE      O14           -34.5957532352       11.0071271835      -17.3442303409  MEMB      262             0.0000000000
     32514       262  OYPE      O11           -34.2410750062        8.6147850256      -17.7485258152  MEMB      262             0.0000000000
     32515       262  OYPE      O12           -34.4032224871        9.9893165636      -19.6931352924  MEMB      262             0.0000000000
     32516       262  OYPE      C1            -34.3378261523        7.3696039662      -18.4560488843  MEMB      262             0.0000000000
     32517       262  OYPE      HA            -33.7048139141        7.4715085236      -19.3633701559  MEMB      262             0.0000000000
     32518       262  OYPE      HB            -35.3600555342        7.1749274815      -18.8452392231  MEMB      262             0.0000000000
     32519       262  OYPE      C2            -33.8859787178        6.1773237113      -17.5810272664  MEMB      262             0.0000000000
     32520       262  OYPE      HS            -34.3642429827        5.2430216960      -17.9452580247  MEMB      262             0.0000000000
     32521       262  OYPE      O21           -34.2698733570        6.3163365878      -16.2327213135  MEMB      262             0.0000000000
     32522       262  OYPE      C21           -35.5654249767        6.2867666365      -15.8566164911  MEMB      262             0.0000000000
     32523       262  OYPE      O22           -36.5076112562        6.0078238840      -16.5805331799  MEMB      262             0.0000000000
     32524       262  OYPE      C22           -35.5628912781        6.8457498876      -14.4007231833  MEMB      262             0.0000000000
     32525       262  OYPE      H2R           -34.7846103576        6.2890999323      -13.8361521408  MEMB      262             0.0000000000
     32526       262  OYPE      H2S           -36.6137818793        6.6335353320      -14.1093220470  MEMB      262             0.0000000000
     32527       262  OYPE      C3            -32.3558048291        6.1156753603      -17.5610106462  MEMB      262             0.0000000000
     32528       262  OYPE      HX            -31.9727461242        5.8324936737      -18.5647014065  MEMB      262             0.0000000000
     32529       262  OYPE      HY            -32.0573550109        5.2749025014      -16.8989303525  MEMB      262             0.0000000000
     32530       262  OYPE      O31           -31.6905652848        7.3005526468      -17.1923149655  MEMB      262             0.0000000000
     32531       262  OYPE      C31           -31.6309603541        7.6832667987      -15.9254631393  MEMB      262             0.0000000000
     32532       262  OYPE      O32           -31.9068942911        6.9734033421      -14.9900614055  MEMB      262             0.0000000000
     32533       262  OYPE      C32           -31.4525682994        9.1745649797      -15.8400128043  MEMB      262             0.0000000000
     32534       262  OYPE      H2X           -30.6196777656        9.5489595948      -16.4728187630  MEMB      262             0.0000000000
     32535       262  OYPE      H2Y           -32.4009120427        9.7147294459      -16.0478289462  MEMB      262             0.0000000000
     32536       262  OYPE      C23           -35.3932940949        8.3345535512      -14.3812714672  MEMB      262             0.0000000000
     32537       262  OYPE      H3R           -36.1308718788        8.8069953583      -15.0647177320  MEMB      262             0.0000000000
     32538       262  OYPE      H3S           -34.3675991700        8.5488009369      -14.7505530667  MEMB      262             0.0000000000
     32539       262  OYPE      C24           -35.5167583433        9.0421931579      -13.0184295051  MEMB      262             0.0000000000
     32540       262  OYPE      H4R           -36.2876471139        8.4682377670      -12.4610905646  MEMB      262             0.0000000000
     32541       262  OYPE      H4S           -35.8589950481       10.0991613532      -13.0220828354  MEMB      262             0.0000000000
     32542       262  OYPE      C25           -34.3143538464        8.8747295568      -12.0520305889  MEMB      262             0.0000000000
     32543       262  OYPE      H5R           -33.6230222690        9.6390156047      -12.4670589826  MEMB      262             0.0000000000
     32544       262  OYPE      H5S           -33.8032691107        7.8983432063      -12.1926837124  MEMB      262             0.0000000000
     32545       262  OYPE      C26           -34.6851319551        9.1273504915      -10.5247782737  MEMB      262             0.0000000000
     32546       262  OYPE      H6R           -35.3988902392        9.9766594265      -10.5843138191  MEMB      262             0.0000000000
     32547       262  OYPE      H6S           -33.8275812827        9.5969340579       -9.9971236432  MEMB      262             0.0000000000
     32548       262  OYPE      C27           -35.0707273091        7.8700391052       -9.7296796082  MEMB      262             0.0000000000
     32549       262  OYPE      H7R           -34.1891973756        7.4563507242       -9.1948079130  MEMB      262             0.0000000000
     32550       262  OYPE      H7S           -35.5646320102        7.1348990008      -10.4004611336  MEMB      262             0.0000000000
     32551       262  OYPE      C28           -35.9368745560        8.1572863770       -8.4870094512  MEMB      262             0.0000000000
     32552       262  OYPE      H8R           -35.3217721477        8.7610243868       -7.7859603093  MEMB      262             0.0000000000
     32553       262  OYPE      H8S           -36.0461135464        7.1369839200       -8.0611332374  MEMB      262             0.0000000000
     32554       262  OYPE      C29           -37.3482565524        8.7039101838       -8.8509762414  MEMB      262             0.0000000000
     32555       262  OYPE      H9R           -37.9259638938        8.1701970516       -9.6200036041  MEMB      262             0.0000000000
     32556       262  OYPE      C210          -37.9326199218        9.7941442565       -8.2882646885  MEMB      262             0.0000000000
     32557       262  OYPE      H10R          -38.9485928724       10.0858478018       -8.5927448257  MEMB      262             0.0000000000
     32558       262  OYPE      C211          -37.3413146266       10.6771162029       -7.2463468462  MEMB      262             0.0000000000
     32559       262  OYPE      H11R          -37.0606223569       11.6240264089       -7.7551629598  MEMB      262             0.0000000000
     32560       262  OYPE      H11S          -36.4352380635       10.2423554697       -6.7727124709  MEMB      262             0.0000000000
     32561       262  OYPE      C212          -38.3699976033       10.8546203625       -6.1514916378  MEMB      262             0.0000000000
     32562       262  OYPE      H12R          -38.7248050630        9.8653915014       -5.7911321229  MEMB      262             0.0000000000
     32563       262  OYPE      H12S          -39.2038574455       11.4963579437       -6.5081026348  MEMB      262             0.0000000000
     32564       262  OYPE      C213          -37.7747005285       11.4484051252       -4.8289596864  MEMB      262             0.0000000000
     32565       262  OYPE      H13R          -37.6223844887       12.5413865916       -4.9574606600  MEMB      262             0.0000000000
     32566       262  OYPE      H13S          -36.7267175057       11.1051633507       -4.6939130381  MEMB      262             0.0000000000
     32567       262  OYPE      C214          -38.6073734435       11.1664270153       -3.5488778606  MEMB      262             0.0000000000
     32568       262  OYPE      H14R          -38.9415579253       10.1195684661       -3.7123678089  MEMB      262             0.0000000000
     32569       262  OYPE      H14S          -39.5218414482       11.7772566205       -3.3908995607  MEMB      262             0.0000000000
     32570       262  OYPE      C215          -37.7450569662       11.2677473808       -2.2171249613  MEMB      262             0.0000000000
     32571       262  OYPE      H15R          -37.3382764563       12.2967722643       -2.1173336680  MEMB      262             0.0000000000
     32572       262  OYPE      H15S          -36.8524562861       10.6069304243       -2.2472265120  MEMB      262             0.0000000000
     32573       262  OYPE      C216          -38.4742836168       10.8755452359       -0.9543206832  MEMB      262             0.0000000000
     32574       262  OYPE      H16R          -39.1560051319       11.6579380676       -0.5575367159  MEMB      262             0.0000000000
     32575       262  OYPE      H16S          -37.8034380919       10.6889377692       -0.0886047812  MEMB      262             0.0000000000
     32576       262  OYPE      H16T          -38.8438721444        9.8322325736       -1.0503631203  MEMB      262             0.0000000000
     32577       262  OYPE      C33           -31.0336912338        9.5320337552      -14.4222926314  MEMB      262             0.0000000000
     32578       262  OYPE      H3X           -29.9316018433        9.4184721198      -14.3396889525  MEMB      262             0.0000000000
     32579       262  OYPE      H3Y           -31.5205179749        8.7649028708      -13.7828936828  MEMB      262             0.0000000000
     32580       262  OYPE      C34           -31.2922368639       11.0063033451      -13.9278702087  MEMB      262             0.0000000000
     32581       262  OYPE      H4X           -31.1283954700       11.6603334451      -14.8108888231  MEMB      262             0.0000000000
     32582       262  OYPE      H4Y           -32.3794369482       11.0318138592      -13.7005694756  MEMB      262             0.0000000000
     32583       262  OYPE      C35           -30.4973651246       11.2818564325      -12.6568565723  MEMB      262             0.0000000000
     32584       262  OYPE      H5X           -30.6658616963       12.3131463429      -12.2795358247  MEMB      262             0.0000000000
     32585       262  OYPE      H5Y           -29.4124653769       11.3384960151      -12.8894612142  MEMB      262             0.0000000000
     32586       262  OYPE      C36           -30.6897484463       10.2877587242      -11.5142066683  MEMB      262             0.0000000000
     32587       262  OYPE      H6X           -31.7257875689       10.3527018877      -11.1183200739  MEMB      262             0.0000000000
     32588       262  OYPE      H6Y           -30.4437040634        9.2333321195      -11.7631402957  MEMB      262             0.0000000000
     32589       262  OYPE      C37           -29.7888129832       10.7540313332      -10.3131459911  MEMB      262             0.0000000000
     32590       262  OYPE      H7X           -28.7358045855       10.4362093740      -10.4696189395  MEMB      262             0.0000000000
     32591       262  OYPE      H7Y           -29.7192371130       11.8620557715      -10.3551211817  MEMB      262             0.0000000000
     32592       262  OYPE      C38           -30.5372855830       10.4404781028       -8.9619266305  MEMB      262             0.0000000000
     32593       262  OYPE      H8X           -31.5047735382       10.9037720521       -9.2511439252  MEMB      262             0.0000000000
     32594       262  OYPE      H8Y           -30.5731001507        9.3306933120       -8.9242987495  MEMB      262             0.0000000000
     32595       262  OYPE      C39           -29.8235970405       11.0222349058       -7.7914558199  MEMB      262             0.0000000000
     32596       262  OYPE      H9X           -28.8079616354       11.4242031650       -7.9214811861  MEMB      262             0.0000000000
     32597       262  OYPE      C310          -30.4355932268       11.1095783312       -6.5725958199  MEMB      262             0.0000000000
     32598       262  OYPE      H10X          -29.8605339893       11.5843392356       -5.7639497910  MEMB      262             0.0000000000
     32599       262  OYPE      C311          -31.7649162260       10.6186006393       -6.1143474195  MEMB      262             0.0000000000
     32600       262  OYPE      H11X          -32.5359138733       10.5772795077       -6.9132069596  MEMB      262             0.0000000000
     32601       262  OYPE      H11Y          -31.6296462058        9.5977628775       -5.6973185312  MEMB      262             0.0000000000
     32602       262  OYPE      C312          -32.4198581921       11.5477194837       -5.0881618685  MEMB      262             0.0000000000
     32603       262  OYPE      H12X          -32.5649859010       12.4583220634       -5.7078888368  MEMB      262             0.0000000000
     32604       262  OYPE      H12Y          -31.7730753667       11.8447032891       -4.2350533492  MEMB      262             0.0000000000
     32605       262  OYPE      C313          -33.7575041685       11.0494997517       -4.5181628862  MEMB      262             0.0000000000
     32606       262  OYPE      H13X          -34.1195186437       11.7921112151       -3.7753337151  MEMB      262             0.0000000000
     32607       262  OYPE      H13Y          -34.4327926628       10.9357393336       -5.3930145197  MEMB      262             0.0000000000
     32608       262  OYPE      C314          -33.7711416555        9.7122584191       -3.7651973678  MEMB      262             0.0000000000
     32609       262  OYPE      H14X          -33.2927357922        9.0972991277       -4.5572039701  MEMB      262             0.0000000000
     32610       262  OYPE      H14Y          -34.7730428510        9.3417113746       -3.4598948695  MEMB      262             0.0000000000
     32611       262  OYPE      C315          -32.9599820653        9.6999567761       -2.4538315007  MEMB      262             0.0000000000
     32612       262  OYPE      H15X          -33.2934607104       10.5578363349       -1.8316131686  MEMB      262             0.0000000000
     32613       262  OYPE      H15Y          -31.9042966360        9.8527201630       -2.7644956543  MEMB      262             0.0000000000
     32614       262  OYPE      C316          -32.9984904679        8.3600597726       -1.6614858066  MEMB      262             0.0000000000
     32615       262  OYPE      H16X          -32.4875827030        8.7050031975       -0.7371969567  MEMB      262             0.0000000000
     32616       262  OYPE      H16Y          -32.3979527782        7.5944006379       -2.1976208357  MEMB      262             0.0000000000
     32617       262  OYPE      C317          -34.4011481157        7.8394776147       -1.3107194226  MEMB      262             0.0000000000
     32618       262  OYPE      H17X          -34.9132614633        7.7657235695       -2.2938879926  MEMB      262             0.0000000000
     32619       262  OYPE      H17Y          -34.8661661823        8.6075144015       -0.6563500092  MEMB      262             0.0000000000
     32620       262  OYPE      C318          -34.3991109816        6.5370074906       -0.5888810196  MEMB      262             0.0000000000
     32621       262  OYPE      H18X          -35.3177353449        6.3960629786        0.0198760031  MEMB      262             0.0000000000
     32622       262  OYPE      H18Y          -34.1669917546        5.7356823037       -1.3225826328  MEMB      262             0.0000000000
     32623       262  OYPE      H18Z          -33.6242066568        6.4819668355        0.2053582939  MEMB      262             0.0000000000
     32624       263  QMPE      N             -28.0757909508       18.3668186176      -19.0886781750  MEMB      263             0.0000000000
     32625       263  QMPE      HN1           -27.4560485699       17.5331593812      -19.0383609492  MEMB      263             0.0000000000
     32626       263  QMPE      HN2           -28.3324594950       18.6713918276      -20.0493844658  MEMB      263             0.0000000000
     32627       263  QMPE      HN3           -27.5543269309       19.1601657121      -18.6640892531  MEMB      263             0.0000000000
     32628       263  QMPE      C12           -29.2714562905       18.0247975166      -18.2454806996  MEMB      263             0.0000000000
     32629       263  QMPE      H12A          -28.8390028635       17.6900261610      -17.2784061434  MEMB      263             0.0000000000
     32630       263  QMPE      H12B          -29.7907129535       17.1111746596      -18.6060174047  MEMB      263             0.0000000000
     32631       263  QMPE      C11           -30.2321986146       19.1602833226      -18.1332727139  MEMB      263             0.0000000000
     32632       263  QMPE      H11A          -29.6850121096       20.1172550365      -17.9950228079  MEMB      263             0.0000000000
     32633       263  QMPE      H11B          -30.8875959555       19.1717878618      -17.2362536922  MEMB      263             0.0000000000
     32634       263  QMPE      P             -32.5435451560       18.8917329321      -19.3342038231  MEMB      263             0.0000000000
     32635       263  QMPE      O13           -32.9085113113       18.2076261986      -20.6193885003  MEMB      263             0.0000000000
     32636       263  QMPE      O14           -33.3125819220       20.1099098895      -19.0083040813  MEMB      263             0.0000000000
     32637       263  QMPE      O11           -32.7354399103       17.8301844380      -18.2228184966  MEMB      263             0.0000000000
     32638       263  QMPE      O12           -30.9896102445       19.2526974851      -19.3478535105  MEMB      263             0.0000000000
     32639       263  QMPE      C1            -33.9549575119       17.6415764541      -17.4740370579  MEMB      263             0.0000000000
     32640       263  QMPE      HA            -34.3813848158       16.6283409163      -17.6347681072  MEMB      263             0.0000000000
     32641       263  QMPE      HB            -34.7484759540       18.2208370727      -17.9927916822  MEMB      263             0.0000000000
     32642       263  QMPE      C2            -33.7852541176       18.0681423381      -15.9558881859  MEMB      263             0.0000000000
     32643       263  QMPE      HS            -34.8263119416       17.9435195163      -15.5884800912  MEMB      263             0.0000000000
     32644       263  QMPE      O21           -33.3794888031       19.4362538790      -15.8585611203  MEMB      263             0.0000000000
     32645       263  QMPE      C21           -34.3818449611       20.4076883907      -16.0402779567  MEMB      263             0.0000000000
     32646       263  QMPE      O22           -35.5155085150       20.0822235496      -16.1142231539  MEMB      263             0.0000000000
     32647       263  QMPE      C22           -33.7124796692       21.7467894102      -16.1515063305  MEMB      263             0.0000000000
     32648       263  QMPE      H2R           -34.5237433096       22.4844548757      -15.9725600104  MEMB      263             0.0000000000
     32649       263  QMPE      H2S           -33.4178940994       21.8772629225      -17.2147641823  MEMB      263             0.0000000000
     32650       263  QMPE      C3            -32.8041239445       17.3362816618      -15.0761834921  MEMB      263             0.0000000000
     32651       263  QMPE      HX            -31.7974003860       17.1372943123      -15.5018978884  MEMB      263             0.0000000000
     32652       263  QMPE      HY            -33.1740362011       16.2951630562      -14.9597449223  MEMB      263             0.0000000000
     32653       263  QMPE      O31           -32.6947269467       17.9608326918      -13.7409597580  MEMB      263             0.0000000000
     32654       263  QMPE      C31           -31.9633151857       17.3809007291      -12.8627210915  MEMB      263             0.0000000000
     32655       263  QMPE      O32           -31.3494239652       16.3401740250      -13.1356172103  MEMB      263             0.0000000000
     32656       263  QMPE      C32           -32.0272386223       18.0211455959      -11.4455155462  MEMB      263             0.0000000000
     32657       263  QMPE      H2X           -30.9518461886       18.2702701697      -11.3198610839  MEMB      263             0.0000000000
     32658       263  QMPE      H2Y           -32.7907574113       18.8151659655      -11.5900549258  MEMB      263             0.0000000000
     32659       263  QMPE      C23           -32.5283155923       21.9666582359      -15.1527265007  MEMB      263             0.0000000000
     32660       263  QMPE      H3R           -31.6040681136       21.5422330101      -15.5998849214  MEMB      263             0.0000000000
     32661       263  QMPE      H3S           -32.6172467246       21.3782122862      -14.2145664749  MEMB      263             0.0000000000
     32662       263  QMPE      C24           -32.3595920810       23.4380860353      -14.8150684523  MEMB      263             0.0000000000
     32663       263  QMPE      H4R           -33.1831464115       23.8620936861      -14.2016382303  MEMB      263             0.0000000000
     32664       263  QMPE      H4S           -32.3592733909       24.0913628801      -15.7137065673  MEMB      263             0.0000000000
     32665       263  QMPE      C25           -31.0314282363       23.8281251973      -14.1079386232  MEMB      263             0.0000000000
     32666       263  QMPE      H5R           -31.0482419393       24.9309309060      -14.2415728437  MEMB      263             0.0000000000
     32667       263  QMPE      H5S           -30.1902817476       23.4412158961      -14.7220190541  MEMB      263             0.0000000000
     32668       263  QMPE      C26           -31.0070103539       23.3578877054      -12.6735611744  MEMB      263             0.0000000000
     32669       263  QMPE      H6R           -31.1486829829       22.2559792836      -12.6804464287  MEMB      263             0.0000000000
     32670       263  QMPE      H6S           -31.9155752141       23.8475181678      -12.2623518858  MEMB      263             0.0000000000
     32671       263  QMPE      C27           -29.8859643616       23.8654933559      -11.7609956662  MEMB      263             0.0000000000
     32672       263  QMPE      H7R           -30.1135791997       24.9439250517      -11.6213608394  MEMB      263             0.0000000000
     32673       263  QMPE      H7S           -28.8780563416       23.7765275084      -12.2198282129  MEMB      263             0.0000000000
     32674       263  QMPE      C28           -29.8035005500       23.0707872767      -10.4464759755  MEMB      263             0.0000000000
     32675       263  QMPE      H8R           -29.7752230259       21.9891177929      -10.6984933006  MEMB      263             0.0000000000
     32676       263  QMPE      H8S           -30.7373029796       23.1821238033       -9.8549205287  MEMB      263             0.0000000000
     32677       263  QMPE      C29           -28.5577272010       23.2836783935       -9.5228415868  MEMB      263             0.0000000000
     32678       263  QMPE      H9R           -28.3127977424       24.3326103694       -9.2506793349  MEMB      263             0.0000000000
     32679       263  QMPE      C217          -27.3144448099       22.4427841073       -9.9679100345  MEMB      263             0.0000000000
     32680       263  QMPE      H17R          -27.5543992880       21.5913477281      -10.5927043679  MEMB      263             0.0000000000
     32681       263  QMPE      H17S          -26.5118632143       23.1696262119       -9.9891775001  MEMB      263             0.0000000000
     32682       263  QMPE      C210          -27.9915465263       22.1613084682       -8.6579370928  MEMB      263             0.0000000000
     32683       263  QMPE      H10R          -27.3645181295       22.5116498120       -7.8103424906  MEMB      263             0.0000000000
     32684       263  QMPE      C211          -28.6687863418       20.7655107909       -8.5537619767  MEMB      263             0.0000000000
     32685       263  QMPE      H11R          -28.9398038914       20.4134389738       -9.5720529397  MEMB      263             0.0000000000
     32686       263  QMPE      H11S          -28.0356417888       19.9688145499       -8.1079772139  MEMB      263             0.0000000000
     32687       263  QMPE      C212          -29.9982528074       20.8854614834       -7.7456202158  MEMB      263             0.0000000000
     32688       263  QMPE      H12R          -30.5272969540       19.9135171513       -7.8443981613  MEMB      263             0.0000000000
     32689       263  QMPE      H12S          -30.5487962467       21.7266296629       -8.2185461972  MEMB      263             0.0000000000
     32690       263  QMPE      C213          -29.7761182484       21.0504959556       -6.1592264311  MEMB      263             0.0000000000
     32691       263  QMPE      H13R          -28.9000885398       21.6598340247       -5.8500341879  MEMB      263             0.0000000000
     32692       263  QMPE      H13S          -29.5213153888       20.0725869967       -5.6976092387  MEMB      263             0.0000000000
     32693       263  QMPE      C214          -31.0253526608       21.4736823483       -5.3087484725  MEMB      263             0.0000000000
     32694       263  QMPE      H14R          -31.8032437330       20.6804899709       -5.3159842022  MEMB      263             0.0000000000
     32695       263  QMPE      H14S          -31.4640055555       22.3703446078       -5.7964998337  MEMB      263             0.0000000000
     32696       263  QMPE      C215          -30.7630634450       21.7451628995       -3.8136944397  MEMB      263             0.0000000000
     32697       263  QMPE      H15R          -29.7098986609       22.0675253892       -3.6679299960  MEMB      263             0.0000000000
     32698       263  QMPE      H15S          -30.8893281093       20.8211340422       -3.2099155767  MEMB      263             0.0000000000
     32699       263  QMPE      C216          -31.6177067777       22.8710469491       -3.2141599156  MEMB      263             0.0000000000
     32700       263  QMPE      H16R          -30.9903318413       23.5441665128       -2.5915576597  MEMB      263             0.0000000000
     32701       263  QMPE      H16S          -32.5097124881       22.4804831751       -2.6792703149  MEMB      263             0.0000000000
     32702       263  QMPE      H16T          -31.9786936269       23.5052083512       -4.0519240015  MEMB      263             0.0000000000
     32703       263  QMPE      C33           -32.4930191339       16.9552588432      -10.4176777407  MEMB      263             0.0000000000
     32704       263  QMPE      H3X           -32.1570889876       15.9365995712      -10.7071685078  MEMB      263             0.0000000000
     32705       263  QMPE      H3Y           -33.6020387127       17.0199983972      -10.4320087427  MEMB      263             0.0000000000
     32706       263  QMPE      C34           -31.9062136828       17.2529002642       -8.9954467465  MEMB      263             0.0000000000
     32707       263  QMPE      H4X           -32.6943865148       16.8424053387       -8.3286650239  MEMB      263             0.0000000000
     32708       263  QMPE      H4Y           -31.7515638835       18.3418937434       -8.8389322604  MEMB      263             0.0000000000
     32709       263  QMPE      C35           -30.5728706567       16.5441178707       -8.5667892724  MEMB      263             0.0000000000
     32710       263  QMPE      H5X           -29.8902319417       16.9285263677       -9.3545427683  MEMB      263             0.0000000000
     32711       263  QMPE      H5Y           -30.5304401198       15.4398515921       -8.6813164688  MEMB      263             0.0000000000
     32712       263  QMPE      C36           -30.0734724013       16.8211926669       -7.0934095651  MEMB      263             0.0000000000
     32713       263  QMPE      H6X           -30.0672447229       17.9299788377       -7.0235878292  MEMB      263             0.0000000000
     32714       263  QMPE      H6Y           -29.0805456673       16.3648236316       -6.8930485722  MEMB      263             0.0000000000
     32715       263  QMPE      C37           -30.9552148840       16.3730322106       -5.9134109675  MEMB      263             0.0000000000
     32716       263  QMPE      H7X           -32.0313263943       16.3641987429       -6.1895040136  MEMB      263             0.0000000000
     32717       263  QMPE      H7Y           -30.6698153305       15.3359636733       -5.6352786051  MEMB      263             0.0000000000
     32718       263  QMPE      C38           -30.6376590256       17.3023169723       -4.7367703681  MEMB      263             0.0000000000
     32719       263  QMPE      H8X           -29.6845920539       17.1197555638       -4.1957940646  MEMB      263             0.0000000000
     32720       263  QMPE      H8Y           -30.8448967951       18.3329854062       -5.0960697971  MEMB      263             0.0000000000
     32721       263  QMPE      C39           -31.6074255569       16.9781774252       -3.5531337429  MEMB      263             0.0000000000
     32722       263  QMPE      H9X           -31.4126459601       15.9002581583       -3.3674674390  MEMB      263             0.0000000000
     32723       263  QMPE      H9Y           -32.6476872146       17.1175102903       -3.9175001538  MEMB      263             0.0000000000
     32724       263  QMPE      C310          -31.2819136697       17.7365203816       -2.3180962850  MEMB      263             0.0000000000
     32725       263  QMPE      H10X          -31.4096640742       18.8198265213       -2.5289246580  MEMB      263             0.0000000000
     32726       263  QMPE      H10Y          -30.2081910332       17.6749676702       -2.0394356614  MEMB      263             0.0000000000
     32727       263  QMPE      C311          -32.0918731800       17.2942088410       -1.0449258804  MEMB      263             0.0000000000
     32728       263  QMPE      H11X          -32.0176571241       16.1861393742       -1.0133715174  MEMB      263             0.0000000000
     32729       263  QMPE      H11Y          -33.1849756255       17.4723476442       -1.1327586692  MEMB      263             0.0000000000
     32730       263  QMPE      C312          -31.5622049154       17.8836827446        0.2621015163  MEMB      263             0.0000000000
     32731       263  QMPE      H12X          -30.4556812243       17.9826909546        0.2510046608  MEMB      263             0.0000000000
     32732       263  QMPE      H12Y          -31.8385691403       17.1183218457        1.0185185596  MEMB      263             0.0000000000
     32733       263  QMPE      C313          -32.0861029049       19.2613474129        0.6174130543  MEMB      263             0.0000000000
     32734       263  QMPE      H13X          -31.7234296615       20.0412217605       -0.0858544854  MEMB      263             0.0000000000
     32735       263  QMPE      H13Y          -33.1800524083       19.3416882696        0.4409455134  MEMB      263             0.0000000000
     32736       263  QMPE      C314          -31.6546889080       19.7850293182        2.0361634681  MEMB      263             0.0000000000
     32737       263  QMPE      H14X          -31.8565312090       20.8767841492        1.9955266038  MEMB      263             0.0000000000
     32738       263  QMPE      H14Y          -30.5675980688       19.6584028383        2.2272666293  MEMB      263             0.0000000000
     32739       263  QMPE      C315          -32.3576990732       19.0235913762        3.2048940585  MEMB      263             0.0000000000
     32740       263  QMPE      H15X          -31.9986530839       17.9924971083        2.9993428760  MEMB      263             0.0000000000
     32741       263  QMPE      H15Y          -32.0312640470       19.3913970625        4.2011258344  MEMB      263             0.0000000000
     32742       263  QMPE      H15Z          -33.4366535692       19.2160998647        3.0229082642  MEMB      263             0.0000000000
     32743       264  PYPG      C13            35.7608002706       15.7403927855      -18.8999390708  MEMB      264             0.0000000000
     32744       264  PYPG      H13A           36.3857170331       15.1236395043      -19.5806852726  MEMB      264             0.0000000000
     32745       264  PYPG      H13B           35.9092421805       16.8348218538      -19.0204004681  MEMB      264             0.0000000000
     32746       264  PYPG      OC3            35.9771290627       15.6422734300      -17.4677926283  MEMB      264             0.0000000000
     32747       264  PYPG      HO3            35.1268100532       15.5397494175      -17.0341493818  MEMB      264             0.0000000000
     32748       264  PYPG      C12            34.3080092433       15.3720908490      -19.3582654523  MEMB      264             0.0000000000
     32749       264  PYPG      H12A           34.1605421005       14.2867031500      -19.1509829772  MEMB      264             0.0000000000
     32750       264  PYPG      OC2            34.1697347515       15.5747928797      -20.7653308174  MEMB      264             0.0000000000
     32751       264  PYPG      HO2            33.2069462295       15.4486948631      -20.9131631281  MEMB      264             0.0000000000
     32752       264  PYPG      C11            33.2107984123       16.1382847993      -18.6108745605  MEMB      264             0.0000000000
     32753       264  PYPG      H11A           33.4390436283       17.2194383848      -18.7263388579  MEMB      264             0.0000000000
     32754       264  PYPG      H11B           33.3251915501       16.0026339498      -17.5141366560  MEMB      264             0.0000000000
     32755       264  PYPG      P              30.6981824844       16.7532979319      -19.0128130019  MEMB      264             0.0000000000
     32756       264  PYPG      O13            29.4372344135       16.0970755308      -18.6747758140  MEMB      264             0.0000000000
     32757       264  PYPG      O14            30.7893494497       17.5597672748      -20.2473891202  MEMB      264             0.0000000000
     32758       264  PYPG      O11            31.0563770821       17.7971264822      -17.8792929191  MEMB      264             0.0000000000
     32759       264  PYPG      O12            31.8920288522       15.7237630277      -19.0835266151  MEMB      264             0.0000000000
     32760       264  PYPG      C1             30.1327412176       17.8984122500      -16.7810850949  MEMB      264             0.0000000000
     32761       264  PYPG      HA             30.1059427898       16.8435401046      -16.4334534215  MEMB      264             0.0000000000
     32762       264  PYPG      HB             29.1242590493       18.2512859931      -17.0856574547  MEMB      264             0.0000000000
     32763       264  PYPG      C2             30.7257120763       18.5232456997      -15.5391613794  MEMB      264             0.0000000000
     32764       264  PYPG      HS             30.6551723244       19.6286080838      -15.6258748704  MEMB      264             0.0000000000
     32765       264  PYPG      O21            32.1256741620       18.1630206313      -15.4481474681  MEMB      264             0.0000000000
     32766       264  PYPG      C21            32.8491381406       18.9045791514      -14.5696756901  MEMB      264             0.0000000000
     32767       264  PYPG      O22            32.3272239592       19.6772419615      -13.7554130577  MEMB      264             0.0000000000
     32768       264  PYPG      C22            34.3311521406       18.6303543689      -14.7782003343  MEMB      264             0.0000000000
     32769       264  PYPG      H2R            34.7162562196       18.9910451695      -15.7559109205  MEMB      264             0.0000000000
     32770       264  PYPG      H2S            34.5617799798       17.5445601027      -14.7314836921  MEMB      264             0.0000000000
     32771       264  PYPG      C3             29.9612640537       18.0850524287      -14.2654144143  MEMB      264             0.0000000000
     32772       264  PYPG      HX             28.8744295311       18.0960181912      -14.4956134304  MEMB      264             0.0000000000
     32773       264  PYPG      HY             30.0285464421       18.8237263611      -13.4382780695  MEMB      264             0.0000000000
     32774       264  PYPG      O31            30.3058209900       16.7129669653      -13.8162701732  MEMB      264             0.0000000000
     32775       264  PYPG      C31            31.0369704831       16.4972506850      -12.8070988177  MEMB      264             0.0000000000
     32776       264  PYPG      O32            31.7133436757       17.2394083199      -12.1885221004  MEMB      264             0.0000000000
     32777       264  PYPG      C32            31.1382745935       14.9052606775      -12.6353869943  MEMB      264             0.0000000000
     32778       264  PYPG      H2X            30.1211281307       14.4623353764      -12.5757946180  MEMB      264             0.0000000000
     32779       264  PYPG      H2Y            31.6124308608       14.4956544986      -13.5528398772  MEMB      264             0.0000000000
     32780       264  PYPG      C23            35.1376901843       19.1743923911      -13.5489521530  MEMB      264             0.0000000000
     32781       264  PYPG      H3R            34.7964936115       20.1772240848      -13.2139369886  MEMB      264             0.0000000000
     32782       264  PYPG      H3S            36.2190500279       19.2632418048      -13.7878835432  MEMB      264             0.0000000000
     32783       264  PYPG      C24            35.1326753959       18.1784598405      -12.3503744231  MEMB      264             0.0000000000
     32784       264  PYPG      H4R            35.3934552281       17.1652155451      -12.7240731518  MEMB      264             0.0000000000
     32785       264  PYPG      H4S            34.0985884382       18.0591369185      -11.9621126961  MEMB      264             0.0000000000
     32786       264  PYPG      C25            36.1076960352       18.5469663940      -11.2091896713  MEMB      264             0.0000000000
     32787       264  PYPG      H5R            35.9651777780       19.5840460061      -10.8370666217  MEMB      264             0.0000000000
     32788       264  PYPG      H5S            37.0912408550       18.5115788097      -11.7246588855  MEMB      264             0.0000000000
     32789       264  PYPG      C26            36.0849342843       17.5266689763      -10.0737567889  MEMB      264             0.0000000000
     32790       264  PYPG      H6R            36.8699274503       17.8469894890       -9.3557728768  MEMB      264             0.0000000000
     32791       264  PYPG      H6S            36.3322933326       16.5682438903      -10.5782922659  MEMB      264             0.0000000000
     32792       264  PYPG      C27            34.7120065228       17.3803990298       -9.3681835051  MEMB      264             0.0000000000
     32793       264  PYPG      H7R            34.9287380135       16.7153442020       -8.5050201908  MEMB      264             0.0000000000
     32794       264  PYPG      H7S            34.0570062510       16.9021946862      -10.1275362016  MEMB      264             0.0000000000
     32795       264  PYPG      C28            33.9953137888       18.6228838384       -8.8630049563  MEMB      264             0.0000000000
     32796       264  PYPG      H8R            33.9879228029       19.3547450827       -9.6988552261  MEMB      264             0.0000000000
     32797       264  PYPG      H8S            34.7686055876       19.1200888444       -8.2392034594  MEMB      264             0.0000000000
     32798       264  PYPG      C29            32.5536639322       18.4127988620       -8.3615263991  MEMB      264             0.0000000000
     32799       264  PYPG      H9R            31.8611192802       18.2035943306       -9.1901489569  MEMB      264             0.0000000000
     32800       264  PYPG      C210           32.0250986949       18.4825613315       -7.1632415584  MEMB      264             0.0000000000
     32801       264  PYPG      H10R           30.9658811597       18.1863556347       -7.1453437157  MEMB      264             0.0000000000
     32802       264  PYPG      C211           32.7387717249       18.8573587237       -5.8800537633  MEMB      264             0.0000000000
     32803       264  PYPG      H11R           32.1269790657       19.7150383123       -5.5273266659  MEMB      264             0.0000000000
     32804       264  PYPG      H11S           33.8128630628       19.1091333135       -6.0114239413  MEMB      264             0.0000000000
     32805       264  PYPG      C212           32.5293277657       17.7108686483       -4.8149098659  MEMB      264             0.0000000000
     32806       264  PYPG      H12R           32.7324155901       16.7164361785       -5.2667729861  MEMB      264             0.0000000000
     32807       264  PYPG      H12S           31.4737020587       17.5477715862       -4.5093375525  MEMB      264             0.0000000000
     32808       264  PYPG      C213           33.4166535441       18.0033800602       -3.5667967571  MEMB      264             0.0000000000
     32809       264  PYPG      H13R           34.4812519547       17.9265860957       -3.8751052705  MEMB      264             0.0000000000
     32810       264  PYPG      H13S           33.1803165934       17.3286632237       -2.7163719542  MEMB      264             0.0000000000
     32811       264  PYPG      C214           33.2415079083       19.3948628687       -2.9828415172  MEMB      264             0.0000000000
     32812       264  PYPG      H14R           33.6073108920       20.1760519635       -3.6830225137  MEMB      264             0.0000000000
     32813       264  PYPG      H14S           32.2003930901       19.6387404706       -2.6813037843  MEMB      264             0.0000000000
     32814       264  PYPG      C215           34.0402690155       19.3971628101       -1.6148379822  MEMB      264             0.0000000000
     32815       264  PYPG      H15R           33.6727127312       18.5138640818       -1.0500309468  MEMB      264             0.0000000000
     32816       264  PYPG      H15S           33.8849213072       20.2941781533       -0.9780088952  MEMB      264             0.0000000000
     32817       264  PYPG      C216           35.4491538188       19.1943767828       -1.8333740482  MEMB      264             0.0000000000
     32818       264  PYPG      H16R           35.9590781040       19.3685004323       -0.8617879550  MEMB      264             0.0000000000
     32819       264  PYPG      H16S           35.9164379005       20.0112144469       -2.4239176278  MEMB      264             0.0000000000
     32820       264  PYPG      H16T           35.6286549827       18.1632765741       -2.2061107513  MEMB      264             0.0000000000
     32821       264  PYPG      C33            32.0455302088       14.5328608518      -11.4614381122  MEMB      264             0.0000000000
     32822       264  PYPG      H3X            33.0109837697       15.0688752454      -11.5835411185  MEMB      264             0.0000000000
     32823       264  PYPG      H3Y            32.3035767696       13.4544590741      -11.5305924992  MEMB      264             0.0000000000
     32824       264  PYPG      C34            31.4930137597       14.8694105495      -10.0660086343  MEMB      264             0.0000000000
     32825       264  PYPG      H4X            30.4023181113       14.6619577874      -10.1068464026  MEMB      264             0.0000000000
     32826       264  PYPG      H4Y            31.6394432583       15.9706197384      -10.0807672277  MEMB      264             0.0000000000
     32827       264  PYPG      C35            32.1201956235       14.2133383375       -8.8478498562  MEMB      264             0.0000000000
     32828       264  PYPG      H5X            33.1526553916       14.5822570205       -8.6682766347  MEMB      264             0.0000000000
     32829       264  PYPG      H5Y            32.1439808590       13.1266108897       -9.0775866928  MEMB      264             0.0000000000
     32830       264  PYPG      C36            31.3815222719       14.4370216982       -7.5666888928  MEMB      264             0.0000000000
     32831       264  PYPG      H6X            30.3514243373       14.0306622608       -7.6566408011  MEMB      264             0.0000000000
     32832       264  PYPG      H6Y            31.2688087708       15.5037702557       -7.2774413855  MEMB      264             0.0000000000
     32833       264  PYPG      C37            32.0202285668       13.7521382506       -6.3238827888  MEMB      264             0.0000000000
     32834       264  PYPG      H7X            31.3789260261       14.1025535166       -5.4870665988  MEMB      264             0.0000000000
     32835       264  PYPG      H7Y            31.9213292885       12.6460645269       -6.3576615267  MEMB      264             0.0000000000
     32836       264  PYPG      C38            33.4192676212       14.1578162841       -5.9592537989  MEMB      264             0.0000000000
     32837       264  PYPG      H8X            33.4976983186       15.2203194049       -6.2743032110  MEMB      264             0.0000000000
     32838       264  PYPG      H8Y            34.1652175383       13.6272552341       -6.5888440481  MEMB      264             0.0000000000
     32839       264  PYPG      C39            33.7894337302       13.8104052867       -4.4917457255  MEMB      264             0.0000000000
     32840       264  PYPG      H9X            33.6320226956       12.7139090207       -4.4066668471  MEMB      264             0.0000000000
     32841       264  PYPG      H9Y            33.0827404811       14.3478125559       -3.8238394275  MEMB      264             0.0000000000
     32842       264  PYPG      C310           35.3226302595       13.9965319837       -4.2364643842  MEMB      264             0.0000000000
     32843       264  PYPG      H10X           35.7568222853       15.0179247928       -4.1859170593  MEMB      264             0.0000000000
     32844       264  PYPG      H10Y           35.8415569495       13.4635500324       -5.0616714579  MEMB      264             0.0000000000
     32845       264  PYPG      C311           35.7549688771       13.4994340564       -2.8746775615  MEMB      264             0.0000000000
     32846       264  PYPG      H11X           35.3509918043       12.4644871131       -2.8775510239  MEMB      264             0.0000000000
     32847       264  PYPG      H11Y           35.3963795976       14.2080773488       -2.0977864714  MEMB      264             0.0000000000
     32848       264  PYPG      C312           37.2728095434       13.3562730751       -2.6127351386  MEMB      264             0.0000000000
     32849       264  PYPG      H12X           37.6062974136       12.4284375531       -3.1248180660  MEMB      264             0.0000000000
     32850       264  PYPG      H12Y           37.9469875968       14.1390080399       -3.0215533580  MEMB      264             0.0000000000
     32851       264  PYPG      C313           37.6567493167       13.3203455847       -1.0557253643  MEMB      264             0.0000000000
     32852       264  PYPG      H13X           36.8953689827       12.7412081609       -0.4907282909  MEMB      264             0.0000000000
     32853       264  PYPG      H13Y           38.5674948528       12.7058602667       -0.8905856119  MEMB      264             0.0000000000
     32854       264  PYPG      C314           37.8090289709       14.7739996137       -0.4318392369  MEMB      264             0.0000000000
     32855       264  PYPG      H14X           38.9069281394       14.9405959263       -0.4662571162  MEMB      264             0.0000000000
     32856       264  PYPG      H14Y           37.1823103162       15.4826742511       -1.0143555962  MEMB      264             0.0000000000
     32857       264  PYPG      C315           37.3146085647       14.8859456952        1.0421783677  MEMB      264             0.0000000000
     32858       264  PYPG      H15X           37.5264610892       13.8642417021        1.4237030944  MEMB      264             0.0000000000
     32859       264  PYPG      H15Y           37.9786888413       15.7117694491        1.3758455593  MEMB      264             0.0000000000
     32860       264  PYPG      C316           35.8731110590       15.2509157240        1.2437525102  MEMB      264             0.0000000000
     32861       264  PYPG      H16X           35.8094812218       16.3591981932        1.1992286714  MEMB      264             0.0000000000
     32862       264  PYPG      H16Y           35.7043120425       15.1144802351        2.3333454820  MEMB      264             0.0000000000
     32863       264  PYPG      H16Z           35.1800416292       14.7122963357        0.5626743809  MEMB      264             0.0000000000
     32864       265  QMPE      N              36.0273669237      -15.7295934395      -20.0241349707  MEMB      265             0.0000000000
     32865       265  QMPE      HN1            35.0287443755      -15.8904708671      -20.2659443095  MEMB      265             0.0000000000
     32866       265  QMPE      HN2            36.6870688830      -16.2698060379      -20.6195873786  MEMB      265             0.0000000000
     32867       265  QMPE      HN3            36.0506564598      -15.9323885606      -19.0043645294  MEMB      265             0.0000000000
     32868       265  QMPE      C12            36.1951288650      -14.2767481713      -20.2819931710  MEMB      265             0.0000000000
     32869       265  QMPE      H12A           35.8078317194      -13.9485542704      -21.2702295362  MEMB      265             0.0000000000
     32870       265  QMPE      H12B           37.2699931861      -14.0830923335      -20.0783149306  MEMB      265             0.0000000000
     32871       265  QMPE      C11            35.5026920937      -13.3606501420      -19.3668948128  MEMB      265             0.0000000000
     32872       265  QMPE      H11A           35.9074154346      -12.3275529449      -19.4237291673  MEMB      265             0.0000000000
     32873       265  QMPE      H11B           35.7830232964      -13.6790435392      -18.3400739017  MEMB      265             0.0000000000
     32874       265  QMPE      P              33.1187282596      -12.6228665662      -18.5139793636  MEMB      265             0.0000000000
     32875       265  QMPE      O13            31.9392015614      -13.5094055101      -18.1941043176  MEMB      265             0.0000000000
     32876       265  QMPE      O14            32.8412553297      -11.2766311779      -18.9723714078  MEMB      265             0.0000000000
     32877       265  QMPE      O11            33.9545425841      -12.5133114253      -17.1418772550  MEMB      265             0.0000000000
     32878       265  QMPE      O12            34.0783067781      -13.3083207758      -19.5046446978  MEMB      265             0.0000000000
     32879       265  QMPE      C1             33.2276336416      -11.8257909418      -16.0400724217  MEMB      265             0.0000000000
     32880       265  QMPE      HA             32.9269117679      -12.5645396122      -15.2666787999  MEMB      265             0.0000000000
     32881       265  QMPE      HB             32.2432907538      -11.3983436726      -16.3276115695  MEMB      265             0.0000000000
     32882       265  QMPE      C2             34.2026114632      -10.7471884816      -15.3835664217  MEMB      265             0.0000000000
     32883       265  QMPE      HS             34.4246017841      -10.1108632491      -16.2668169141  MEMB      265             0.0000000000
     32884       265  QMPE      O21            35.4231633977      -11.3094442235      -14.8426359735  MEMB      265             0.0000000000
     32885       265  QMPE      C21            36.4888487691      -10.4166676847      -14.7384944755  MEMB      265             0.0000000000
     32886       265  QMPE      O22            36.3998537924       -9.2745859807      -14.9846422789  MEMB      265             0.0000000000
     32887       265  QMPE      C22            37.7805345011      -11.1647964460      -14.2612639083  MEMB      265             0.0000000000
     32888       265  QMPE      H2R            38.6319595874      -10.4808334206      -14.4652026070  MEMB      265             0.0000000000
     32889       265  QMPE      H2S            38.0235196499      -12.0694162061      -14.8587107736  MEMB      265             0.0000000000
     32890       265  QMPE      C3             33.5204114176       -9.9818321805      -14.2507374229  MEMB      265             0.0000000000
     32891       265  QMPE      HX             32.4677744764       -9.7958709997      -14.5535491962  MEMB      265             0.0000000000
     32892       265  QMPE      HY             34.0435971977       -9.0187615771      -14.0688227710  MEMB      265             0.0000000000
     32893       265  QMPE      O31            33.5019904145      -10.8577742968      -13.1097030317  MEMB      265             0.0000000000
     32894       265  QMPE      C31            33.1199471907      -10.3239413830      -11.8903048515  MEMB      265             0.0000000000
     32895       265  QMPE      O32            32.6397941504       -9.2091566245      -11.8015585276  MEMB      265             0.0000000000
     32896       265  QMPE      C32            33.3142897817      -11.3011061850      -10.7608066676  MEMB      265             0.0000000000
     32897       265  QMPE      H2X            33.8391357606      -10.7797088116       -9.9319504077  MEMB      265             0.0000000000
     32898       265  QMPE      H2Y            32.3191481195      -11.5644730214      -10.3428928297  MEMB      265             0.0000000000
     32899       265  QMPE      C23            37.4953537323      -11.4972077772      -12.8157735408  MEMB      265             0.0000000000
     32900       265  QMPE      H3R            38.3673909341      -12.0846733088      -12.4569471640  MEMB      265             0.0000000000
     32901       265  QMPE      H3S            36.5042579221      -11.9914236303      -12.7274518539  MEMB      265             0.0000000000
     32902       265  QMPE      C24            37.5522856451      -10.2420770795      -11.8519544601  MEMB      265             0.0000000000
     32903       265  QMPE      H4R            36.6262856419       -9.6439632976      -11.9901747849  MEMB      265             0.0000000000
     32904       265  QMPE      H4S            38.4545378927       -9.6032715269      -11.9623612557  MEMB      265             0.0000000000
     32905       265  QMPE      C25            37.4757622973      -10.5711656679      -10.3416570236  MEMB      265             0.0000000000
     32906       265  QMPE      H5R            38.4038156779      -11.1750413084      -10.2501581009  MEMB      265             0.0000000000
     32907       265  QMPE      H5S            36.5967449904      -11.2085898252      -10.1064124885  MEMB      265             0.0000000000
     32908       265  QMPE      C26            37.4865454806       -9.3447474184       -9.3713981860  MEMB      265             0.0000000000
     32909       265  QMPE      H6R            36.5791978096       -8.7388495485       -9.5809906062  MEMB      265             0.0000000000
     32910       265  QMPE      H6S            38.3388963482       -8.6862362504       -9.6437617498  MEMB      265             0.0000000000
     32911       265  QMPE      C27            37.3327544524       -9.7797879339       -7.9390661282  MEMB      265             0.0000000000
     32912       265  QMPE      H7R            38.3206294357       -9.7143834364       -7.4349377472  MEMB      265             0.0000000000
     32913       265  QMPE      H7S            36.8890273934      -10.7982055540       -7.9231599186  MEMB      265             0.0000000000
     32914       265  QMPE      C28            36.5136869519       -8.8078040490       -7.0494787672  MEMB      265             0.0000000000
     32915       265  QMPE      H8R            36.8600338103       -7.7581552358       -7.1617368214  MEMB      265             0.0000000000
     32916       265  QMPE      H8S            36.6246871196       -8.9559652952       -5.9540111303  MEMB      265             0.0000000000
     32917       265  QMPE      C29            35.0913323669       -8.8858389232       -7.5204690349  MEMB      265             0.0000000000
     32918       265  QMPE      H9R            34.5226212107       -9.8390695178       -7.4731394238  MEMB      265             0.0000000000
     32919       265  QMPE      C217           34.3912485294       -7.7178414860       -8.1685414548  MEMB      265             0.0000000000
     32920       265  QMPE      H17R           35.0586449876       -6.8881070855       -8.3660558144  MEMB      265             0.0000000000
     32921       265  QMPE      H17S           33.4007691007       -7.7827363984       -8.6017027401  MEMB      265             0.0000000000
     32922       265  QMPE      C210           34.1552714377       -7.9767979131       -6.7153231486  MEMB      265             0.0000000000
     32923       265  QMPE      H10R           33.0963738078       -8.2461435735       -6.5140523690  MEMB      265             0.0000000000
     32924       265  QMPE      C211           34.6599940821       -6.9601954813       -5.6241586684  MEMB      265             0.0000000000
     32925       265  QMPE      H11R           35.6672666949       -6.5935141303       -5.9161651624  MEMB      265             0.0000000000
     32926       265  QMPE      H11S           33.9848621817       -6.0800415581       -5.6861855994  MEMB      265             0.0000000000
     32927       265  QMPE      C212           34.7107003560       -7.5056345501       -4.2234121627  MEMB      265             0.0000000000
     32928       265  QMPE      H12R           35.3693425756       -8.3799530393       -4.4133561662  MEMB      265             0.0000000000
     32929       265  QMPE      H12S           33.6747789541       -7.7398538119       -3.8973310758  MEMB      265             0.0000000000
     32930       265  QMPE      C213           35.2255471379       -6.4533126815       -3.1670501943  MEMB      265             0.0000000000
     32931       265  QMPE      H13R           34.3544205559       -5.8745766561       -2.7921840636  MEMB      265             0.0000000000
     32932       265  QMPE      H13S           35.8845872724       -5.6328834590       -3.5232557822  MEMB      265             0.0000000000
     32933       265  QMPE      C214           35.7209180616       -7.0836498776       -1.8417508128  MEMB      265             0.0000000000
     32934       265  QMPE      H14R           35.8837825146       -6.3485271262       -1.0248117932  MEMB      265             0.0000000000
     32935       265  QMPE      H14S           36.6330333180       -7.6488408488       -2.1297195249  MEMB      265             0.0000000000
     32936       265  QMPE      C215           34.8425648988       -8.2074520389       -1.2521269805  MEMB      265             0.0000000000
     32937       265  QMPE      H15R           35.4522170673       -8.4531542830       -0.3564284596  MEMB      265             0.0000000000
     32938       265  QMPE      H15S           34.6967151908       -8.9700054549       -2.0468336799  MEMB      265             0.0000000000
     32939       265  QMPE      C216           33.4002444670       -7.6752365330       -0.7533679470  MEMB      265             0.0000000000
     32940       265  QMPE      H16R           33.0794726651       -7.9560632426        0.2725771804  MEMB      265             0.0000000000
     32941       265  QMPE      H16S           32.6347463639       -8.0553539490       -1.4631887220  MEMB      265             0.0000000000
     32942       265  QMPE      H16T           33.3669896873       -6.5673623201       -0.8297215352  MEMB      265             0.0000000000
     32943       265  QMPE      C33            33.9521890470      -12.6908377338      -11.0424530031  MEMB      265             0.0000000000
     32944       265  QMPE      H3X            34.9938832564      -12.6520115966      -11.4267534942  MEMB      265             0.0000000000
     32945       265  QMPE      H3Y            33.2747273665      -13.1856066652      -11.7708560379  MEMB      265             0.0000000000
     32946       265  QMPE      C34            33.8902371000      -13.7143912678       -9.8210886584  MEMB      265             0.0000000000
     32947       265  QMPE      H4X            34.5856158654      -14.5727544882       -9.9393335536  MEMB      265             0.0000000000
     32948       265  QMPE      H4Y            32.8573256240      -14.1226348729       -9.7936707073  MEMB      265             0.0000000000
     32949       265  QMPE      C35            34.3899306139      -13.1384926634       -8.5174551890  MEMB      265             0.0000000000
     32950       265  QMPE      H5X            33.6265077168      -12.3875368795       -8.2215296570  MEMB      265             0.0000000000
     32951       265  QMPE      H5Y            35.3513651976      -12.5896697032       -8.6110404142  MEMB      265             0.0000000000
     32952       265  QMPE      C36            34.5490698034      -14.2415615004       -7.5039419486  MEMB      265             0.0000000000
     32953       265  QMPE      H6X            35.3669040676      -14.9173045710       -7.8338501907  MEMB      265             0.0000000000
     32954       265  QMPE      H6Y            33.5815206551      -14.7615764213       -7.3373463468  MEMB      265             0.0000000000
     32955       265  QMPE      C37            34.9969633334      -13.7730133884       -6.1697631222  MEMB      265             0.0000000000
     32956       265  QMPE      H7X            34.2286034051      -12.9826587261       -6.0308983433  MEMB      265             0.0000000000
     32957       265  QMPE      H7Y            34.8977124242      -14.5894273066       -5.4228101797  MEMB      265             0.0000000000
     32958       265  QMPE      C38            36.3115080010      -13.1013257485       -5.8997166637  MEMB      265             0.0000000000
     32959       265  QMPE      H8X            37.1153118552      -13.5845525414       -6.4952946346  MEMB      265             0.0000000000
     32960       265  QMPE      H8Y            36.1923009687      -12.1414788428       -6.4463473316  MEMB      265             0.0000000000
     32961       265  QMPE      C39            36.6272914898      -12.7743899256       -4.4299696751  MEMB      265             0.0000000000
     32962       265  QMPE      H9X            36.7015671405      -13.7378006243       -3.8816601364  MEMB      265             0.0000000000
     32963       265  QMPE      H9Y            35.7158592636      -12.2762739324       -4.0356441013  MEMB      265             0.0000000000
     32964       265  QMPE      C310           37.8648159737      -11.7912929034       -4.2834520912  MEMB      265             0.0000000000
     32965       265  QMPE      H10X           37.7151097683      -11.1550321894       -5.1818294143  MEMB      265             0.0000000000
     32966       265  QMPE      H10Y           38.7514943855      -12.4574047852       -4.3499129915  MEMB      265             0.0000000000
     32967       265  QMPE      C311           37.8384853282      -10.8363151676       -3.0592208403  MEMB      265             0.0000000000
     32968       265  QMPE      H11X           36.8342638355      -10.7566902951       -2.5906918247  MEMB      265             0.0000000000
     32969       265  QMPE      H11Y           38.1343865390       -9.8255405697       -3.4129132440  MEMB      265             0.0000000000
     32970       265  QMPE      C312           38.6678628124      -11.3479981277       -1.8292734026  MEMB      265             0.0000000000
     32971       265  QMPE      H12X           38.6835081053      -10.5804204960       -1.0262163660  MEMB      265             0.0000000000
     32972       265  QMPE      H12Y           39.6857257550      -11.5437134506       -2.2292376993  MEMB      265             0.0000000000
     32973       265  QMPE      C313           38.1779578497      -12.6680574210       -1.1780844541  MEMB      265             0.0000000000
     32974       265  QMPE      H13X           37.1495937857      -12.4634619989       -0.8107581182  MEMB      265             0.0000000000
     32975       265  QMPE      H13Y           38.2531524279      -13.5739443714       -1.8168615581  MEMB      265             0.0000000000
     32976       265  QMPE      C314           39.0659460797      -13.1002735477        0.0295712686  MEMB      265             0.0000000000
     32977       265  QMPE      H14X           39.0785037489      -12.3040210498        0.8042610466  MEMB      265             0.0000000000
     32978       265  QMPE      H14Y           40.1195935661      -13.3524071772       -0.2165531446  MEMB      265             0.0000000000
     32979       265  QMPE      C315           38.4958088929      -14.4673912416        0.6428041301  MEMB      265             0.0000000000
     32980       265  QMPE      H15X           39.3279646804      -14.8311312832        1.2827502106  MEMB      265             0.0000000000
     32981       265  QMPE      H15Y           37.4908351870      -14.3035452665        1.0872168990  MEMB      265             0.0000000000
     32982       265  QMPE      H15Z           38.3354365017      -15.1854687795       -0.1896430110  MEMB      265             0.0000000000
     32983       266  POPE      N              30.1090061206       22.4590244399      -20.2776058980  MEMB      266             0.0000000000
     32984       266  POPE      HN1            31.0437973152       22.1245696507      -20.5872919834  MEMB      266             0.0000000000
     32985       266  POPE      HN2            29.8570308877       21.7933902903      -19.5192922217  MEMB      266             0.0000000000
     32986       266  POPE      HN3            29.5437983728       22.3125779658      -21.1382414119  MEMB      266             0.0000000000
     32987       266  POPE      C12            29.9584868805       23.7650520331      -19.5634104177  MEMB      266             0.0000000000
     32988       266  POPE      H12A           29.5113587264       24.4249447448      -20.3373219094  MEMB      266             0.0000000000
     32989       266  POPE      H12B           31.0080315105       24.0834675843      -19.3862417662  MEMB      266             0.0000000000
     32990       266  POPE      C11            29.0083773115       23.5556184235      -18.3394551416  MEMB      266             0.0000000000
     32991       266  POPE      H11A           29.2368734222       24.3214377898      -17.5676835984  MEMB      266             0.0000000000
     32992       266  POPE      H11B           29.4374256329       22.6486383895      -17.8623538809  MEMB      266             0.0000000000
     32993       266  POPE      P              26.7505174325       24.6508159736      -18.8337303301  MEMB      266             0.0000000000
     32994       266  POPE      O13            25.4003679529       24.1812689239      -19.2853135000  MEMB      266             0.0000000000
     32995       266  POPE      O14            27.3804706826       25.6907078008      -19.6627782170  MEMB      266             0.0000000000
     32996       266  POPE      O11            26.6895356174       25.1089636906      -17.2544007364  MEMB      266             0.0000000000
     32997       266  POPE      O12            27.6611900161       23.3518951203      -18.7833057389  MEMB      266             0.0000000000
     32998       266  POPE      C1             26.1413888497       24.2692079794      -16.2747517416  MEMB      266             0.0000000000
     32999       266  POPE      HA             26.8755576672       23.5553643722      -15.8437707983  MEMB      266             0.0000000000
     33000       266  POPE      HB             25.2544001781       23.7011189646      -16.6280885252  MEMB      266             0.0000000000
     33001       266  POPE      C2             25.6490819516       25.1557017217      -15.0508549664  MEMB      266             0.0000000000
     33002       266  POPE      HS             24.6379758646       25.5559510572      -15.2784204133  MEMB      266             0.0000000000
     33003       266  POPE      O21            26.5124812408       26.2974626975      -14.9426295967  MEMB      266             0.0000000000
     33004       266  POPE      C21            26.1674748026       27.3143381608      -14.0621063874  MEMB      266             0.0000000000
     33005       266  POPE      O22            25.1495284089       27.4386415997      -13.3854352308  MEMB      266             0.0000000000
     33006       266  POPE      C22            27.2710332536       28.3286100984      -14.1078758121  MEMB      266             0.0000000000
     33007       266  POPE      H2R            26.7653935676       29.2913231478      -14.3355456685  MEMB      266             0.0000000000
     33008       266  POPE      H2S            28.0576753694       28.2089524401      -14.8832447837  MEMB      266             0.0000000000
     33009       266  POPE      C3             25.6272146212       24.3294168394      -13.6665963065  MEMB      266             0.0000000000
     33010       266  POPE      HX             25.2742840580       23.3750961286      -14.1127274755  MEMB      266             0.0000000000
     33011       266  POPE      HY             24.9157848817       24.8075796059      -12.9598083966  MEMB      266             0.0000000000
     33012       266  POPE      O31            26.9683555085       24.4552198667      -13.1516722028  MEMB      266             0.0000000000
     33013       266  POPE      C31            27.3527867956       23.4330149934      -12.3972877219  MEMB      266             0.0000000000
     33014       266  POPE      O32            26.6214598197       22.4729714309      -12.1230669357  MEMB      266             0.0000000000
     33015       266  POPE      C32            28.8449291681       23.5413418100      -12.1166921002  MEMB      266             0.0000000000
     33016       266  POPE      H2X            29.2578938455       24.5274843044      -12.4188580396  MEMB      266             0.0000000000
     33017       266  POPE      H2Y            29.4559642532       22.7364640031      -12.5783511659  MEMB      266             0.0000000000
     33018       266  POPE      C23            28.0055052520       28.3940332807      -12.7178064452  MEMB      266             0.0000000000
     33019       266  POPE      H3R            27.8063180022       27.4329914859      -12.1971881155  MEMB      266             0.0000000000
     33020       266  POPE      H3S            27.7278510442       29.3246832395      -12.1782508823  MEMB      266             0.0000000000
     33021       266  POPE      C24            29.5793760754       28.3838081614      -12.9026187138  MEMB      266             0.0000000000
     33022       266  POPE      H4R            29.8808769041       29.2733407084      -13.4960410294  MEMB      266             0.0000000000
     33023       266  POPE      H4S            29.7987283653       27.4351914131      -13.4377190449  MEMB      266             0.0000000000
     33024       266  POPE      C25            30.3722140568       28.5242490938      -11.6060867944  MEMB      266             0.0000000000
     33025       266  POPE      H5R            29.9919513952       29.3860016791      -11.0169321418  MEMB      266             0.0000000000
     33026       266  POPE      H5S            31.3980146795       28.7472512319      -11.9698503865  MEMB      266             0.0000000000
     33027       266  POPE      C26            30.5623993811       27.2430324599      -10.7968850955  MEMB      266             0.0000000000
     33028       266  POPE      H6R            31.0704960068       26.4264286866      -11.3530476710  MEMB      266             0.0000000000
     33029       266  POPE      H6S            29.6369572575       26.9860979486      -10.2384386703  MEMB      266             0.0000000000
     33030       266  POPE      C27            31.5403422114       27.5177097997       -9.6034044127  MEMB      266             0.0000000000
     33031       266  POPE      H7R            31.2440687024       28.4681749923       -9.1102923907  MEMB      266             0.0000000000
     33032       266  POPE      H7S            32.5908446012       27.5184687187       -9.9650189696  MEMB      266             0.0000000000
     33033       266  POPE      C28            31.5089255405       26.3813650061       -8.5137949594  MEMB      266             0.0000000000
     33034       266  POPE      H8R            31.5688446399       25.4062440449       -9.0428225625  MEMB      266             0.0000000000
     33035       266  POPE      H8S            30.4355972136       26.4381249503       -8.2326089398  MEMB      266             0.0000000000
     33036       266  POPE      C29            32.3785549148       26.2684968308       -7.2704724911  MEMB      266             0.0000000000
     33037       266  POPE      H91            33.4705554871       26.1554713930       -7.3394672430  MEMB      266             0.0000000000
     33038       266  POPE      C210           31.9083467514       26.2841034460       -5.9988959147  MEMB      266             0.0000000000
     33039       266  POPE      H101           32.5715076697       25.9422729007       -5.1905831997  MEMB      266             0.0000000000
     33040       266  POPE      C211           30.5418561691       26.3683964676       -5.3471813164  MEMB      266             0.0000000000
     33041       266  POPE      H11R           29.9220850654       27.0521707153       -5.9657743748  MEMB      266             0.0000000000
     33042       266  POPE      H11S           30.6612235566       27.0411221636       -4.4711037628  MEMB      266             0.0000000000
     33043       266  POPE      C212           29.7287908721       25.1374450969       -4.8603695492  MEMB      266             0.0000000000
     33044       266  POPE      H12R           30.4308386502       24.4108027532       -4.3983729635  MEMB      266             0.0000000000
     33045       266  POPE      H12S           29.2152742885       24.7202170641       -5.7528622326  MEMB      266             0.0000000000
     33046       266  POPE      C213           28.7026523110       25.4524679420       -3.7919314979  MEMB      266             0.0000000000
     33047       266  POPE      H13R           27.9122332671       26.1273759392       -4.1844332670  MEMB      266             0.0000000000
     33048       266  POPE      H13S           29.2185099389       25.8911186351       -2.9111374655  MEMB      266             0.0000000000
     33049       266  POPE      C214           28.0240203416       24.1868247787       -3.5102294227  MEMB      266             0.0000000000
     33050       266  POPE      H14R           28.7082343090       23.3149618315       -3.4325938030  MEMB      266             0.0000000000
     33051       266  POPE      H14S           27.4788533198       23.8690125862       -4.4246193447  MEMB      266             0.0000000000
     33052       266  POPE      C215           27.1536772364       24.1068613525       -2.1831432118  MEMB      266             0.0000000000
     33053       266  POPE      H15R           26.3319071122       23.4045348425       -2.4395636148  MEMB      266             0.0000000000
     33054       266  POPE      H15S           26.7629883063       25.1145466026       -1.9257458554  MEMB      266             0.0000000000
     33055       266  POPE      C216           28.0312966486       23.5077137531       -1.1051970357  MEMB      266             0.0000000000
     33056       266  POPE      H16R           28.9032879941       24.1758414402       -0.9391930298  MEMB      266             0.0000000000
     33057       266  POPE      H16S           28.3822480459       22.5464316713       -1.5377378075  MEMB      266             0.0000000000
     33058       266  POPE      C217           27.3945940715       23.1653705447        0.2002694164  MEMB      266             0.0000000000
     33059       266  POPE      H17R           27.8000560222       22.2329168296        0.6479877963  MEMB      266             0.0000000000
     33060       266  POPE      H17S           26.3290032551       22.9039136406        0.0256891601  MEMB      266             0.0000000000
     33061       266  POPE      C218           27.3370208003       24.3998667648        1.1271964421  MEMB      266             0.0000000000
     33062       266  POPE      H18R           28.3739224381       24.7095186900        1.3787357201  MEMB      266             0.0000000000
     33063       266  POPE      H18S           26.8684911808       24.1957021102        2.1136632220  MEMB      266             0.0000000000
     33064       266  POPE      H18T           26.8267276739       25.3164583471        0.7614331949  MEMB      266             0.0000000000
     33065       266  POPE      C33            29.0663658672       23.4136519399      -10.5926354946  MEMB      266             0.0000000000
     33066       266  POPE      H3X            28.2939951402       22.7294785646      -10.1807238994  MEMB      266             0.0000000000
     33067       266  POPE      H3Y            29.0598280285       24.3656483781      -10.0199395898  MEMB      266             0.0000000000
     33068       266  POPE      C34            30.3676821051       22.6763646459      -10.3161139959  MEMB      266             0.0000000000
     33069       266  POPE      H4X            31.0921079269       23.4186712380      -10.7142457971  MEMB      266             0.0000000000
     33070       266  POPE      H4Y            30.2764046409       21.7554193078      -10.9308085499  MEMB      266             0.0000000000
     33071       266  POPE      C35            30.7031653101       22.5008893540       -8.8658666881  MEMB      266             0.0000000000
     33072       266  POPE      H5X            29.9758759221       21.8318661594       -8.3581470962  MEMB      266             0.0000000000
     33073       266  POPE      H5Y            30.8897021550       23.4703745296       -8.3563336159  MEMB      266             0.0000000000
     33074       266  POPE      C36            31.9758505239       21.6019271722       -8.6204021420  MEMB      266             0.0000000000
     33075       266  POPE      H6X            32.9652088673       22.0814663407       -8.7801952377  MEMB      266             0.0000000000
     33076       266  POPE      H6Y            31.9093075634       20.7653927908       -9.3484840913  MEMB      266             0.0000000000
     33077       266  POPE      C37            32.0029265749       20.8343600858       -7.2973786794  MEMB      266             0.0000000000
     33078       266  POPE      H7X            32.8319580986       20.0947616140       -7.2927633827  MEMB      266             0.0000000000
     33079       266  POPE      H7Y            31.0707667488       20.2442248097       -7.1664616594  MEMB      266             0.0000000000
     33080       266  POPE      C38            32.1869682444       21.6780125227       -6.0908582725  MEMB      266             0.0000000000
     33081       266  POPE      H8X            31.3092098446       22.3540746846       -6.0083898478  MEMB      266             0.0000000000
     33082       266  POPE      H8Y            33.1040859685       22.3047145638       -6.1123248091  MEMB      266             0.0000000000
     33083       266  POPE      C39            32.3562294255       20.9137552752       -4.7677954344  MEMB      266             0.0000000000
     33084       266  POPE      H9X            33.3633676141       20.4813966729       -4.5859704261  MEMB      266             0.0000000000
     33085       266  POPE      H9Y            31.6106213078       20.1028064299       -4.9118504347  MEMB      266             0.0000000000
     33086       266  POPE      C310           31.9725997313       21.8192669857       -3.5711131495  MEMB      266             0.0000000000
     33087       266  POPE      H10X           31.7304928706       20.9523160873       -2.9198819965  MEMB      266             0.0000000000
     33088       266  POPE      H10Y           31.0490996533       22.4054197281       -3.7657773149  MEMB      266             0.0000000000
     33089       266  POPE      C311           33.1791310281       22.6567436006       -3.1448240639  MEMB      266             0.0000000000
     33090       266  POPE      H11X           32.9694614830       23.6068308724       -3.6811955777  MEMB      266             0.0000000000
     33091       266  POPE      H11Y           34.1876456301       22.2254794452       -3.3215447018  MEMB      266             0.0000000000
     33092       266  POPE      C312           33.1365481299       22.9410535046       -1.5977289100  MEMB      266             0.0000000000
     33093       266  POPE      H12X           34.0362299150       23.4854284244       -1.2391915912  MEMB      266             0.0000000000
     33094       266  POPE      H12Y           33.1492139311       21.9423016481       -1.1112575586  MEMB      266             0.0000000000
     33095       266  POPE      C313           31.8385920431       23.7070552779       -1.1258443879  MEMB      266             0.0000000000
     33096       266  POPE      H13X           30.8836169397       23.1933401118       -1.3675903734  MEMB      266             0.0000000000
     33097       266  POPE      H13Y           31.8483609614       24.6691850688       -1.6813022873  MEMB      266             0.0000000000
     33098       266  POPE      C314           31.8300757955       24.0319835537        0.3457111034  MEMB      266             0.0000000000
     33099       266  POPE      H14X           31.1315877842       24.8721295419        0.5471813616  MEMB      266             0.0000000000
     33100       266  POPE      H14Y           32.7990624030       24.4731292835        0.6631645482  MEMB      266             0.0000000000
     33101       266  POPE      C315           31.3624233124       22.9672860584        1.3076729204  MEMB      266             0.0000000000
     33102       266  POPE      H15X           31.9761616059       22.0629999318        1.5074541582  MEMB      266             0.0000000000
     33103       266  POPE      H15Y           30.3770209897       22.5473962064        1.0127231971  MEMB      266             0.0000000000
     33104       266  POPE      C316           31.1218305640       23.3553290852        2.7718937039  MEMB      266             0.0000000000
     33105       266  POPE      H16X           31.9426206622       23.5362400502        3.4984594056  MEMB      266             0.0000000000
     33106       266  POPE      H16Y           30.3880581175       22.6703499031        3.2480275830  MEMB      266             0.0000000000
     33107       266  POPE      H16Z           30.5176132196       24.2875583126        2.7580882208  MEMB      266             0.0000000000
     33108       267  PMPE      N              30.4208327479      -23.3663640808      -19.9990142942  MEMB      267             0.0000000000
     33109       267  PMPE      HN1            30.8913219024      -23.4558248192      -20.9221810742  MEMB      267             0.0000000000
     33110       267  PMPE      HN2            30.1169073346      -24.3211842657      -19.7205406453  MEMB      267             0.0000000000
     33111       267  PMPE      HN3            29.5994677670      -22.7286275462      -19.9831458466  MEMB      267             0.0000000000
     33112       267  PMPE      C12            31.4833581321      -22.7230158538      -18.9977372399  MEMB      267             0.0000000000
     33113       267  PMPE      H12A           32.3687485887      -23.3695392923      -18.8177030452  MEMB      267             0.0000000000
     33114       267  PMPE      H12B           30.9254453302      -22.7414207822      -18.0371562989  MEMB      267             0.0000000000
     33115       267  PMPE      C11            31.9815011204      -21.3256660107      -19.4092886426  MEMB      267             0.0000000000
     33116       267  PMPE      H11A           32.7350178671      -21.3184398051      -20.2256716510  MEMB      267             0.0000000000
     33117       267  PMPE      H11B           32.4422967296      -20.9031558696      -18.4908804714  MEMB      267             0.0000000000
     33118       267  PMPE      P              30.0588874389      -19.6698453769      -18.6974704842  MEMB      267             0.0000000000
     33119       267  PMPE      O13            29.2141669464      -20.5514240349      -17.9010727154  MEMB      267             0.0000000000
     33120       267  PMPE      O14            29.4322035796      -18.5575900355      -19.4222226074  MEMB      267             0.0000000000
     33121       267  PMPE      O11            31.1733416777      -19.1684951894      -17.8166466190  MEMB      267             0.0000000000
     33122       267  PMPE      O12            30.8875491089      -20.4840058271      -19.7565474191  MEMB      267             0.0000000000
     33123       267  PMPE      C1             31.9936332648      -18.0711431032      -18.2640429391  MEMB      267             0.0000000000
     33124       267  PMPE      HA             31.6917538868      -17.4928670630      -19.1633685429  MEMB      267             0.0000000000
     33125       267  PMPE      HB             33.0495138522      -18.4004223253      -18.3689833618  MEMB      267             0.0000000000
     33126       267  PMPE      C2             32.1209144717      -16.9591636874      -17.1966281875  MEMB      267             0.0000000000
     33127       267  PMPE      HS             32.8995841772      -16.3452229911      -17.6976987039  MEMB      267             0.0000000000
     33128       267  PMPE      O21            32.6799328573      -17.5165482442      -15.9875961194  MEMB      267             0.0000000000
     33129       267  PMPE      C21            33.4963151738      -16.6782399616      -15.2988481860  MEMB      267             0.0000000000
     33130       267  PMPE      O22            33.7439118191      -15.5209460934      -15.4665729256  MEMB      267             0.0000000000
     33131       267  PMPE      C22            33.8530929071      -17.3953895292      -14.0141335671  MEMB      267             0.0000000000
     33132       267  PMPE      H2R            34.9316268169      -17.6577544964      -13.9666969989  MEMB      267             0.0000000000
     33133       267  PMPE      H2S            33.4026938655      -18.4109929967      -14.0107634117  MEMB      267             0.0000000000
     33134       267  PMPE      C3             30.7334963096      -16.2308259849      -16.9343264714  MEMB      267             0.0000000000
     33135       267  PMPE      HX             30.2565081553      -16.1557707639      -17.9349112927  MEMB      267             0.0000000000
     33136       267  PMPE      HY             30.9817453977      -15.2313609550      -16.5174776134  MEMB      267             0.0000000000
     33137       267  PMPE      O31            29.7889182017      -17.0999897760      -16.2896037891  MEMB      267             0.0000000000
     33138       267  PMPE      C31            29.6049393389      -16.9617777681      -14.9711542055  MEMB      267             0.0000000000
     33139       267  PMPE      O32            29.9903789397      -16.0475605957      -14.2644991914  MEMB      267             0.0000000000
     33140       267  PMPE      C32            28.8485263554      -18.3065667629      -14.4930442641  MEMB      267             0.0000000000
     33141       267  PMPE      H2X            29.5171724445      -19.1879273405      -14.3908837441  MEMB      267             0.0000000000
     33142       267  PMPE      H2Y            28.1902601791      -18.5570005896      -15.3522819249  MEMB      267             0.0000000000
     33143       267  PMPE      C23            33.4558766707      -16.6763043676      -12.7536885378  MEMB      267             0.0000000000
     33144       267  PMPE      H3R            33.7805512423      -17.3306049375      -11.9165513769  MEMB      267             0.0000000000
     33145       267  PMPE      H3S            32.3475398673      -16.6432990679      -12.8231224502  MEMB      267             0.0000000000
     33146       267  PMPE      C24            34.0227306974      -15.2353203180      -12.5586321184  MEMB      267             0.0000000000
     33147       267  PMPE      H4R            33.3740741986      -14.5708076997      -13.1685413041  MEMB      267             0.0000000000
     33148       267  PMPE      H4S            35.0679403329      -15.2262261778      -12.9351630899  MEMB      267             0.0000000000
     33149       267  PMPE      C25            33.9971908252      -14.7549499666      -11.1075105555  MEMB      267             0.0000000000
     33150       267  PMPE      H5R            34.4070434025      -13.7494218383      -10.8724471737  MEMB      267             0.0000000000
     33151       267  PMPE      H5S            34.7224449236      -15.4378147418      -10.6155513085  MEMB      267             0.0000000000
     33152       267  PMPE      C26            32.6172045226      -14.9570338334      -10.3579849199  MEMB      267             0.0000000000
     33153       267  PMPE      H6R            32.3099646025      -16.0150226156      -10.2145105883  MEMB      267             0.0000000000
     33154       267  PMPE      H6S            31.9603627149      -14.4063754034      -11.0648482557  MEMB      267             0.0000000000
     33155       267  PMPE      C27            32.5445461410      -14.3336338343       -8.9606839550  MEMB      267             0.0000000000
     33156       267  PMPE      H7R            33.1641973627      -13.4141359302       -8.8908435092  MEMB      267             0.0000000000
     33157       267  PMPE      H7S            32.9585423382      -15.1070635957       -8.2789694209  MEMB      267             0.0000000000
     33158       267  PMPE      C28            31.1565470011      -13.8432767933       -8.5191598282  MEMB      267             0.0000000000
     33159       267  PMPE      H8R            30.7721664266      -13.0201880614       -9.1587667816  MEMB      267             0.0000000000
     33160       267  PMPE      H8S            31.2175752586      -13.3454204928       -7.5278296859  MEMB      267             0.0000000000
     33161       267  PMPE      C29            30.1476270951      -14.9562560274       -8.5660861986  MEMB      267             0.0000000000
     33162       267  PMPE      H9R            29.8316872454      -15.3180495577       -9.5678891210  MEMB      267             0.0000000000
     33163       267  PMPE      C217           28.9526107774      -14.8625054664       -7.6434003968  MEMB      267             0.0000000000
     33164       267  PMPE      H17R           28.0903090967      -15.4829976094       -7.8539106695  MEMB      267             0.0000000000
     33165       267  PMPE      H17S           28.9639168032      -14.0025091586       -6.9852451919  MEMB      267             0.0000000000
     33166       267  PMPE      C210           30.0216219327      -15.8399630337       -7.4096293421  MEMB      267             0.0000000000
     33167       267  PMPE      H10R           29.6737771897      -16.8565784683       -7.6921502082  MEMB      267             0.0000000000
     33168       267  PMPE      C211           30.9522213164      -15.6237344238       -6.1960067466  MEMB      267             0.0000000000
     33169       267  PMPE      H11R           30.9095142112      -14.5583052385       -5.8839846162  MEMB      267             0.0000000000
     33170       267  PMPE      H11S           32.0134739284      -15.7955676746       -6.4762516907  MEMB      267             0.0000000000
     33171       267  PMPE      C212           30.5125902299      -16.4309882271       -5.0253731649  MEMB      267             0.0000000000
     33172       267  PMPE      H12R           29.4110877806      -16.4030550472       -4.8831289646  MEMB      267             0.0000000000
     33173       267  PMPE      H12S           30.9663565923      -15.9763664975       -4.1188766127  MEMB      267             0.0000000000
     33174       267  PMPE      C213           30.9249554480      -17.8980492022       -5.0845375922  MEMB      267             0.0000000000
     33175       267  PMPE      H13R           31.9816545847      -17.7448025430       -5.3914961396  MEMB      267             0.0000000000
     33176       267  PMPE      H13S           30.4516925980      -18.4942975498       -5.8937539770  MEMB      267             0.0000000000
     33177       267  PMPE      C214           30.8606218699      -18.7076570405       -3.7481849995  MEMB      267             0.0000000000
     33178       267  PMPE      H14R           31.0285178876      -18.0460280169       -2.8716120796  MEMB      267             0.0000000000
     33179       267  PMPE      H14S           31.5779854006      -19.5558446620       -3.7651645591  MEMB      267             0.0000000000
     33180       267  PMPE      C215           29.4730278636      -19.1940364665       -3.3546138555  MEMB      267             0.0000000000
     33181       267  PMPE      H15R           28.9671340016      -19.8720004784       -4.0748615552  MEMB      267             0.0000000000
     33182       267  PMPE      H15S           28.7917113556      -18.3191507949       -3.2860257097  MEMB      267             0.0000000000
     33183       267  PMPE      C216           29.4620726661      -19.9270671499       -1.9913663300  MEMB      267             0.0000000000
     33184       267  PMPE      H16R           29.6396616196      -19.1902875653       -1.1789999832  MEMB      267             0.0000000000
     33185       267  PMPE      H16S           28.5667176900      -20.5634198976       -1.8248860853  MEMB      267             0.0000000000
     33186       267  PMPE      H16T           30.2827286732      -20.6756223174       -2.0139474285  MEMB      267             0.0000000000
     33187       267  PMPE      C33            28.1961165948      -18.0143924248      -13.1468540150  MEMB      267             0.0000000000
     33188       267  PMPE      H3X            27.4137061859      -18.7765322675      -12.9436351698  MEMB      267             0.0000000000
     33189       267  PMPE      H3Y            27.7271707826      -17.0081974822      -13.1023302183  MEMB      267             0.0000000000
     33190       267  PMPE      C34            29.1093111028      -18.0815178090      -11.9447111613  MEMB      267             0.0000000000
     33191       267  PMPE      H4X            28.5004933899      -17.7490294098      -11.0768901969  MEMB      267             0.0000000000
     33192       267  PMPE      H4Y            29.9360435492      -17.3440428711      -12.0281679148  MEMB      267             0.0000000000
     33193       267  PMPE      C35            29.8917538378      -19.3671793707      -11.7094723351  MEMB      267             0.0000000000
     33194       267  PMPE      H5X            30.9019215909      -19.2813201738      -12.1639064226  MEMB      267             0.0000000000
     33195       267  PMPE      H5Y            29.2979764773      -20.1241067389      -12.2651793861  MEMB      267             0.0000000000
     33196       267  PMPE      C36            30.1512138347      -19.8589771002      -10.2828142016  MEMB      267             0.0000000000
     33197       267  PMPE      H6X            30.5248167983      -20.9047729472      -10.2503680419  MEMB      267             0.0000000000
     33198       267  PMPE      H6Y            29.0823757008      -19.7976681046       -9.9859182602  MEMB      267             0.0000000000
     33199       267  PMPE      C37            31.0726706164      -19.0188441403       -9.4180013311  MEMB      267             0.0000000000
     33200       267  PMPE      H7X            30.9026193820      -19.3836516701       -8.3824731185  MEMB      267             0.0000000000
     33201       267  PMPE      H7Y            30.9392903404      -17.9170985156       -9.4698409777  MEMB      267             0.0000000000
     33202       267  PMPE      C38            32.6683654155      -19.1777833106       -9.5819862019  MEMB      267             0.0000000000
     33203       267  PMPE      H8X            32.8802056042      -18.8354369515      -10.6174774477  MEMB      267             0.0000000000
     33204       267  PMPE      H8Y            32.9248201230      -20.2371207734       -9.3666812100  MEMB      267             0.0000000000
     33205       267  PMPE      C39            33.5145860490      -18.4161281275       -8.5364125713  MEMB      267             0.0000000000
     33206       267  PMPE      H9X            33.3348057220      -18.9134550160       -7.5593425704  MEMB      267             0.0000000000
     33207       267  PMPE      H9Y            33.2094287282      -17.3491412645       -8.4840791100  MEMB      267             0.0000000000
     33208       267  PMPE      C310           35.0338237810      -18.4078201367       -8.9840851290  MEMB      267             0.0000000000
     33209       267  PMPE      H10X           35.0978245056      -18.3914835660      -10.0931197819  MEMB      267             0.0000000000
     33210       267  PMPE      H10Y           35.3364582153      -19.4187789130       -8.6366722619  MEMB      267             0.0000000000
     33211       267  PMPE      C311           35.9528168520      -17.2897113241       -8.4563940577  MEMB      267             0.0000000000
     33212       267  PMPE      H11X           35.2966750366      -16.3931674265       -8.4536082432  MEMB      267             0.0000000000
     33213       267  PMPE      H11Y           36.7961753211      -17.2629678455       -9.1791338264  MEMB      267             0.0000000000
     33214       267  PMPE      C312           36.4419341177      -17.6570519175       -7.0641119771  MEMB      267             0.0000000000
     33215       267  PMPE      H12X           37.2271786045      -16.9040925200       -6.8388026692  MEMB      267             0.0000000000
     33216       267  PMPE      H12Y           36.9378018109      -18.6468145321       -7.1579513085  MEMB      267             0.0000000000
     33217       267  PMPE      C313           35.4525118925      -17.9171808080       -5.9472191052  MEMB      267             0.0000000000
     33218       267  PMPE      H13X           35.0386310415      -18.9023734467       -6.2512239679  MEMB      267             0.0000000000
     33219       267  PMPE      H13Y           34.6011701049      -17.2119717063       -6.0577570167  MEMB      267             0.0000000000
     33220       267  PMPE      C314           35.9315215649      -18.1158782521       -4.5102865461  MEMB      267             0.0000000000
     33221       267  PMPE      H14X           36.4351822701      -17.1961975403       -4.1430887577  MEMB      267             0.0000000000
     33222       267  PMPE      H14Y           36.7011511029      -18.9170951064       -4.5037363603  MEMB      267             0.0000000000
     33223       267  PMPE      C315           34.6922820824      -18.3059688904       -3.6709576375  MEMB      267             0.0000000000
     33224       267  PMPE      H15X           35.0060721200      -18.7672269028       -2.7101770929  MEMB      267             0.0000000000
     33225       267  PMPE      H15Y           33.9959992925      -18.8994782842       -4.3012415216  MEMB      267             0.0000000000
     33226       267  PMPE      C316           33.9088990325      -17.1157249938       -3.1929500544  MEMB      267             0.0000000000
     33227       267  PMPE      H16X           33.5525033751      -16.4468792223       -4.0053217988  MEMB      267             0.0000000000
     33228       267  PMPE      H16Y           34.5241702474      -16.5102524352       -2.4935467118  MEMB      267             0.0000000000
     33229       267  PMPE      H16Z           33.0322560930      -17.4879727873       -2.6208927615  MEMB      267             0.0000000000
     33230       268  PMPE      N             -29.3212097780      -18.4928410006      -18.0423036264  MEMB      268             0.0000000000
     33231       268  PMPE      HN1           -29.3814708032      -18.5642343478      -17.0065084605  MEMB      268             0.0000000000
     33232       268  PMPE      HN2           -28.3193632420      -18.3112531375      -18.2542691101  MEMB      268             0.0000000000
     33233       268  PMPE      HN3           -29.8801153470      -17.7025659638      -18.4226847793  MEMB      268             0.0000000000
     33234       268  PMPE      C12           -29.8805523637      -19.7914735106      -18.5656601211  MEMB      268             0.0000000000
     33235       268  PMPE      H12A          -29.4650380434      -20.6364779395      -17.9760532264  MEMB      268             0.0000000000
     33236       268  PMPE      H12B          -29.6127721323      -19.8572441733      -19.6418985061  MEMB      268             0.0000000000
     33237       268  PMPE      C11           -31.4254123006      -19.8629214742      -18.4835574511  MEMB      268             0.0000000000
     33238       268  PMPE      H11A          -31.6225892575      -19.5713163827      -17.4297981258  MEMB      268             0.0000000000
     33239       268  PMPE      H11B          -31.7986700147      -20.8914065267      -18.6764774721  MEMB      268             0.0000000000
     33240       268  PMPE      P             -33.6103709881      -18.8827055288      -19.4389486670  MEMB      268             0.0000000000
     33241       268  PMPE      O13           -34.2119801438      -20.2138623462      -19.3638839240  MEMB      268             0.0000000000
     33242       268  PMPE      O14           -34.0852770917      -18.0241030355      -20.5477878123  MEMB      268             0.0000000000
     33243       268  PMPE      O11           -33.8556441589      -18.1004354833      -18.0853779994  MEMB      268             0.0000000000
     33244       268  PMPE      O12           -32.0255435679      -19.0162608221      -19.4724804022  MEMB      268             0.0000000000
     33245       268  PMPE      C1            -33.2929517664      -16.9401890165      -17.6632511125  MEMB      268             0.0000000000
     33246       268  PMPE      HA            -33.7695824946      -16.0966348617      -18.2069058354  MEMB      268             0.0000000000
     33247       268  PMPE      HB            -32.1871133082      -16.8932475234      -17.7593690560  MEMB      268             0.0000000000
     33248       268  PMPE      C2            -33.5109932490      -16.7021471346      -16.1759353390  MEMB      268             0.0000000000
     33249       268  PMPE      HS            -32.8408564863      -15.8688809511      -15.8744301945  MEMB      268             0.0000000000
     33250       268  PMPE      O21           -33.0547747865      -17.8814696172      -15.5041796447  MEMB      268             0.0000000000
     33251       268  PMPE      C21           -32.4991333216      -17.8420387382      -14.3229188865  MEMB      268             0.0000000000
     33252       268  PMPE      O22           -32.2522989246      -16.8725104373      -13.6240247267  MEMB      268             0.0000000000
     33253       268  PMPE      C22           -32.3366296982      -19.3168360051      -13.8838183504  MEMB      268             0.0000000000
     33254       268  PMPE      H2R           -32.1111245423      -19.3583895201      -12.7967388764  MEMB      268             0.0000000000
     33255       268  PMPE      H2S           -31.4462381121      -19.6882047657      -14.4348257328  MEMB      268             0.0000000000
     33256       268  PMPE      C3            -35.0137818348      -16.4194835678      -15.7593330500  MEMB      268             0.0000000000
     33257       268  PMPE      HX            -35.5887839182      -17.1641829223      -16.3501938041  MEMB      268             0.0000000000
     33258       268  PMPE      HY            -35.1885285741      -15.3371295197      -15.9390392068  MEMB      268             0.0000000000
     33259       268  PMPE      O31           -35.2724240641      -16.6674453916      -14.4014019368  MEMB      268             0.0000000000
     33260       268  PMPE      C31           -35.1504998602      -15.6509711933      -13.5059287680  MEMB      268             0.0000000000
     33261       268  PMPE      O32           -34.9964921451      -14.4860370608      -13.7132226155  MEMB      268             0.0000000000
     33262       268  PMPE      C32           -35.2201191824      -16.1947174115      -12.0568909462  MEMB      268             0.0000000000
     33263       268  PMPE      H2X           -34.7976220658      -17.2214793525      -12.0171800829  MEMB      268             0.0000000000
     33264       268  PMPE      H2Y           -36.2822756635      -16.1421496256      -11.7353611326  MEMB      268             0.0000000000
     33265       268  PMPE      C23           -33.5976153507      -20.0879124935      -14.3288558341  MEMB      268             0.0000000000
     33266       268  PMPE      H3R           -33.8800897005      -19.8169312692      -15.3686145663  MEMB      268             0.0000000000
     33267       268  PMPE      H3S           -34.4411601780      -19.6491335998      -13.7542021434  MEMB      268             0.0000000000
     33268       268  PMPE      C24           -33.5503219377      -21.6065820623      -14.3834615039  MEMB      268             0.0000000000
     33269       268  PMPE      H4R           -32.8587477210      -21.9566726387      -15.1793778445  MEMB      268             0.0000000000
     33270       268  PMPE      H4S           -34.5435642841      -22.0427808509      -14.6232981099  MEMB      268             0.0000000000
     33271       268  PMPE      C25           -32.9712366330      -22.1629020991      -13.0697547440  MEMB      268             0.0000000000
     33272       268  PMPE      H5R           -31.8927440927      -21.9125515784      -12.9775626144  MEMB      268             0.0000000000
     33273       268  PMPE      H5S           -32.9811702513      -23.2702313036      -13.1594459877  MEMB      268             0.0000000000
     33274       268  PMPE      C26           -33.6978182279      -21.6822572435      -11.7513669040  MEMB      268             0.0000000000
     33275       268  PMPE      H6R           -34.7836527672      -21.7599116494      -11.9732993261  MEMB      268             0.0000000000
     33276       268  PMPE      H6S           -33.4045818986      -20.6558898311      -11.4433029698  MEMB      268             0.0000000000
     33277       268  PMPE      C27           -33.2703244585      -22.5869297073      -10.5581863202  MEMB      268             0.0000000000
     33278       268  PMPE      H7R           -32.1861145261      -22.4498529007      -10.3581374270  MEMB      268             0.0000000000
     33279       268  PMPE      H7S           -33.4310529844      -23.6780025028      -10.6925287603  MEMB      268             0.0000000000
     33280       268  PMPE      C28           -33.9142621568      -22.0087306337       -9.2445419412  MEMB      268             0.0000000000
     33281       268  PMPE      H8R           -33.7366715858      -20.9121680170       -9.2262851636  MEMB      268             0.0000000000
     33282       268  PMPE      H8S           -33.5170055102      -22.5938071121       -8.3876908212  MEMB      268             0.0000000000
     33283       268  PMPE      C29           -35.4762860352      -22.2968185019       -9.1903991662  MEMB      268             0.0000000000
     33284       268  PMPE      H9R           -35.8163001524      -23.2590068121       -9.6296090907  MEMB      268             0.0000000000
     33285       268  PMPE      C217          -36.4788403552      -21.1662089323       -9.4181504141  MEMB      268             0.0000000000
     33286       268  PMPE      H17R          -37.2368540322      -21.5731808964      -10.0759331912  MEMB      268             0.0000000000
     33287       268  PMPE      H17S          -36.0360544771      -20.1800077084       -9.4832427641  MEMB      268             0.0000000000
     33288       268  PMPE      C210          -36.3270306351      -21.7455962648       -8.0070189109  MEMB      268             0.0000000000
     33289       268  PMPE      H10R          -37.1068639477      -22.4475036094       -7.6416335546  MEMB      268             0.0000000000
     33290       268  PMPE      C211          -35.5828134096      -20.8600214793       -6.9685633512  MEMB      268             0.0000000000
     33291       268  PMPE      H11R          -36.4176227075      -20.4614419111       -6.3533005218  MEMB      268             0.0000000000
     33292       268  PMPE      H11S          -35.0525712778      -20.0487366958       -7.5116846511  MEMB      268             0.0000000000
     33293       268  PMPE      C212          -34.6691271921      -21.6006582673       -6.0167626216  MEMB      268             0.0000000000
     33294       268  PMPE      H12R          -34.2986661239      -22.5092072762       -6.5379329899  MEMB      268             0.0000000000
     33295       268  PMPE      H12S          -35.2757895305      -21.8609297437       -5.1231521641  MEMB      268             0.0000000000
     33296       268  PMPE      C213          -33.5113024316      -20.7021163244       -5.4186946552  MEMB      268             0.0000000000
     33297       268  PMPE      H13R          -34.0246786227      -19.8516647314       -4.9212027409  MEMB      268             0.0000000000
     33298       268  PMPE      H13S          -32.8937352152      -20.3688462812       -6.2800093527  MEMB      268             0.0000000000
     33299       268  PMPE      C214          -32.6496608949      -21.4234753567       -4.4105457684  MEMB      268             0.0000000000
     33300       268  PMPE      H14R          -31.9418026516      -20.7088885136       -3.9387155619  MEMB      268             0.0000000000
     33301       268  PMPE      H14S          -32.1085032489      -22.2953768822       -4.8362883170  MEMB      268             0.0000000000
     33302       268  PMPE      C215          -33.5583204912      -22.0052603849       -3.2819320357  MEMB      268             0.0000000000
     33303       268  PMPE      H15R          -33.9915222788      -22.9595716776       -3.6506425822  MEMB      268             0.0000000000
     33304       268  PMPE      H15S          -34.3891308943      -21.3107635540       -3.0334381072  MEMB      268             0.0000000000
     33305       268  PMPE      C216          -32.9644118464      -22.4006826040       -1.9494560535  MEMB      268             0.0000000000
     33306       268  PMPE      H16R          -32.3962245093      -21.5476000271       -1.5208139887  MEMB      268             0.0000000000
     33307       268  PMPE      H16S          -33.7790153422      -22.6811428977       -1.2479685197  MEMB      268             0.0000000000
     33308       268  PMPE      H16T          -32.1404892452      -23.1445268717       -1.9028918081  MEMB      268             0.0000000000
     33309       268  PMPE      C33           -34.3551424589      -15.3401177622      -10.9932711052  MEMB      268             0.0000000000
     33310       268  PMPE      H3X           -34.9442072250      -14.4323714735      -10.7416356014  MEMB      268             0.0000000000
     33311       268  PMPE      H3Y           -33.4234951123      -14.9894488164      -11.4866115740  MEMB      268             0.0000000000
     33312       268  PMPE      C34           -33.9830615630      -16.1726141075       -9.7270460544  MEMB      268             0.0000000000
     33313       268  PMPE      H4X           -33.4445907421      -15.4624203258       -9.0637251960  MEMB      268             0.0000000000
     33314       268  PMPE      H4Y           -33.2676762029      -17.0145490748       -9.8440525360  MEMB      268             0.0000000000
     33315       268  PMPE      C35           -35.1479197060      -16.6798510525       -8.8100560328  MEMB      268             0.0000000000
     33316       268  PMPE      H5X           -34.6058187508      -17.1288122790       -7.9504739794  MEMB      268             0.0000000000
     33317       268  PMPE      H5Y           -35.7136574013      -17.5022571321       -9.2978167196  MEMB      268             0.0000000000
     33318       268  PMPE      C36           -36.2020373188      -15.6565648414       -8.4509359434  MEMB      268             0.0000000000
     33319       268  PMPE      H6X           -36.9864977363      -16.1262127705       -7.8197671315  MEMB      268             0.0000000000
     33320       268  PMPE      H6Y           -36.6700141169      -15.3541067232       -9.4121005559  MEMB      268             0.0000000000
     33321       268  PMPE      C37           -35.7273550187      -14.4029539850       -7.6576692315  MEMB      268             0.0000000000
     33322       268  PMPE      H7X           -36.6063999979      -13.7307742883       -7.5587969154  MEMB      268             0.0000000000
     33323       268  PMPE      H7Y           -35.0346832378      -13.7573795373       -8.2388403732  MEMB      268             0.0000000000
     33324       268  PMPE      C38           -35.0534132130      -14.5436914619       -6.3057536728  MEMB      268             0.0000000000
     33325       268  PMPE      H8X           -35.0136830465      -13.4930427210       -5.9467556593  MEMB      268             0.0000000000
     33326       268  PMPE      H8Y           -34.0038237840      -14.8669848028       -6.4735780533  MEMB      268             0.0000000000
     33327       268  PMPE      C39           -35.5906709426      -15.5520516780       -5.3231774325  MEMB      268             0.0000000000
     33328       268  PMPE      H9X           -35.7986458535      -16.4725999059       -5.9094012286  MEMB      268             0.0000000000
     33329       268  PMPE      H9Y           -36.4621144747      -15.1346999293       -4.7747945402  MEMB      268             0.0000000000
     33330       268  PMPE      C310          -34.5602071629      -15.9187705937       -4.2602787590  MEMB      268             0.0000000000
     33331       268  PMPE      H10X          -34.1627779861      -14.9583728901       -3.8678414893  MEMB      268             0.0000000000
     33332       268  PMPE      H10Y          -33.7212793993      -16.4848592282       -4.7186063970  MEMB      268             0.0000000000
     33333       268  PMPE      C311          -35.1662218379      -16.7475834328       -3.0746787017  MEMB      268             0.0000000000
     33334       268  PMPE      H11X          -35.7290126189      -17.6030131343       -3.5057557731  MEMB      268             0.0000000000
     33335       268  PMPE      H11Y          -35.9778541322      -16.2265531854       -2.5232232990  MEMB      268             0.0000000000
     33336       268  PMPE      C312          -34.0892812287      -17.3006892938       -2.1227517268  MEMB      268             0.0000000000
     33337       268  PMPE      H12X          -33.6200107841      -16.4637955502       -1.5626482369  MEMB      268             0.0000000000
     33338       268  PMPE      H12Y          -33.2487778144      -17.7084055305       -2.7241172094  MEMB      268             0.0000000000
     33339       268  PMPE      C313          -34.4673823139      -18.2817936306       -0.9897405718  MEMB      268             0.0000000000
     33340       268  PMPE      H13X          -34.6265482175      -19.2295704754       -1.5471518588  MEMB      268             0.0000000000
     33341       268  PMPE      H13Y          -35.4565093931      -18.0630885016       -0.5335432732  MEMB      268             0.0000000000
     33342       268  PMPE      C314          -33.4503512297      -18.3952770164        0.1080352118  MEMB      268             0.0000000000
     33343       268  PMPE      H14X          -33.5682286282      -17.5603111635        0.8314002630  MEMB      268             0.0000000000
     33344       268  PMPE      H14Y          -32.3890650375      -18.3788837420       -0.2201785158  MEMB      268             0.0000000000
     33345       268  PMPE      C315          -33.6693577848      -19.6237760830        1.0088298070  MEMB      268             0.0000000000
     33346       268  PMPE      H15X          -34.0898529628      -20.4763666373        0.4338563097  MEMB      268             0.0000000000
     33347       268  PMPE      H15Y          -34.4054999697      -19.2800389504        1.7666297391  MEMB      268             0.0000000000
     33348       268  PMPE      C316          -32.3990677614      -20.0667239383        1.7780302680  MEMB      268             0.0000000000
     33349       268  PMPE      H16X          -31.9952637564      -20.9755998267        1.2828451691  MEMB      268             0.0000000000
     33350       268  PMPE      H16Y          -32.6590283094      -20.1718369134        2.8530611389  MEMB      268             0.0000000000
     33351       268  PMPE      H16Z          -31.5611148767      -19.3410443239        1.7035666306  MEMB      268             0.0000000000
     33352       269  OYPE      N               9.8949192067      -36.2940985205      -18.8559382717  MEMB      269             0.0000000000
     33353       269  OYPE      HN1            10.5538945743      -37.0978500380      -18.8924758447  MEMB      269             0.0000000000
     33354       269  OYPE      HN2             9.1544875894      -36.3856427170      -19.5804939124  MEMB      269             0.0000000000
     33355       269  OYPE      HN3            10.4229599451      -35.3985915464      -18.8269523949  MEMB      269             0.0000000000
     33356       269  OYPE      C12             9.1210138825      -36.3547296260      -17.5679653284  MEMB      269             0.0000000000
     33357       269  OYPE      H12A            8.8422187892      -35.3095791905      -17.3144800659  MEMB      269             0.0000000000
     33358       269  OYPE      H12B            9.9229626529      -36.5930253414      -16.8369286309  MEMB      269             0.0000000000
     33359       269  OYPE      C11             8.0613210863      -37.4003800069      -17.4903464933  MEMB      269             0.0000000000
     33360       269  OYPE      H11A            7.7298180615      -37.3691342044      -16.4304169695  MEMB      269             0.0000000000
     33361       269  OYPE      H11B            8.5041519140      -38.4046072460      -17.6628268772  MEMB      269             0.0000000000
     33362       269  OYPE      P               6.6408520518      -38.0560462744      -19.6408972208  MEMB      269             0.0000000000
     33363       269  OYPE      O13             7.1531211531      -37.3469713481      -20.8812288425  MEMB      269             0.0000000000
     33364       269  OYPE      O14             5.2578785892      -38.4512344830      -19.7225250488  MEMB      269             0.0000000000
     33365       269  OYPE      O11             7.5626381449      -39.3358726168      -19.4897124584  MEMB      269             0.0000000000
     33366       269  OYPE      O12             6.9632377897      -37.1781514510      -18.3513863162  MEMB      269             0.0000000000
     33367       269  OYPE      C1              7.1332817964      -40.6606529657      -19.3063473331  MEMB      269             0.0000000000
     33368       269  OYPE      HA              7.6868726557      -41.2089027091      -20.0983577720  MEMB      269             0.0000000000
     33369       269  OYPE      HB              6.1223932363      -40.8208321329      -19.7385135243  MEMB      269             0.0000000000
     33370       269  OYPE      C2              7.3405483572      -41.1873801610      -17.8768248696  MEMB      269             0.0000000000
     33371       269  OYPE      HS              6.8997537843      -42.2050985585      -17.8114769460  MEMB      269             0.0000000000
     33372       269  OYPE      O21             6.7091393756      -40.3515122925      -16.8622946951  MEMB      269             0.0000000000
     33373       269  OYPE      C21             5.3737648517      -40.3889828694      -16.8137030977  MEMB      269             0.0000000000
     33374       269  OYPE      O22             4.6059088590      -41.1681599399      -17.3518328894  MEMB      269             0.0000000000
     33375       269  OYPE      C22             4.8956403836      -39.1432538384      -15.9975430025  MEMB      269             0.0000000000
     33376       269  OYPE      H2R             3.9586959271      -38.7576056456      -16.4533186865  MEMB      269             0.0000000000
     33377       269  OYPE      H2S             5.5790685533      -38.2681285879      -16.0349984233  MEMB      269             0.0000000000
     33378       269  OYPE      C3              8.8790150005      -41.2932675136      -17.6460847345  MEMB      269             0.0000000000
     33379       269  OYPE      HX              9.4325099570      -40.3448555233      -17.8148418289  MEMB      269             0.0000000000
     33380       269  OYPE      HY              9.2704471505      -41.9894136543      -18.4184076284  MEMB      269             0.0000000000
     33381       269  OYPE      O31             9.2648364728      -41.8754260625      -16.3583604166  MEMB      269             0.0000000000
     33382       269  OYPE      C31             9.3075710955      -41.0237184192      -15.3673702875  MEMB      269             0.0000000000
     33383       269  OYPE      O32             9.2418196720      -39.8081833139      -15.4022577232  MEMB      269             0.0000000000
     33384       269  OYPE      C32             9.3515411136      -41.8812883421      -14.1106467037  MEMB      269             0.0000000000
     33385       269  OYPE      H2X             9.2345500897      -41.2215349671      -13.2244413065  MEMB      269             0.0000000000
     33386       269  OYPE      H2Y             8.5312993045      -42.6235673593      -14.2133405446  MEMB      269             0.0000000000
     33387       269  OYPE      C23             4.5568321678      -39.5785164416      -14.5306766107  MEMB      269             0.0000000000
     33388       269  OYPE      H3R             4.1000045093      -40.5911026838      -14.5479648264  MEMB      269             0.0000000000
     33389       269  OYPE      H3S             3.8168624861      -38.8469704276      -14.1413099028  MEMB      269             0.0000000000
     33390       269  OYPE      C24             5.8788168626      -39.5689991850      -13.7078968890  MEMB      269             0.0000000000
     33391       269  OYPE      H4R             6.2831334342      -38.5368746279      -13.7825157912  MEMB      269             0.0000000000
     33392       269  OYPE      H4S             6.5639294651      -40.3621080238      -14.0765704157  MEMB      269             0.0000000000
     33393       269  OYPE      C25             5.5143689142      -39.7596338030      -12.2543691711  MEMB      269             0.0000000000
     33394       269  OYPE      H5R             5.2816234442      -40.8319009197      -12.0800321317  MEMB      269             0.0000000000
     33395       269  OYPE      H5S             4.6319357893      -39.1490362401      -11.9666132289  MEMB      269             0.0000000000
     33396       269  OYPE      C26             6.7118875741      -39.4826295074      -11.2952664491  MEMB      269             0.0000000000
     33397       269  OYPE      H6R             7.6478672199      -39.4269642915      -11.8912232362  MEMB      269             0.0000000000
     33398       269  OYPE      H6S             6.7962180898      -40.2718225697      -10.5178459467  MEMB      269             0.0000000000
     33399       269  OYPE      C27             6.4388114175      -38.1640061270      -10.5765734707  MEMB      269             0.0000000000
     33400       269  OYPE      H7R             5.5633736276      -38.2947995456       -9.9051400675  MEMB      269             0.0000000000
     33401       269  OYPE      H7S             6.1464672799      -37.5411509894      -11.4488734755  MEMB      269             0.0000000000
     33402       269  OYPE      C28             7.6892689999      -37.8200451794       -9.6740326162  MEMB      269             0.0000000000
     33403       269  OYPE      H8R             8.0250701153      -38.6917159113       -9.0725773070  MEMB      269             0.0000000000
     33404       269  OYPE      H8S             7.2752201002      -37.1399697186       -8.8991895650  MEMB      269             0.0000000000
     33405       269  OYPE      C29             8.7954593352      -37.1255086203      -10.4283334046  MEMB      269             0.0000000000
     33406       269  OYPE      H9R             8.4601679709      -36.3598561382      -11.1434247537  MEMB      269             0.0000000000
     33407       269  OYPE      C210           10.1277984106      -37.2430225953      -10.1260683264  MEMB      269             0.0000000000
     33408       269  OYPE      H10R           10.8440739280      -36.7437973097      -10.7951896294  MEMB      269             0.0000000000
     33409       269  OYPE      C211           10.6648636112      -38.0552295369       -8.9863240064  MEMB      269             0.0000000000
     33410       269  OYPE      H11R           11.7350087505      -38.3283524664       -9.1067996180  MEMB      269             0.0000000000
     33411       269  OYPE      H11S            9.9844245830      -38.9015828154       -8.7517827520  MEMB      269             0.0000000000
     33412       269  OYPE      C212           10.7325894730      -37.2526526313       -7.6199048539  MEMB      269             0.0000000000
     33413       269  OYPE      H12R            9.6991762132      -37.0665167451       -7.2569564833  MEMB      269             0.0000000000
     33414       269  OYPE      H12S           11.2133258318      -36.2572580003       -7.7312733970  MEMB      269             0.0000000000
     33415       269  OYPE      C213           11.3553975615      -37.9906583015       -6.4154388041  MEMB      269             0.0000000000
     33416       269  OYPE      H13R           12.4594208101      -38.0057374551       -6.5388330230  MEMB      269             0.0000000000
     33417       269  OYPE      H13S           11.0952452266      -39.0704025480       -6.3872570007  MEMB      269             0.0000000000
     33418       269  OYPE      C214           11.0026030353      -37.3093176369       -5.1571719816  MEMB      269             0.0000000000
     33419       269  OYPE      H14R            9.9586089230      -36.9306740979       -5.1251319966  MEMB      269             0.0000000000
     33420       269  OYPE      H14S           11.7437048916      -36.4816506035       -5.1646801835  MEMB      269             0.0000000000
     33421       269  OYPE      C215           11.4125082131      -38.1082273723       -3.9755029599  MEMB      269             0.0000000000
     33422       269  OYPE      H15R           12.4906789859      -38.3729959265       -4.0175303075  MEMB      269             0.0000000000
     33423       269  OYPE      H15S           10.7761253791      -39.0188177439       -3.9882769463  MEMB      269             0.0000000000
     33424       269  OYPE      C216           11.1987504284      -37.2694114886       -2.7130621841  MEMB      269             0.0000000000
     33425       269  OYPE      H16R           11.5886114885      -37.9784785212       -1.9517785160  MEMB      269             0.0000000000
     33426       269  OYPE      H16S           10.0898620239      -37.3097004038       -2.6577064461  MEMB      269             0.0000000000
     33427       269  OYPE      H16T           11.5460739722      -36.2144246366       -2.6867957002  MEMB      269             0.0000000000
     33428       269  OYPE      C33            10.5745361413      -42.7598626301      -13.8995861089  MEMB      269             0.0000000000
     33429       269  OYPE      H3X            11.4352760231      -42.0783158292      -13.7294635842  MEMB      269             0.0000000000
     33430       269  OYPE      H3Y            10.8129419907      -43.3247746687      -14.8260618028  MEMB      269             0.0000000000
     33431       269  OYPE      C34            10.2440019588      -43.7630005729      -12.7953578883  MEMB      269             0.0000000000
     33432       269  OYPE      H4X             9.2547859160      -44.1930636593      -13.0614753185  MEMB      269             0.0000000000
     33433       269  OYPE      H4Y            10.9614685651      -44.6106676287      -12.7633596073  MEMB      269             0.0000000000
     33434       269  OYPE      C35            10.3015333003      -43.2550884880      -11.3151322556  MEMB      269             0.0000000000
     33435       269  OYPE      H5X             9.7588976859      -42.2865844057      -11.2719197787  MEMB      269             0.0000000000
     33436       269  OYPE      H5Y            11.3153926675      -43.0243156208      -10.9237835581  MEMB      269             0.0000000000
     33437       269  OYPE      C36             9.4332342311      -44.1947318226      -10.4512976209  MEMB      269             0.0000000000
     33438       269  OYPE      H6X             8.4745554716      -44.4934841230      -10.9266962305  MEMB      269             0.0000000000
     33439       269  OYPE      H6Y            10.0489312446      -45.1161821019      -10.5298290724  MEMB      269             0.0000000000
     33440       269  OYPE      C37             9.1196464870      -43.7789074555       -9.0248839459  MEMB      269             0.0000000000
     33441       269  OYPE      H7X             8.2329206589      -43.1104719871       -9.0599893175  MEMB      269             0.0000000000
     33442       269  OYPE      H7Y             8.9028029114      -44.6848402671       -8.4194204202  MEMB      269             0.0000000000
     33443       269  OYPE      C38            10.4111723654      -43.1631999002       -8.3550641225  MEMB      269             0.0000000000
     33444       269  OYPE      H8X            11.2502687885      -43.7819952638       -8.7389002139  MEMB      269             0.0000000000
     33445       269  OYPE      H8Y            10.6386367921      -42.1586097985       -8.7714526362  MEMB      269             0.0000000000
     33446       269  OYPE      C39            10.2740513361      -43.1757527290       -6.8681300321  MEMB      269             0.0000000000
     33447       269  OYPE      H9X            10.9077782935      -43.8761248109       -6.3043315398  MEMB      269             0.0000000000
     33448       269  OYPE      C310            9.4163295886      -42.3495889387       -6.1676826894  MEMB      269             0.0000000000
     33449       269  OYPE      H10X            9.2329194533      -42.6175314546       -5.1166984763  MEMB      269             0.0000000000
     33450       269  OYPE      C311            8.4320357994      -41.2718736376       -6.7032328750  MEMB      269             0.0000000000
     33451       269  OYPE      H11X            8.7899128156      -41.0601156410       -7.7334777650  MEMB      269             0.0000000000
     33452       269  OYPE      H11Y            7.4341397566      -41.7565791897       -6.7631099683  MEMB      269             0.0000000000
     33453       269  OYPE      C312            8.2447299854      -39.9612150048       -5.8537662736  MEMB      269             0.0000000000
     33454       269  OYPE      H12X            8.7988360450      -39.1414173454       -6.3589594859  MEMB      269             0.0000000000
     33455       269  OYPE      H12Y            8.8917738115      -40.0434323172       -4.9543803680  MEMB      269             0.0000000000
     33456       269  OYPE      C313            6.8052876274      -39.6197309281       -5.5608326383  MEMB      269             0.0000000000
     33457       269  OYPE      H13X            6.2343964469      -39.6100592018       -6.5138863356  MEMB      269             0.0000000000
     33458       269  OYPE      H13Y            6.4314295234      -40.3457370697       -4.8075287982  MEMB      269             0.0000000000
     33459       269  OYPE      C314            6.6661175608      -38.2367869414       -4.9063017186  MEMB      269             0.0000000000
     33460       269  OYPE      H14X            6.9094900559      -37.4913462229       -5.6933274332  MEMB      269             0.0000000000
     33461       269  OYPE      H14Y            7.5313509299      -38.1730481223       -4.2123062544  MEMB      269             0.0000000000
     33462       269  OYPE      C315            5.3376338322      -37.9866676235       -4.2067205407  MEMB      269             0.0000000000
     33463       269  OYPE      H15X            4.5116790291      -38.0791495074       -4.9439905854  MEMB      269             0.0000000000
     33464       269  OYPE      H15Y            5.1960785544      -36.9257455547       -3.9088475805  MEMB      269             0.0000000000
     33465       269  OYPE      C316            5.1712327417      -39.0087382739       -2.9843990085  MEMB      269             0.0000000000
     33466       269  OYPE      H16X            5.0345025763      -40.0526287374       -3.3392490992  MEMB      269             0.0000000000
     33467       269  OYPE      H16Y            4.2363589588      -38.6525540443       -2.5012173564  MEMB      269             0.0000000000
     33468       269  OYPE      C317            6.1845118235      -39.0991296784       -1.8988185308  MEMB      269             0.0000000000
     33469       269  OYPE      H17X            7.0830499866      -39.7285238488       -2.0743555647  MEMB      269             0.0000000000
     33470       269  OYPE      H17Y            5.7450354502      -39.6207818297       -1.0218589301  MEMB      269             0.0000000000
     33471       269  OYPE      C318            6.7478072834      -37.7333480303       -1.4324506075  MEMB      269             0.0000000000
     33472       269  OYPE      H18X            5.9925630018      -37.0378777137       -1.0078937453  MEMB      269             0.0000000000
     33473       269  OYPE      H18Y            7.6113015160      -37.7740087146       -0.7345652431  MEMB      269             0.0000000000
     33474       269  OYPE      H18Z            7.1556132363      -37.2736950238       -2.3580498658  MEMB      269             0.0000000000
     33475       270  PYPG      C13             0.3469664582      -37.4587498595      -21.0053337477  MEMB      270             0.0000000000
     33476       270  PYPG      H13A            0.1818660551      -36.5112881418      -20.4491149936  MEMB      270             0.0000000000
     33477       270  PYPG      H13B            1.3702555032      -37.4051202821      -21.4346639976  MEMB      270             0.0000000000
     33478       270  PYPG      OC3            -0.6081244911      -37.5679773616      -22.0746302788  MEMB      270             0.0000000000
     33479       270  PYPG      HO3            -0.2042130530      -38.1416617296      -22.7298720190  MEMB      270             0.0000000000
     33480       270  PYPG      C12             0.1271436051      -38.6547078165      -20.1082528895  MEMB      270             0.0000000000
     33481       270  PYPG      H12A            0.9750384520      -38.6865776022      -19.3851777306  MEMB      270             0.0000000000
     33482       270  PYPG      OC2             0.1577406420      -39.8583389682      -20.8766126762  MEMB      270             0.0000000000
     33483       270  PYPG      HO2            -0.1267190521      -40.5406239710      -20.2298617988  MEMB      270             0.0000000000
     33484       270  PYPG      C11            -1.2620802251      -38.4879092649      -19.2982270002  MEMB      270             0.0000000000
     33485       270  PYPG      H11A           -1.3030091949      -39.3582313518      -18.6088902931  MEMB      270             0.0000000000
     33486       270  PYPG      H11B           -2.0510112177      -38.4665468403      -20.0801812913  MEMB      270             0.0000000000
     33487       270  PYPG      P              -2.3313322436      -37.0978232563      -17.3578261098  MEMB      270             0.0000000000
     33488       270  PYPG      O13            -3.6090449397      -37.8746394628      -17.5021975138  MEMB      270             0.0000000000
     33489       270  PYPG      O14            -2.4254273655      -35.6026175963      -17.1714265810  MEMB      270             0.0000000000
     33490       270  PYPG      O11            -1.5522538007      -37.6061962077      -16.1122407850  MEMB      270             0.0000000000
     33491       270  PYPG      O12            -1.2349683413      -37.3390602089      -18.4932524196  MEMB      270             0.0000000000
     33492       270  PYPG      C1             -0.4152476489      -38.4812882732      -15.9627942051  MEMB      270             0.0000000000
     33493       270  PYPG      HA              0.5188342256      -37.8922137133      -16.0844627988  MEMB      270             0.0000000000
     33494       270  PYPG      HB             -0.4227098488      -39.2776593118      -16.7374285778  MEMB      270             0.0000000000
     33495       270  PYPG      C2             -0.4828949864      -39.0388842258      -14.4906559733  MEMB      270             0.0000000000
     33496       270  PYPG      HS             -1.3685830810      -39.7084227696      -14.5306048800  MEMB      270             0.0000000000
     33497       270  PYPG      O21            -0.6220418423      -37.9240588955      -13.6268251262  MEMB      270             0.0000000000
     33498       270  PYPG      C21            -1.5020843323      -38.0932764209      -12.6131771253  MEMB      270             0.0000000000
     33499       270  PYPG      O22            -2.2394311186      -39.0420947518      -12.5048693570  MEMB      270             0.0000000000
     33500       270  PYPG      C22            -1.3912262658      -36.7749991783      -11.7898098114  MEMB      270             0.0000000000
     33501       270  PYPG      H2R            -1.7844381228      -35.9836861368      -12.4632557978  MEMB      270             0.0000000000
     33502       270  PYPG      H2S            -0.3025984137      -36.5948297473      -11.6603919861  MEMB      270             0.0000000000
     33503       270  PYPG      C3              0.7665944567      -39.8208867975      -14.0810284017  MEMB      270             0.0000000000
     33504       270  PYPG      HX              1.6429798695      -39.1674732484      -14.2793214369  MEMB      270             0.0000000000
     33505       270  PYPG      HY              0.9436765410      -40.7343315161      -14.6881376493  MEMB      270             0.0000000000
     33506       270  PYPG      O31             0.7224220783      -40.1047918336      -12.6385606513  MEMB      270             0.0000000000
     33507       270  PYPG      C31            -0.0058303654      -41.1263961135      -12.2310768998  MEMB      270             0.0000000000
     33508       270  PYPG      O32            -0.6234010848      -41.9679029558      -12.8891465094  MEMB      270             0.0000000000
     33509       270  PYPG      C32             0.0597225967      -41.1732069838      -10.6545960410  MEMB      270             0.0000000000
     33510       270  PYPG      H2X             1.0622138858      -41.4752653043      -10.2829886592  MEMB      270             0.0000000000
     33511       270  PYPG      H2Y            -0.1926497864      -40.1607009879      -10.2732031708  MEMB      270             0.0000000000
     33512       270  PYPG      C23            -2.0554574008      -36.8783258491      -10.4749769030  MEMB      270             0.0000000000
     33513       270  PYPG      H3R            -1.5218766582      -37.6472474772       -9.8763351435  MEMB      270             0.0000000000
     33514       270  PYPG      H3S            -3.1227589515      -37.1838130503      -10.5181792893  MEMB      270             0.0000000000
     33515       270  PYPG      C24            -1.9044755469      -35.5712782685       -9.6554094115  MEMB      270             0.0000000000
     33516       270  PYPG      H4R            -2.3471556178      -34.6552275779      -10.1017350882  MEMB      270             0.0000000000
     33517       270  PYPG      H4S            -0.8170972895      -35.3438331115       -9.6413419310  MEMB      270             0.0000000000
     33518       270  PYPG      C25            -2.4131112961      -35.6411663581       -8.2230352234  MEMB      270             0.0000000000
     33519       270  PYPG      H5R            -3.5222577982      -35.7043595479       -8.2120284635  MEMB      270             0.0000000000
     33520       270  PYPG      H5S            -2.1259762100      -34.7510020488       -7.6234668761  MEMB      270             0.0000000000
     33521       270  PYPG      C26            -2.0092004996      -36.9741816576       -7.4476491675  MEMB      270             0.0000000000
     33522       270  PYPG      H6R            -2.6872463878      -37.7327702777       -7.8938750490  MEMB      270             0.0000000000
     33523       270  PYPG      H6S            -2.4492197018      -36.8519619684       -6.4348475909  MEMB      270             0.0000000000
     33524       270  PYPG      C27            -0.4984172230      -37.3634195785       -7.3134731010  MEMB      270             0.0000000000
     33525       270  PYPG      H7R            -0.2789510777      -37.5014360924       -8.3938005615  MEMB      270             0.0000000000
     33526       270  PYPG      H7S            -0.4241301306      -38.3833414684       -6.8792367015  MEMB      270             0.0000000000
     33527       270  PYPG      C28             0.3562631408      -36.3830346595       -6.6098171494  MEMB      270             0.0000000000
     33528       270  PYPG      H8R             0.1746014553      -35.4595262646       -7.2001158174  MEMB      270             0.0000000000
     33529       270  PYPG      H8S             1.3910646599      -36.7472979161       -6.7853708368  MEMB      270             0.0000000000
     33530       270  PYPG      C29            -0.0154173794      -36.1876843493       -5.1950170795  MEMB      270             0.0000000000
     33531       270  PYPG      H9R            -1.0942180765      -36.1314562700       -4.9875871992  MEMB      270             0.0000000000
     33532       270  PYPG      C210            0.8132356102      -35.9159524795       -4.1289058037  MEMB      270             0.0000000000
     33533       270  PYPG      H10R            0.4892004618      -35.8473008992       -3.0799596100  MEMB      270             0.0000000000
     33534       270  PYPG      C211            2.3734490854      -35.7541671282       -4.2230195268  MEMB      270             0.0000000000
     33535       270  PYPG      H11R            2.7877263262      -34.8944663507       -3.6541523189  MEMB      270             0.0000000000
     33536       270  PYPG      H11S            2.7417453783      -35.5606790357       -5.2531849692  MEMB      270             0.0000000000
     33537       270  PYPG      C212            3.1168115022      -36.9685948816       -3.6139925623  MEMB      270             0.0000000000
     33538       270  PYPG      H12R            2.8748304672      -38.0179402230       -3.8871969195  MEMB      270             0.0000000000
     33539       270  PYPG      H12S            3.0345391326      -36.8143979702       -2.5168252609  MEMB      270             0.0000000000
     33540       270  PYPG      C213            4.7427621048      -36.9463375416       -3.8078573549  MEMB      270             0.0000000000
     33541       270  PYPG      H13R            5.0420504083      -35.9270648190       -3.4825414030  MEMB      270             0.0000000000
     33542       270  PYPG      H13S            4.9547318127      -37.1594011665       -4.8774332434  MEMB      270             0.0000000000
     33543       270  PYPG      C214            5.4531600873      -38.0929164695       -3.0198914085  MEMB      270             0.0000000000
     33544       270  PYPG      H14R            4.8835785876      -39.0382575350       -3.1472794939  MEMB      270             0.0000000000
     33545       270  PYPG      H14S            6.4978251766      -38.1424915146       -3.3947756432  MEMB      270             0.0000000000
     33546       270  PYPG      C215            5.3988228668      -37.8678180035       -1.5609496955  MEMB      270             0.0000000000
     33547       270  PYPG      H15R            5.7763752995      -38.8368724864       -1.1701708302  MEMB      270             0.0000000000
     33548       270  PYPG      H15S            4.3485461388      -37.7018395603       -1.2389388130  MEMB      270             0.0000000000
     33549       270  PYPG      C216            6.1866311522      -36.7115384906       -0.9876828777  MEMB      270             0.0000000000
     33550       270  PYPG      H16R            6.4874155614      -36.7752077621        0.0799292130  MEMB      270             0.0000000000
     33551       270  PYPG      H16S            5.6877093139      -35.7279692137       -1.1218074094  MEMB      270             0.0000000000
     33552       270  PYPG      H16T            7.1096891899      -36.7086436058       -1.6059674407  MEMB      270             0.0000000000
     33553       270  PYPG      C33            -0.9058294995      -42.3346868296      -10.1169287441  MEMB      270             0.0000000000
     33554       270  PYPG      H3X            -0.5555507004      -43.3008090591      -10.5391052740  MEMB      270             0.0000000000
     33555       270  PYPG      H3Y            -1.8858002672      -42.2673981551      -10.6360147585  MEMB      270             0.0000000000
     33556       270  PYPG      C34            -1.0725434451      -42.3465307235       -8.5950534730  MEMB      270             0.0000000000
     33557       270  PYPG      H4X            -0.0645952112      -42.5582421381       -8.1784727317  MEMB      270             0.0000000000
     33558       270  PYPG      H4Y            -1.8010295941      -43.1829104193       -8.5310384284  MEMB      270             0.0000000000
     33559       270  PYPG      C35            -1.5805856372      -41.0039478672       -8.1211197609  MEMB      270             0.0000000000
     33560       270  PYPG      H5X            -2.5332004041      -40.7775975928       -8.6461074981  MEMB      270             0.0000000000
     33561       270  PYPG      H5Y            -0.9756524737      -40.1322110051       -8.4504395604  MEMB      270             0.0000000000
     33562       270  PYPG      C36            -1.8943711972      -40.8942325337       -6.6338396574  MEMB      270             0.0000000000
     33563       270  PYPG      H6X            -2.6215771612      -41.6904762402       -6.3664671922  MEMB      270             0.0000000000
     33564       270  PYPG      H6Y            -2.1029288308      -39.8241599666       -6.4199017105  MEMB      270             0.0000000000
     33565       270  PYPG      C37            -0.6920699794      -41.2267526613       -5.7902874519  MEMB      270             0.0000000000
     33566       270  PYPG      H7X            -0.2778144034      -42.2561113598       -5.8462675355  MEMB      270             0.0000000000
     33567       270  PYPG      H7Y             0.1362356526      -40.5500054422       -6.0906936503  MEMB      270             0.0000000000
     33568       270  PYPG      C38            -1.0577844173      -41.1836866664       -4.2517689897  MEMB      270             0.0000000000
     33569       270  PYPG      H8X            -1.7121893671      -42.0502483130       -4.0169374340  MEMB      270             0.0000000000
     33570       270  PYPG      H8Y            -1.6802406666      -40.2801519215       -4.0771438042  MEMB      270             0.0000000000
     33571       270  PYPG      C39             0.1255736955      -41.1383582299       -3.2913205650  MEMB      270             0.0000000000
     33572       270  PYPG      H9X             0.9990857376      -41.7427839299       -3.6168469514  MEMB      270             0.0000000000
     33573       270  PYPG      H9Y            -0.0853263928      -41.6733029981       -2.3407015769  MEMB      270             0.0000000000
     33574       270  PYPG      C310            0.5582770574      -39.6957115064       -2.9984770976  MEMB      270             0.0000000000
     33575       270  PYPG      H10X            0.4889500063      -39.1289839217       -3.9515428121  MEMB      270             0.0000000000
     33576       270  PYPG      H10Y            1.6013713251      -39.7449768093       -2.6192026466  MEMB      270             0.0000000000
     33577       270  PYPG      C311           -0.4097214678      -38.8010220445       -2.1373675144  MEMB      270             0.0000000000
     33578       270  PYPG      H11X           -1.3887772099      -38.9360047881       -2.6448619505  MEMB      270             0.0000000000
     33579       270  PYPG      H11Y           -0.1832167410      -37.7190607658       -2.2486170471  MEMB      270             0.0000000000
     33580       270  PYPG      C312           -0.6923593028      -39.2405273094       -0.6949951050  MEMB      270             0.0000000000
     33581       270  PYPG      H12X           -1.6435207403      -38.7707809104       -0.3649182060  MEMB      270             0.0000000000
     33582       270  PYPG      H12Y           -0.9175067525      -40.3268139971       -0.7550860030  MEMB      270             0.0000000000
     33583       270  PYPG      C313            0.3426549016      -39.1147783949        0.4552581747  MEMB      270             0.0000000000
     33584       270  PYPG      H13X            0.7714987663      -38.0908578408        0.4105316035  MEMB      270             0.0000000000
     33585       270  PYPG      H13Y           -0.2778057781      -39.1199164742        1.3768456809  MEMB      270             0.0000000000
     33586       270  PYPG      C314            1.3549620766      -40.1682106793        0.4790766751  MEMB      270             0.0000000000
     33587       270  PYPG      H14X            0.8792881115      -41.1227442094        0.7903991363  MEMB      270             0.0000000000
     33588       270  PYPG      H14Y            1.7202964991      -40.3605538723       -0.5523562302  MEMB      270             0.0000000000
     33589       270  PYPG      C315            2.5803282966      -39.9230587074        1.3986126163  MEMB      270             0.0000000000
     33590       270  PYPG      H15X            3.3290888290      -40.6303599690        0.9821946367  MEMB      270             0.0000000000
     33591       270  PYPG      H15Y            3.0225218782      -38.9256436458        1.1889711755  MEMB      270             0.0000000000
     33592       270  PYPG      C316            2.2927774265      -39.8686200193        2.8861037828  MEMB      270             0.0000000000
     33593       270  PYPG      H16X            1.7538045885      -40.8059918235        3.1413747177  MEMB      270             0.0000000000
     33594       270  PYPG      H16Y            1.5209884747      -39.0950388803        3.0866906473  MEMB      270             0.0000000000
     33595       270  PYPG      H16Z            3.1743415056      -39.7665416546        3.5544953342  MEMB      270             0.0000000000
     33596       271  PMPE      N             -30.3101542531      -25.3413132575      -18.1647970672  MEMB      271             0.0000000000
     33597       271  PMPE      HN1           -30.7443530470      -25.2715521229      -17.2223509035  MEMB      271             0.0000000000
     33598       271  PMPE      HN2           -31.0002822822      -25.5188524775      -18.9222952598  MEMB      271             0.0000000000
     33599       271  PMPE      HN3           -29.6978829003      -26.1818796859      -18.1779091332  MEMB      271             0.0000000000
     33600       271  PMPE      C12           -29.3991824426      -24.1057711809      -18.3845957438  MEMB      271             0.0000000000
     33601       271  PMPE      H12A          -29.0411122368      -23.8982022448      -17.3535661938  MEMB      271             0.0000000000
     33602       271  PMPE      H12B          -30.1125536002      -23.3136474016      -18.6975857768  MEMB      271             0.0000000000
     33603       271  PMPE      C11           -28.1947563192      -24.3972395228      -19.3086004987  MEMB      271             0.0000000000
     33604       271  PMPE      H11A          -27.5283797405      -23.5272307503      -19.4912149755  MEMB      271             0.0000000000
     33605       271  PMPE      H11B          -28.5489757436      -24.6659134592      -20.3267674418  MEMB      271             0.0000000000
     33606       271  PMPE      P             -26.6387936065      -26.6423407099      -19.2928376227  MEMB      271             0.0000000000
     33607       271  PMPE      O13           -25.9196478331      -26.3475929987      -20.5592425823  MEMB      271             0.0000000000
     33608       271  PMPE      O14           -27.7048331600      -27.6909007879      -19.3166608675  MEMB      271             0.0000000000
     33609       271  PMPE      O11           -25.5406582312      -27.0562566634      -18.3020210297  MEMB      271             0.0000000000
     33610       271  PMPE      O12           -27.3786797539      -25.3539168787      -18.6712445858  MEMB      271             0.0000000000
     33611       271  PMPE      C1            -25.0913508421      -26.0927590709      -17.2666730981  MEMB      271             0.0000000000
     33612       271  PMPE      HA            -25.3597704801      -25.0418712307      -17.5073112355  MEMB      271             0.0000000000
     33613       271  PMPE      HB            -23.9968441446      -25.9154378503      -17.1964391023  MEMB      271             0.0000000000
     33614       271  PMPE      C2            -25.7849507524      -26.2852005093      -15.9129509208  MEMB      271             0.0000000000
     33615       271  PMPE      HS            -25.2032511567      -27.1296026668      -15.4852460684  MEMB      271             0.0000000000
     33616       271  PMPE      O21           -27.1268913894      -26.6142510521      -16.0901666085  MEMB      271             0.0000000000
     33617       271  PMPE      C21           -27.4598710752      -27.6992804004      -15.5175559247  MEMB      271             0.0000000000
     33618       271  PMPE      O22           -26.7449486294      -28.5939058284      -15.0246399584  MEMB      271             0.0000000000
     33619       271  PMPE      C22           -28.9949763602      -27.7500740900      -15.4727927082  MEMB      271             0.0000000000
     33620       271  PMPE      H2R           -29.2925149025      -28.8020087112      -15.2747388023  MEMB      271             0.0000000000
     33621       271  PMPE      H2S           -29.4337986494      -27.4242402164      -16.4400508180  MEMB      271             0.0000000000
     33622       271  PMPE      C3            -25.7613369842      -24.9214529371      -15.0806512251  MEMB      271             0.0000000000
     33623       271  PMPE      HX            -26.5229578480      -24.2798763929      -15.5732303418  MEMB      271             0.0000000000
     33624       271  PMPE      HY            -24.7332498699      -24.5053033446      -15.1452839951  MEMB      271             0.0000000000
     33625       271  PMPE      O31           -26.0402559915      -25.1096929257      -13.6976272529  MEMB      271             0.0000000000
     33626       271  PMPE      C31           -25.1766198459      -25.8512693999      -13.0018462040  MEMB      271             0.0000000000
     33627       271  PMPE      O32           -24.0090771035      -26.0246679650      -13.2815405387  MEMB      271             0.0000000000
     33628       271  PMPE      C32           -25.7687271259      -26.2174193628      -11.6718258686  MEMB      271             0.0000000000
     33629       271  PMPE      H2X           -26.4177371563      -27.0962686136      -11.8736454063  MEMB      271             0.0000000000
     33630       271  PMPE      H2Y           -26.3916967443      -25.3543631939      -11.3534487006  MEMB      271             0.0000000000
     33631       271  PMPE      C23           -29.4958886327      -26.8672750958      -14.3082260474  MEMB      271             0.0000000000
     33632       271  PMPE      H3R           -30.6056960476      -26.8392147407      -14.3513672203  MEMB      271             0.0000000000
     33633       271  PMPE      H3S           -29.0336320739      -25.8689477844      -14.1533632513  MEMB      271             0.0000000000
     33634       271  PMPE      C24           -29.4128404679      -27.5480461234      -12.9603494320  MEMB      271             0.0000000000
     33635       271  PMPE      H4R           -28.3963279042      -27.3438535202      -12.5611894797  MEMB      271             0.0000000000
     33636       271  PMPE      H4S           -29.5822775404      -28.6453448414      -12.9996861439  MEMB      271             0.0000000000
     33637       271  PMPE      C25           -30.4381009492      -27.0492498513      -11.9777721381  MEMB      271             0.0000000000
     33638       271  PMPE      H5R           -31.3902009204      -27.5465231324      -12.2615783228  MEMB      271             0.0000000000
     33639       271  PMPE      H5S           -30.4024015156      -25.9436526392      -12.0812192655  MEMB      271             0.0000000000
     33640       271  PMPE      C26           -30.2893569849      -27.3658769689      -10.5288607766  MEMB      271             0.0000000000
     33641       271  PMPE      H6R           -29.3326801705      -27.8850607787      -10.3062880395  MEMB      271             0.0000000000
     33642       271  PMPE      H6S           -31.1845861813      -27.9908879843      -10.3233187550  MEMB      271             0.0000000000
     33643       271  PMPE      C27           -30.3392150683      -26.1090650862       -9.6861928114  MEMB      271             0.0000000000
     33644       271  PMPE      H7R           -31.0924696875      -25.3822932674      -10.0586594573  MEMB      271             0.0000000000
     33645       271  PMPE      H7S           -29.3350027164      -25.6359387032       -9.7312486877  MEMB      271             0.0000000000
     33646       271  PMPE      C28           -30.3927933328      -26.2877091407       -8.1299690044  MEMB      271             0.0000000000
     33647       271  PMPE      H8R           -30.3250290331      -25.3033320305       -7.6193509570  MEMB      271             0.0000000000
     33648       271  PMPE      H8S           -29.5578308461      -26.9672685122       -7.8554556284  MEMB      271             0.0000000000
     33649       271  PMPE      C29           -31.5967639096      -27.0719280121       -7.6086875976  MEMB      271             0.0000000000
     33650       271  PMPE      H9R           -31.9402948102      -27.9243506978       -8.2329335784  MEMB      271             0.0000000000
     33651       271  PMPE      C217          -32.6661161136      -26.2041444140       -6.8466422472  MEMB      271             0.0000000000
     33652       271  PMPE      H17R          -33.6727925958      -26.5040477905       -7.1103643339  MEMB      271             0.0000000000
     33653       271  PMPE      H17S          -32.3723758853      -25.1619785418       -6.8243680613  MEMB      271             0.0000000000
     33654       271  PMPE      C210          -31.8839004735      -27.2464137855       -6.0970368917  MEMB      271             0.0000000000
     33655       271  PMPE      H10R          -32.3833761875      -28.2219333950       -5.9148096130  MEMB      271             0.0000000000
     33656       271  PMPE      C211          -31.3039290678      -26.5114143771       -4.9513372346  MEMB      271             0.0000000000
     33657       271  PMPE      H11R          -31.7207303719      -26.8374459279       -3.9744537145  MEMB      271             0.0000000000
     33658       271  PMPE      H11S          -31.3970610255      -25.4043514356       -4.9436471993  MEMB      271             0.0000000000
     33659       271  PMPE      C212          -29.8166523008      -27.0141614016       -4.7364054834  MEMB      271             0.0000000000
     33660       271  PMPE      H12R          -29.2038606398      -26.5220984771       -5.5216957401  MEMB      271             0.0000000000
     33661       271  PMPE      H12S          -29.9459916105      -28.0910339959       -4.9771077949  MEMB      271             0.0000000000
     33662       271  PMPE      C213          -29.1290088034      -26.7088284066       -3.4131483696  MEMB      271             0.0000000000
     33663       271  PMPE      H13R          -29.2972234319      -25.6264660376       -3.2273628371  MEMB      271             0.0000000000
     33664       271  PMPE      H13S          -28.0560420526      -26.9558257971       -3.5616616777  MEMB      271             0.0000000000
     33665       271  PMPE      C214          -29.7248944664      -27.5690820438       -2.2697085569  MEMB      271             0.0000000000
     33666       271  PMPE      H14R          -29.6041533722      -28.6720699668       -2.3259250869  MEMB      271             0.0000000000
     33667       271  PMPE      H14S          -30.7872291460      -27.2457769885       -2.3049140443  MEMB      271             0.0000000000
     33668       271  PMPE      C215          -29.1386966713      -27.0742916754       -0.9244989011  MEMB      271             0.0000000000
     33669       271  PMPE      H15R          -29.3245009830      -25.9834578668       -0.8251049896  MEMB      271             0.0000000000
     33670       271  PMPE      H15S          -28.0723359607      -27.3162726270       -1.1210739037  MEMB      271             0.0000000000
     33671       271  PMPE      C216          -29.6487650175      -27.7607534643        0.3937233082  MEMB      271             0.0000000000
     33672       271  PMPE      H16R          -30.7471918080      -27.5943211572        0.4026644709  MEMB      271             0.0000000000
     33673       271  PMPE      H16S          -29.4096390251      -28.8454282019        0.3688184485  MEMB      271             0.0000000000
     33674       271  PMPE      H16T          -29.1653445689      -27.1982078521        1.2208690519  MEMB      271             0.0000000000
     33675       271  PMPE      C33           -24.7857782688      -26.4400583147      -10.5203466945  MEMB      271             0.0000000000
     33676       271  PMPE      H3X           -24.0765513121      -25.5883979826      -10.4429336584  MEMB      271             0.0000000000
     33677       271  PMPE      H3Y           -24.1780112477      -27.3284365031      -10.7955275440  MEMB      271             0.0000000000
     33678       271  PMPE      C34           -25.4848212044      -26.7333809031       -9.1627669882  MEMB      271             0.0000000000
     33679       271  PMPE      H4X           -24.7712871644      -27.1014145700       -8.3948206898  MEMB      271             0.0000000000
     33680       271  PMPE      H4Y           -26.2473139579      -27.5273889713       -9.3126904492  MEMB      271             0.0000000000
     33681       271  PMPE      C35           -26.0991322379      -25.5077890308       -8.5105014243  MEMB      271             0.0000000000
     33682       271  PMPE      H5X           -26.9909035561      -25.0638047017       -9.0023781001  MEMB      271             0.0000000000
     33683       271  PMPE      H5Y           -25.2787823613      -24.7637019424       -8.4228550788  MEMB      271             0.0000000000
     33684       271  PMPE      C36           -26.5487291181      -25.8421768457       -7.0859991152  MEMB      271             0.0000000000
     33685       271  PMPE      H6X           -25.7795315953      -26.5153682104       -6.6507177700  MEMB      271             0.0000000000
     33686       271  PMPE      H6Y           -27.5910681330      -26.2200800119       -7.1569873525  MEMB      271             0.0000000000
     33687       271  PMPE      C37           -26.3617623398      -24.6446233495       -6.1283080196  MEMB      271             0.0000000000
     33688       271  PMPE      H7X           -25.4272023177      -24.1085632305       -6.3995235786  MEMB      271             0.0000000000
     33689       271  PMPE      H7Y           -26.2920873574      -25.0709216012       -5.1047180428  MEMB      271             0.0000000000
     33690       271  PMPE      C38           -27.5503971661      -23.6198557171       -6.1500251983  MEMB      271             0.0000000000
     33691       271  PMPE      H8X           -28.5040849470      -24.1138041498       -5.8657447731  MEMB      271             0.0000000000
     33692       271  PMPE      H8Y           -27.6212658487      -23.2260892255       -7.1864832096  MEMB      271             0.0000000000
     33693       271  PMPE      C39           -27.2719496364      -22.5254103396       -5.1269119206  MEMB      271             0.0000000000
     33694       271  PMPE      H9X           -28.1082898481      -21.8121792464       -5.2886457658  MEMB      271             0.0000000000
     33695       271  PMPE      H9Y           -26.3060138830      -22.0593922752       -5.4169396001  MEMB      271             0.0000000000
     33696       271  PMPE      C310          -27.3615128344      -22.9627537799       -3.6645822390  MEMB      271             0.0000000000
     33697       271  PMPE      H10X          -26.5051389011      -23.6196618706       -3.4011126119  MEMB      271             0.0000000000
     33698       271  PMPE      H10Y          -28.2697195634      -23.5796006682       -3.4943416937  MEMB      271             0.0000000000
     33699       271  PMPE      C311          -27.2293248202      -21.8446928276       -2.6853052812  MEMB      271             0.0000000000
     33700       271  PMPE      H11X          -27.8568348692      -20.9968344577       -3.0341440183  MEMB      271             0.0000000000
     33701       271  PMPE      H11Y          -26.1538312142      -21.6167076908       -2.5251272607  MEMB      271             0.0000000000
     33702       271  PMPE      C312          -27.7274905134      -21.9770038148       -1.2947482790  MEMB      271             0.0000000000
     33703       271  PMPE      H12X          -28.8187969308      -22.0547923312       -1.1015620178  MEMB      271             0.0000000000
     33704       271  PMPE      H12Y          -27.3922684493      -21.0569896950       -0.7698487567  MEMB      271             0.0000000000
     33705       271  PMPE      C313          -27.1517782136      -23.2697835673       -0.5860837401  MEMB      271             0.0000000000
     33706       271  PMPE      H13X          -26.0535579147      -23.2873083895       -0.7531948377  MEMB      271             0.0000000000
     33707       271  PMPE      H13Y          -27.6314781619      -24.1111507145       -1.1304291068  MEMB      271             0.0000000000
     33708       271  PMPE      C314          -27.4808728289      -23.1274824433        0.9092422223  MEMB      271             0.0000000000
     33709       271  PMPE      H14X          -28.5894228347      -23.0623869039        0.9438994188  MEMB      271             0.0000000000
     33710       271  PMPE      H14Y          -27.0481592970      -22.1409667157        1.1810273432  MEMB      271             0.0000000000
     33711       271  PMPE      C315          -26.9609015213      -24.2719693556        1.8114054582  MEMB      271             0.0000000000
     33712       271  PMPE      H15X          -25.8528444573      -24.1916435299        1.8025171428  MEMB      271             0.0000000000
     33713       271  PMPE      H15Y          -27.2370335361      -25.2350771800        1.3313068702  MEMB      271             0.0000000000
     33714       271  PMPE      C316          -27.5022972146      -24.1917161288        3.2405895041  MEMB      271             0.0000000000
     33715       271  PMPE      H16X          -27.5591881333      -23.1356082156        3.5807671855  MEMB      271             0.0000000000
     33716       271  PMPE      H16Y          -27.0529407885      -24.7714740404        4.0750240407  MEMB      271             0.0000000000
     33717       271  PMPE      H16Z          -28.5908127058      -24.4140998849        3.2396445503  MEMB      271             0.0000000000
     33718       272  PMPE      N              -0.9407234113       41.0893039148      -18.4326197354  MEMB      272             0.0000000000
     33719       272  PMPE      HN1            -1.7228791321       40.6974462028      -18.9950073614  MEMB      272             0.0000000000
     33720       272  PMPE      HN2            -1.2612443785       41.1314760354      -17.4441422381  MEMB      272             0.0000000000
     33721       272  PMPE      HN3            -0.6149502116       42.0078631016      -18.7955534465  MEMB      272             0.0000000000
     33722       272  PMPE      C12             0.2342556676       40.1270408548      -18.4759481526  MEMB      272             0.0000000000
     33723       272  PMPE      H12A            0.8977451714       40.7074126805      -17.7997298944  MEMB      272             0.0000000000
     33724       272  PMPE      H12B            0.5588846293       40.0360132273      -19.5345561573  MEMB      272             0.0000000000
     33725       272  PMPE      C11            -0.0823328691       38.7815199428      -17.9002960783  MEMB      272             0.0000000000
     33726       272  PMPE      H11A           -0.5746020275       38.9390890429      -16.9168510546  MEMB      272             0.0000000000
     33727       272  PMPE      H11B            0.7974097652       38.1411916746      -17.6758997133  MEMB      272             0.0000000000
     33728       272  PMPE      P              -0.5931479963       36.7492134058      -19.5253318667  MEMB      272             0.0000000000
     33729       272  PMPE      O13             0.6926183950       37.0722499232      -20.2546928321  MEMB      272             0.0000000000
     33730       272  PMPE      O14            -1.7529426094       36.2785539407      -20.3214420622  MEMB      272             0.0000000000
     33731       272  PMPE      O11            -0.2150350387       35.7390610920      -18.4152058462  MEMB      272             0.0000000000
     33732       272  PMPE      O12            -1.0474209643       37.9947881237      -18.6744634295  MEMB      272             0.0000000000
     33733       272  PMPE      C1             -1.1310555574       35.0693927533      -17.6323791745  MEMB      272             0.0000000000
     33734       272  PMPE      HA             -0.8273884217       34.0014831535      -17.6733226882  MEMB      272             0.0000000000
     33735       272  PMPE      HB             -2.2013548123       35.2232581575      -17.8875373111  MEMB      272             0.0000000000
     33736       272  PMPE      C2             -0.8629826021       35.3923242496      -16.2111395499  MEMB      272             0.0000000000
     33737       272  PMPE      HS             -1.3437177345       34.6108256604      -15.5846616851  MEMB      272             0.0000000000
     33738       272  PMPE      O21            -1.3846866826       36.6539237541      -15.9547541955  MEMB      272             0.0000000000
     33739       272  PMPE      C21            -2.5297291263       36.6433200004      -15.2084486105  MEMB      272             0.0000000000
     33740       272  PMPE      O22            -3.1351603872       35.6745521844      -14.8313430874  MEMB      272             0.0000000000
     33741       272  PMPE      C22            -2.8746576678       38.1152761728      -14.9499273377  MEMB      272             0.0000000000
     33742       272  PMPE      H2R            -3.0854932842       38.7610480790      -15.8290449286  MEMB      272             0.0000000000
     33743       272  PMPE      H2S            -1.9897385994       38.6432572277      -14.5346259260  MEMB      272             0.0000000000
     33744       272  PMPE      C3              0.7172267915       35.2230009588      -15.8072775714  MEMB      272             0.0000000000
     33745       272  PMPE      HX              1.3571727734       35.8812225695      -16.4330046849  MEMB      272             0.0000000000
     33746       272  PMPE      HY              0.8850034978       34.1256776936      -15.8525928359  MEMB      272             0.0000000000
     33747       272  PMPE      O31             0.8424655467       35.6459631767      -14.4501676632  MEMB      272             0.0000000000
     33748       272  PMPE      C31             1.2196799874       36.9562849807      -14.1713351718  MEMB      272             0.0000000000
     33749       272  PMPE      O32             1.2296171329       37.8139749611      -15.0284677494  MEMB      272             0.0000000000
     33750       272  PMPE      C32             1.5355956610       37.1351282211      -12.6966155447  MEMB      272             0.0000000000
     33751       272  PMPE      H2X             2.2098788696       38.0170740903      -12.6537837110  MEMB      272             0.0000000000
     33752       272  PMPE      H2Y             1.9373107481       36.1945106268      -12.2628130408  MEMB      272             0.0000000000
     33753       272  PMPE      C23            -4.0871861740       38.2399819716      -13.9762845695  MEMB      272             0.0000000000
     33754       272  PMPE      H3R            -4.7291573395       37.3493324415      -13.8061744052  MEMB      272             0.0000000000
     33755       272  PMPE      H3S            -4.7539559104       39.0171524822      -14.4072665321  MEMB      272             0.0000000000
     33756       272  PMPE      C24            -3.7468140063       38.6468100044      -12.5504888844  MEMB      272             0.0000000000
     33757       272  PMPE      H4R            -2.6377727432       38.6746176171      -12.4906951698  MEMB      272             0.0000000000
     33758       272  PMPE      H4S            -4.2792455580       37.9272960716      -11.8923569969  MEMB      272             0.0000000000
     33759       272  PMPE      C25            -4.3012578892       39.9899787073      -12.1642443992  MEMB      272             0.0000000000
     33760       272  PMPE      H5R            -5.3832714761       40.1207887983      -12.3797805919  MEMB      272             0.0000000000
     33761       272  PMPE      H5S            -3.8254901907       40.7478788947      -12.8226919706  MEMB      272             0.0000000000
     33762       272  PMPE      C26            -4.0446959399       40.4869303051      -10.7468574568  MEMB      272             0.0000000000
     33763       272  PMPE      H6R            -4.5442532884       39.7355396617      -10.0986478450  MEMB      272             0.0000000000
     33764       272  PMPE      H6S            -4.7407963980       41.3365112087      -10.5795926496  MEMB      272             0.0000000000
     33765       272  PMPE      C27            -2.5584184822       40.6667785808      -10.3833317203  MEMB      272             0.0000000000
     33766       272  PMPE      H7R            -2.1324005627       41.2932870216      -11.1959308175  MEMB      272             0.0000000000
     33767       272  PMPE      H7S            -2.1368354214       39.6440846662      -10.4867043411  MEMB      272             0.0000000000
     33768       272  PMPE      C28            -2.1677806415       41.1443971156       -8.9471208582  MEMB      272             0.0000000000
     33769       272  PMPE      H8R            -2.5749299681       42.1596571301       -8.7527047475  MEMB      272             0.0000000000
     33770       272  PMPE      H8S            -1.0579475111       41.1505091081       -8.9976594643  MEMB      272             0.0000000000
     33771       272  PMPE      C29            -2.5252995615       40.0212770862       -7.9889300074  MEMB      272             0.0000000000
     33772       272  PMPE      H9R            -2.6032066776       38.9854941101       -8.3831449863  MEMB      272             0.0000000000
     33773       272  PMPE      C217           -3.6384117534       40.3485048402       -6.9245842041  MEMB      272             0.0000000000
     33774       272  PMPE      H17R           -4.3878078012       39.5703910173       -6.8482057174  MEMB      272             0.0000000000
     33775       272  PMPE      H17S           -3.8995999291       41.3954804510       -6.8323250695  MEMB      272             0.0000000000
     33776       272  PMPE      C210           -2.1912084484       40.1226513916       -6.5284099908  MEMB      272             0.0000000000
     33777       272  PMPE      H10R           -2.2324643001       39.2247292840       -5.8754516031  MEMB      272             0.0000000000
     33778       272  PMPE      C211           -1.3400826624       41.3319922190       -5.9286192756  MEMB      272             0.0000000000
     33779       272  PMPE      H11R           -1.5215133701       41.3133014957       -4.8326931270  MEMB      272             0.0000000000
     33780       272  PMPE      H11S           -1.8835054744       42.2852230631       -6.1028706901  MEMB      272             0.0000000000
     33781       272  PMPE      C212            0.1569458045       41.3591836909       -6.3872335541  MEMB      272             0.0000000000
     33782       272  PMPE      H12R            0.5269634933       42.3958312396       -6.2363362513  MEMB      272             0.0000000000
     33783       272  PMPE      H12S            0.1389820257       41.1821367533       -7.4838882269  MEMB      272             0.0000000000
     33784       272  PMPE      C213            1.1765997465       40.4347498350       -5.6693909713  MEMB      272             0.0000000000
     33785       272  PMPE      H13R            2.2170410355       40.8224593163       -5.7079162971  MEMB      272             0.0000000000
     33786       272  PMPE      H13S            1.3438660471       39.4917382777       -6.2324835226  MEMB      272             0.0000000000
     33787       272  PMPE      C214            0.9404541256       39.8983163452       -4.3245145041  MEMB      272             0.0000000000
     33788       272  PMPE      H14R            1.8618598324       39.2928759348       -4.1874953080  MEMB      272             0.0000000000
     33789       272  PMPE      H14S            0.0393790602       39.2484264853       -4.3192134118  MEMB      272             0.0000000000
     33790       272  PMPE      C215            0.9074919920       40.9480263741       -3.1399946662  MEMB      272             0.0000000000
     33791       272  PMPE      H15R            0.0906737050       41.6810388569       -3.3126842908  MEMB      272             0.0000000000
     33792       272  PMPE      H15S            1.8432972956       41.5386921808       -3.2385001524  MEMB      272             0.0000000000
     33793       272  PMPE      C216            0.5971024011       40.3065525160       -1.7909421739  MEMB      272             0.0000000000
     33794       272  PMPE      H16R           -0.3334187532       39.7055879902       -1.8763386735  MEMB      272             0.0000000000
     33795       272  PMPE      H16S            1.5165633864       39.7501865924       -1.5092157455  MEMB      272             0.0000000000
     33796       272  PMPE      H16T            0.2904022974       41.0561426912       -1.0304335678  MEMB      272             0.0000000000
     33797       272  PMPE      C33             0.1201669522       37.3284380086      -12.0154854881  MEMB      272             0.0000000000
     33798       272  PMPE      H3X            -0.5743961515       36.4723109163      -12.1531432375  MEMB      272             0.0000000000
     33799       272  PMPE      H3Y            -0.3289359414       38.2514892155      -12.4404608825  MEMB      272             0.0000000000
     33800       272  PMPE      C34             0.1721673043       37.7903617139      -10.5699446440  MEMB      272             0.0000000000
     33801       272  PMPE      H4X            -0.8315073045       38.0383715435      -10.1631897764  MEMB      272             0.0000000000
     33802       272  PMPE      H4Y             0.7904084131       38.7072726263      -10.4632995282  MEMB      272             0.0000000000
     33803       272  PMPE      C35             0.7092731167       36.6599173646       -9.6768137803  MEMB      272             0.0000000000
     33804       272  PMPE      H5X             1.5811538294       36.1842204108      -10.1746666010  MEMB      272             0.0000000000
     33805       272  PMPE      H5Y            -0.1196546509       35.9204636066       -9.6566132703  MEMB      272             0.0000000000
     33806       272  PMPE      C36             1.0083693583       37.2297598427       -8.2135003641  MEMB      272             0.0000000000
     33807       272  PMPE      H6X             0.3434430608       38.0797992836       -7.9496311371  MEMB      272             0.0000000000
     33808       272  PMPE      H6Y             2.0630148212       37.5773723749       -8.1787210664  MEMB      272             0.0000000000
     33809       272  PMPE      C37             0.7952817407       36.2392869692       -7.0953487515  MEMB      272             0.0000000000
     33810       272  PMPE      H7X             1.1046540243       36.8235039762       -6.2024318854  MEMB      272             0.0000000000
     33811       272  PMPE      H7Y             1.4055316598       35.3163329202       -6.9949939979  MEMB      272             0.0000000000
     33812       272  PMPE      C38            -0.6882837914       35.9107703391       -6.6830190319  MEMB      272             0.0000000000
     33813       272  PMPE      H8X            -1.2902272907       35.2208673778       -7.3123191611  MEMB      272             0.0000000000
     33814       272  PMPE      H8Y            -1.2640384936       36.8517508769       -6.8148636009  MEMB      272             0.0000000000
     33815       272  PMPE      C39            -0.7928780003       35.5454720232       -5.2006821515  MEMB      272             0.0000000000
     33816       272  PMPE      H9X            -0.3292602882       36.3490582224       -4.5894298021  MEMB      272             0.0000000000
     33817       272  PMPE      H9Y            -0.2805609596       34.5745683412       -5.0298085859  MEMB      272             0.0000000000
     33818       272  PMPE      C310           -2.2507306226       35.2752618640       -4.7617121651  MEMB      272             0.0000000000
     33819       272  PMPE      H10X           -2.1952738217       34.8891281219       -3.7214494278  MEMB      272             0.0000000000
     33820       272  PMPE      H10Y           -2.7215332860       34.4688946392       -5.3637394765  MEMB      272             0.0000000000
     33821       272  PMPE      C311           -3.3708538974       36.3660087835       -4.7607280352  MEMB      272             0.0000000000
     33822       272  PMPE      H11X           -4.3386643968       35.8562186100       -4.5663636368  MEMB      272             0.0000000000
     33823       272  PMPE      H11Y           -3.2429502107       36.9420441965       -5.7020804974  MEMB      272             0.0000000000
     33824       272  PMPE      C312           -3.3357303662       37.3897112894       -3.5740159470  MEMB      272             0.0000000000
     33825       272  PMPE      H12X           -4.0788091616       38.1965404348       -3.7505992562  MEMB      272             0.0000000000
     33826       272  PMPE      H12Y           -2.3563410249       37.9126390342       -3.5332217952  MEMB      272             0.0000000000
     33827       272  PMPE      C313           -3.4112026833       36.6986720877       -2.1248788253  MEMB      272             0.0000000000
     33828       272  PMPE      H13X           -2.6281115627       35.9272397401       -2.2860669604  MEMB      272             0.0000000000
     33829       272  PMPE      H13Y           -4.3712574040       36.1527100119       -2.0042922256  MEMB      272             0.0000000000
     33830       272  PMPE      C314           -3.2283695692       37.5897924945       -0.9375473647  MEMB      272             0.0000000000
     33831       272  PMPE      H14X           -2.1437606807       37.7620173208       -0.7693715298  MEMB      272             0.0000000000
     33832       272  PMPE      H14Y           -3.4525371858       36.9279187383       -0.0738391297  MEMB      272             0.0000000000
     33833       272  PMPE      C315           -4.2102195443       38.7920826383       -0.7306786065  MEMB      272             0.0000000000
     33834       272  PMPE      H15X           -5.2644993240       38.4655938238       -0.8580386486  MEMB      272             0.0000000000
     33835       272  PMPE      H15Y           -3.9845365600       39.5043787149       -1.5528851401  MEMB      272             0.0000000000
     33836       272  PMPE      C316           -4.1408281507       39.5608909003        0.6049677649  MEMB      272             0.0000000000
     33837       272  PMPE      H16X           -4.3243104013       40.6495116904        0.4802271738  MEMB      272             0.0000000000
     33838       272  PMPE      H16Y           -3.1767494977       39.3549197805        1.1172662703  MEMB      272             0.0000000000
     33839       272  PMPE      H16Z           -5.0164526708       39.2268970386        1.2016678997  MEMB      272             0.0000000000
     33840       273  PMPE      N              36.1056100738        8.3829882347      -21.5142615098  MEMB      273             0.0000000000
     33841       273  PMPE      HN1            35.5854207617        8.9969634427      -22.1730769008  MEMB      273             0.0000000000
     33842       273  PMPE      HN2            36.2455979714        7.4098869106      -21.8534919330  MEMB      273             0.0000000000
     33843       273  PMPE      HN3            35.6063648366        8.2278200202      -20.6152193610  MEMB      273             0.0000000000
     33844       273  PMPE      C12            37.3576040195        9.1577021649      -21.2040183475  MEMB      273             0.0000000000
     33845       273  PMPE      H12A           37.1051616865       10.2154573755      -20.9765371883  MEMB      273             0.0000000000
     33846       273  PMPE      H12B           37.9501726061        9.2210527726      -22.1416589925  MEMB      273             0.0000000000
     33847       273  PMPE      C11            38.0610560274        8.5073325379      -20.0090358205  MEMB      273             0.0000000000
     33848       273  PMPE      H11A           38.9723439280        9.0849601241      -19.7440422994  MEMB      273             0.0000000000
     33849       273  PMPE      H11B           38.3770234148        7.5272509998      -20.4260798540  MEMB      273             0.0000000000
     33850       273  PMPE      P              36.8429543521        9.2358145316      -17.8474417854  MEMB      273             0.0000000000
     33851       273  PMPE      O13            35.5193020025        8.8939550908      -17.3407824999  MEMB      273             0.0000000000
     33852       273  PMPE      O14            37.0315272291       10.5733536727      -18.4934291709  MEMB      273             0.0000000000
     33853       273  PMPE      O11            37.9129811919        8.9179618189      -16.6331843769  MEMB      273             0.0000000000
     33854       273  PMPE      O12            37.2305826746        8.1421412148      -18.9578464868  MEMB      273             0.0000000000
     33855       273  PMPE      C1             37.6194409832        8.4774620498      -15.3441603312  MEMB      273             0.0000000000
     33856       273  PMPE      HA             38.4869682718        7.8349631893      -15.0816480519  MEMB      273             0.0000000000
     33857       273  PMPE      HB             36.7869293413        7.7426209170      -15.3087510095  MEMB      273             0.0000000000
     33858       273  PMPE      C2             37.3114329837        9.7399397565      -14.5055008903  MEMB      273             0.0000000000
     33859       273  PMPE      HS             36.5852845630       10.3400892833      -15.0944404344  MEMB      273             0.0000000000
     33860       273  PMPE      O21            38.5270127227       10.5465316063      -14.3183630779  MEMB      273             0.0000000000
     33861       273  PMPE      C21            38.3250014212       11.8277067095      -14.0131641726  MEMB      273             0.0000000000
     33862       273  PMPE      O22            37.2799335077       12.3934196733      -13.9691857262  MEMB      273             0.0000000000
     33863       273  PMPE      C22            39.7248347647       12.4971641911      -14.1034864301  MEMB      273             0.0000000000
     33864       273  PMPE      H2R            39.6436856737       13.5933401390      -14.2651478579  MEMB      273             0.0000000000
     33865       273  PMPE      H2S            40.3250663494       12.0785120873      -14.9394131823  MEMB      273             0.0000000000
     33866       273  PMPE      C3             36.7068578656        9.3351150518      -13.1102126921  MEMB      273             0.0000000000
     33867       273  PMPE      HX             35.9092053660        8.5972049091      -13.3416431492  MEMB      273             0.0000000000
     33868       273  PMPE      HY             36.2383891941       10.1768920227      -12.5567965081  MEMB      273             0.0000000000
     33869       273  PMPE      O31            37.7334652597        8.8782725369      -12.2643844765  MEMB      273             0.0000000000
     33870       273  PMPE      C31            37.6031410681        7.5766431174      -11.8979181518  MEMB      273             0.0000000000
     33871       273  PMPE      O32            36.7711495499        6.8589540140      -12.3560329786  MEMB      273             0.0000000000
     33872       273  PMPE      C32            38.6002419587        7.1457385261      -10.9902213400  MEMB      273             0.0000000000
     33873       273  PMPE      H2X            38.8749727359        7.9176358045      -10.2398755988  MEMB      273             0.0000000000
     33874       273  PMPE      H2Y            39.5233049501        6.8269691336      -11.5199965062  MEMB      273             0.0000000000
     33875       273  PMPE      C23            40.6030563237       12.3564937884      -12.7989032787  MEMB      273             0.0000000000
     33876       273  PMPE      H3R            40.0190091955       12.8895754291      -12.0184971491  MEMB      273             0.0000000000
     33877       273  PMPE      H3S            41.5661209204       12.8989664799      -12.9109317340  MEMB      273             0.0000000000
     33878       273  PMPE      C24            40.8525629228       10.9088688220      -12.3221864167  MEMB      273             0.0000000000
     33879       273  PMPE      H4R            41.1010903616       10.2680097864      -13.1950295101  MEMB      273             0.0000000000
     33880       273  PMPE      H4S            39.8783223412       10.6401381273      -11.8607106750  MEMB      273             0.0000000000
     33881       273  PMPE      C25            41.8485137279       10.8555942044      -11.1201866940  MEMB      273             0.0000000000
     33882       273  PMPE      H5R            42.6581131484       11.5746432254      -11.3688605248  MEMB      273             0.0000000000
     33883       273  PMPE      H5S            42.2423162396        9.8331177134      -10.9363849754  MEMB      273             0.0000000000
     33884       273  PMPE      C26            41.3555708759       11.4684709353       -9.7829314305  MEMB      273             0.0000000000
     33885       273  PMPE      H6R            40.8663861062       12.4491593296       -9.9653304544  MEMB      273             0.0000000000
     33886       273  PMPE      H6S            42.2512991007       11.5379401261       -9.1293524360  MEMB      273             0.0000000000
     33887       273  PMPE      C27            40.4754161152       10.5171111346       -8.9651038925  MEMB      273             0.0000000000
     33888       273  PMPE      H7R            41.0845679469        9.5882885907       -8.9417841774  MEMB      273             0.0000000000
     33889       273  PMPE      H7S            39.5440711564       10.5542765653       -9.5696995963  MEMB      273             0.0000000000
     33890       273  PMPE      C28            40.4880712340       10.9167940461       -7.5329592430  MEMB      273             0.0000000000
     33891       273  PMPE      H8R            40.0519564467       11.9385319324       -7.5196707441  MEMB      273             0.0000000000
     33892       273  PMPE      H8S            41.5184086628       11.0616110145       -7.1434038681  MEMB      273             0.0000000000
     33893       273  PMPE      C29            39.5482907850        9.9784057237       -6.8493405521  MEMB      273             0.0000000000
     33894       273  PMPE      H9R            39.7463380763        8.8852641689       -6.8611639386  MEMB      273             0.0000000000
     33895       273  PMPE      C217           38.1080000336       10.3627650525       -6.8061378973  MEMB      273             0.0000000000
     33896       273  PMPE      H17R           37.4053345737        9.5419981519       -6.7320301849  MEMB      273             0.0000000000
     33897       273  PMPE      H17S           38.0495791924       11.2624697668       -7.4061435611  MEMB      273             0.0000000000
     33898       273  PMPE      C210           38.9147537456       10.3754576539       -5.5671664627  MEMB      273             0.0000000000
     33899       273  PMPE      H10R           38.5905320581        9.6550620268       -4.7859936886  MEMB      273             0.0000000000
     33900       273  PMPE      C211           39.1226307172       11.7885758394       -5.0200959225  MEMB      273             0.0000000000
     33901       273  PMPE      H11R           38.3134671474       12.0305934793       -4.2982909612  MEMB      273             0.0000000000
     33902       273  PMPE      H11S           39.0803949251       12.5069063588       -5.8665816810  MEMB      273             0.0000000000
     33903       273  PMPE      C212           40.4439478238       11.7334798136       -4.0918378995  MEMB      273             0.0000000000
     33904       273  PMPE      H12R           40.5515642831       12.6856178714       -3.5295451278  MEMB      273             0.0000000000
     33905       273  PMPE      H12S           41.2881369273       11.6941056407       -4.8130286542  MEMB      273             0.0000000000
     33906       273  PMPE      C213           40.4802896164       10.5228722978       -3.1228471015  MEMB      273             0.0000000000
     33907       273  PMPE      H13R           40.4835543561        9.5353408652       -3.6318583119  MEMB      273             0.0000000000
     33908       273  PMPE      H13S           39.5926946378       10.6171662536       -2.4613304759  MEMB      273             0.0000000000
     33909       273  PMPE      C214           41.7290330302       10.5570545785       -2.2768142670  MEMB      273             0.0000000000
     33910       273  PMPE      H14R           42.7130877505       10.5425737884       -2.7923227656  MEMB      273             0.0000000000
     33911       273  PMPE      H14S           41.6535250879        9.5625061086       -1.7874346557  MEMB      273             0.0000000000
     33912       273  PMPE      C215           41.6320036505       11.5820232578       -1.1313242982  MEMB      273             0.0000000000
     33913       273  PMPE      H15R           40.6626918641       11.7450508861       -0.6134648518  MEMB      273             0.0000000000
     33914       273  PMPE      H15S           41.8158998986       12.5934773290       -1.5525874144  MEMB      273             0.0000000000
     33915       273  PMPE      C216           42.6181076689       11.2029318764       -0.0128762001  MEMB      273             0.0000000000
     33916       273  PMPE      H16R           42.5553735943       11.8934988613        0.8551686947  MEMB      273             0.0000000000
     33917       273  PMPE      H16S           42.4244521763       10.1535472679        0.2963325249  MEMB      273             0.0000000000
     33918       273  PMPE      H16T           43.6711038439       11.2535132912       -0.3635355352  MEMB      273             0.0000000000
     33919       273  PMPE      C33            38.3170470913        5.8019664073      -10.2537924084  MEMB      273             0.0000000000
     33920       273  PMPE      H3X            39.2742238182        5.3815316561       -9.8778028635  MEMB      273             0.0000000000
     33921       273  PMPE      H3Y            37.8911320801        4.9827138172      -10.8716454430  MEMB      273             0.0000000000
     33922       273  PMPE      C34            37.3183803880        5.8013784213       -9.0656653785  MEMB      273             0.0000000000
     33923       273  PMPE      H4X            37.0452735265        4.7464946609       -8.8489777999  MEMB      273             0.0000000000
     33924       273  PMPE      H4Y            36.3269973355        6.1955837140       -9.3756381020  MEMB      273             0.0000000000
     33925       273  PMPE      C35            37.8391853704        6.4984502081       -7.7839012412  MEMB      273             0.0000000000
     33926       273  PMPE      H5X            37.0203653897        6.6749617686       -7.0540392704  MEMB      273             0.0000000000
     33927       273  PMPE      H5Y            38.1299631985        7.4959702398       -8.1772505730  MEMB      273             0.0000000000
     33928       273  PMPE      C36            38.9879232708        5.7959764533       -7.0238070690  MEMB      273             0.0000000000
     33929       273  PMPE      H6X            39.2203751228        6.4523378529       -6.1580837586  MEMB      273             0.0000000000
     33930       273  PMPE      H6Y            39.8586758535        5.8147624415       -7.7135594137  MEMB      273             0.0000000000
     33931       273  PMPE      C37            38.7528022659        4.3324470161       -6.5181231017  MEMB      273             0.0000000000
     33932       273  PMPE      H7X            39.6904221385        4.1498367109       -5.9508104802  MEMB      273             0.0000000000
     33933       273  PMPE      H7Y            38.6353534629        3.6139510547       -7.3573435311  MEMB      273             0.0000000000
     33934       273  PMPE      C38            37.6047163457        4.2293293261       -5.5833225120  MEMB      273             0.0000000000
     33935       273  PMPE      H8X            37.6693633072        3.3875744686       -4.8611101280  MEMB      273             0.0000000000
     33936       273  PMPE      H8Y            36.6676414032        4.0993177538       -6.1658241951  MEMB      273             0.0000000000
     33937       273  PMPE      C39            37.3050043523        5.3974052998       -4.6473826898  MEMB      273             0.0000000000
     33938       273  PMPE      H9X            37.2541682061        6.4043833450       -5.1139998429  MEMB      273             0.0000000000
     33939       273  PMPE      H9Y            38.2189304878        5.4988554453       -4.0238696679  MEMB      273             0.0000000000
     33940       273  PMPE      C310           36.0211654535        5.2443900891       -3.8050046019  MEMB      273             0.0000000000
     33941       273  PMPE      H10X           35.9079083945        4.2055427524       -3.4277907632  MEMB      273             0.0000000000
     33942       273  PMPE      H10Y           35.2040323014        5.3195217619       -4.5539837052  MEMB      273             0.0000000000
     33943       273  PMPE      C311           35.8930238540        6.2450738240       -2.6593212772  MEMB      273             0.0000000000
     33944       273  PMPE      H11X           36.7168777152        6.0857968442       -1.9311604556  MEMB      273             0.0000000000
     33945       273  PMPE      H11Y           34.9233770148        6.1013763386       -2.1363899765  MEMB      273             0.0000000000
     33946       273  PMPE      C312           35.9586610509        7.8625760439       -2.9279237920  MEMB      273             0.0000000000
     33947       273  PMPE      H12X           35.0560085036        7.9483707740       -3.5699352218  MEMB      273             0.0000000000
     33948       273  PMPE      H12Y           36.9438182548        8.0285206677       -3.4139777284  MEMB      273             0.0000000000
     33949       273  PMPE      C313           35.7852698425        8.6379745423       -1.6607319595  MEMB      273             0.0000000000
     33950       273  PMPE      H13X           35.0843195403        8.0228249745       -1.0569263226  MEMB      273             0.0000000000
     33951       273  PMPE      H13Y           35.2147787589        9.5710789017       -1.8561216990  MEMB      273             0.0000000000
     33952       273  PMPE      C314           37.1187420012        9.0122906538       -1.0684515601  MEMB      273             0.0000000000
     33953       273  PMPE      H14X           37.4150820069        9.8719427819       -1.7068101552  MEMB      273             0.0000000000
     33954       273  PMPE      H14Y           37.9201842389        8.2443646871       -1.0204806763  MEMB      273             0.0000000000
     33955       273  PMPE      C315           36.9631859274        9.5994465314        0.4151594756  MEMB      273             0.0000000000
     33956       273  PMPE      H15X           36.4496362425        8.8934776806        1.1023252645  MEMB      273             0.0000000000
     33957       273  PMPE      H15Y           36.1530562610       10.3474729102        0.2792665799  MEMB      273             0.0000000000
     33958       273  PMPE      C316           38.0998699551       10.2928728959        1.1322778923  MEMB      273             0.0000000000
     33959       273  PMPE      H16X           38.8413905007       10.6477415275        0.3849247257  MEMB      273             0.0000000000
     33960       273  PMPE      H16Y           38.6704798481        9.6751378294        1.8583144296  MEMB      273             0.0000000000
     33961       273  PMPE      H16Z           37.6959062349       11.1924319735        1.6440664355  MEMB      273             0.0000000000
     33962       274  PMPE      N             -40.2498827882        4.2159430783      -20.7902055113  MEMB      274             0.0000000000
     33963       274  PMPE      HN1           -40.7414935379        4.8870466949      -21.4143356515  MEMB      274             0.0000000000
     33964       274  PMPE      HN2           -40.6104769618        3.2470407316      -20.9033426352  MEMB      274             0.0000000000
     33965       274  PMPE      HN3           -40.4851627349        4.4592075487      -19.8068104647  MEMB      274             0.0000000000
     33966       274  PMPE      C12           -38.7997836513        4.0257437565      -21.0027716986  MEMB      274             0.0000000000
     33967       274  PMPE      H12A          -38.5045187233        4.9536370117      -21.5377051309  MEMB      274             0.0000000000
     33968       274  PMPE      H12B          -38.6709821821        3.2883741593      -21.8237573098  MEMB      274             0.0000000000
     33969       274  PMPE      C11           -38.0477791093        3.6819638469      -19.6567045579  MEMB      274             0.0000000000
     33970       274  PMPE      H11A          -38.1614983638        4.4299499530      -18.8431287357  MEMB      274             0.0000000000
     33971       274  PMPE      H11B          -37.0116038845        3.6034920705      -20.0497746248  MEMB      274             0.0000000000
     33972       274  PMPE      P             -37.3442837411        1.6260601520      -18.1340449987  MEMB      274             0.0000000000
     33973       274  PMPE      O13           -36.1430568277        2.5277860136      -18.0412749678  MEMB      274             0.0000000000
     33974       274  PMPE      O14           -37.1580199336        0.2117575471      -18.5210620361  MEMB      274             0.0000000000
     33975       274  PMPE      O11           -38.1114869012        1.7647158757      -16.7146807130  MEMB      274             0.0000000000
     33976       274  PMPE      O12           -38.3352542354        2.3682396678      -19.1392555163  MEMB      274             0.0000000000
     33977       274  PMPE      C1            -38.2263447781        0.8141051302      -15.6755596023  MEMB      274             0.0000000000
     33978       274  PMPE      HA            -38.0455726954       -0.1859791813      -16.1244181860  MEMB      274             0.0000000000
     33979       274  PMPE      HB            -39.2608184353        0.9056445568      -15.2808370100  MEMB      274             0.0000000000
     33980       274  PMPE      C2            -37.3435960701        1.0330227296      -14.3889725260  MEMB      274             0.0000000000
     33981       274  PMPE      HS            -37.8435976297        0.4827030618      -13.5634618102  MEMB      274             0.0000000000
     33982       274  PMPE      O21           -37.1732008273        2.4911622580      -14.1550872314  MEMB      274             0.0000000000
     33983       274  PMPE      C21           -36.9000721733        2.7542870747      -12.8039609992  MEMB      274             0.0000000000
     33984       274  PMPE      O22           -37.1343576002        2.0076693728      -11.8912386974  MEMB      274             0.0000000000
     33985       274  PMPE      C22           -36.3344783970        4.1561566770      -12.7474561579  MEMB      274             0.0000000000
     33986       274  PMPE      H2R           -36.5381025074        4.6759002084      -13.7080419604  MEMB      274             0.0000000000
     33987       274  PMPE      H2S           -35.2599354174        4.0099195526      -12.5060166875  MEMB      274             0.0000000000
     33988       274  PMPE      C3            -35.9621733492        0.3368746756      -14.5751086288  MEMB      274             0.0000000000
     33989       274  PMPE      HX            -35.2636536290        0.9920345193      -15.1382754646  MEMB      274             0.0000000000
     33990       274  PMPE      HY            -36.1602844861       -0.5766200776      -15.1756087010  MEMB      274             0.0000000000
     33991       274  PMPE      O31           -35.4014401975       -0.0796653552      -13.3815369321  MEMB      274             0.0000000000
     33992       274  PMPE      C31           -34.1596357237        0.2914372734      -13.0803897168  MEMB      274             0.0000000000
     33993       274  PMPE      O32           -33.3603450496        0.8989510643      -13.7374230048  MEMB      274             0.0000000000
     33994       274  PMPE      C32           -33.7999548815       -0.4733850097      -11.8317892603  MEMB      274             0.0000000000
     33995       274  PMPE      H2X           -33.0738027160       -1.2465482656      -12.1623075605  MEMB      274             0.0000000000
     33996       274  PMPE      H2Y           -34.6941281703       -0.9539435870      -11.3803041775  MEMB      274             0.0000000000
     33997       274  PMPE      C23           -37.0241696329        4.9232674443      -11.6676157814  MEMB      274             0.0000000000
     33998       274  PMPE      H3R           -37.1041133463        4.2606516264      -10.7794315742  MEMB      274             0.0000000000
     33999       274  PMPE      H3S           -38.0596819870        5.1113334645      -12.0235174321  MEMB      274             0.0000000000
     34000       274  PMPE      C24           -36.2951423735        6.1604133160      -11.1578948937  MEMB      274             0.0000000000
     34001       274  PMPE      H4R           -35.7364904194        6.7192072938      -11.9389062023  MEMB      274             0.0000000000
     34002       274  PMPE      H4S           -35.5597007901        5.7824904190      -10.4158572714  MEMB      274             0.0000000000
     34003       274  PMPE      C25           -37.1464245055        7.2442909887      -10.3779235154  MEMB      274             0.0000000000
     34004       274  PMPE      H5R           -37.8635948799        7.5373135614      -11.1742434510  MEMB      274             0.0000000000
     34005       274  PMPE      H5S           -36.4405682721        8.0725697204      -10.1542235076  MEMB      274             0.0000000000
     34006       274  PMPE      C26           -38.0553334289        6.7133951158       -9.1938253683  MEMB      274             0.0000000000
     34007       274  PMPE      H6R           -38.5010979727        5.7489535150       -9.5185826285  MEMB      274             0.0000000000
     34008       274  PMPE      H6S           -38.7637161160        7.4672993101       -8.7886795707  MEMB      274             0.0000000000
     34009       274  PMPE      C27           -37.1304752896        6.2696093561       -8.0161707440  MEMB      274             0.0000000000
     34010       274  PMPE      H7R           -36.3376610848        7.0455216656       -7.9551249241  MEMB      274             0.0000000000
     34011       274  PMPE      H7S           -36.5957181707        5.3338639891       -8.2858674629  MEMB      274             0.0000000000
     34012       274  PMPE      C28           -37.8871887930        6.1731839763       -6.6084182511  MEMB      274             0.0000000000
     34013       274  PMPE      H8R           -38.3369210261        7.1418077272       -6.3021007336  MEMB      274             0.0000000000
     34014       274  PMPE      H8S           -37.0674286703        5.9373294482       -5.8965983891  MEMB      274             0.0000000000
     34015       274  PMPE      C29           -38.9497152737        5.0841710772       -6.7758061104  MEMB      274             0.0000000000
     34016       274  PMPE      H9R           -38.7550460047        4.2297247066       -7.4587015120  MEMB      274             0.0000000000
     34017       274  PMPE      C217          -40.3580822381        5.6586529979       -7.1778597871  MEMB      274             0.0000000000
     34018       274  PMPE      H17R          -40.7504894179        5.0199740605       -7.9595221402  MEMB      274             0.0000000000
     34019       274  PMPE      H17S          -40.4651540851        6.7327520331       -7.2658136276  MEMB      274             0.0000000000
     34020       274  PMPE      C210          -40.1512491305        5.0492573716       -5.8771687847  MEMB      274             0.0000000000
     34021       274  PMPE      H10R          -40.7326665313        4.1053903326       -5.8037536040  MEMB      274             0.0000000000
     34022       274  PMPE      C211          -40.1917067593        5.9568198630       -4.6058009522  MEMB      274             0.0000000000
     34023       274  PMPE      H11R          -41.1981803070        6.0425541773       -4.1432196546  MEMB      274             0.0000000000
     34024       274  PMPE      H11S          -39.7999973302        6.9683086276       -4.8461660027  MEMB      274             0.0000000000
     34025       274  PMPE      C212          -39.3575772137        5.4664402323       -3.3977630384  MEMB      274             0.0000000000
     34026       274  PMPE      H12R          -38.5385193173        4.9405508690       -3.9333984547  MEMB      274             0.0000000000
     34027       274  PMPE      H12S          -39.7202294862        4.5649247834       -2.8591774432  MEMB      274             0.0000000000
     34028       274  PMPE      C213          -39.0400589802        6.6869118346       -2.4448952429  MEMB      274             0.0000000000
     34029       274  PMPE      H13R          -40.0807139044        6.8804072895       -2.1073794770  MEMB      274             0.0000000000
     34030       274  PMPE      H13S          -38.6731458985        7.5644153346       -3.0190763760  MEMB      274             0.0000000000
     34031       274  PMPE      C214          -38.2289442715        6.4956905656       -1.1297906961  MEMB      274             0.0000000000
     34032       274  PMPE      H14R          -38.6234461763        5.5892562114       -0.6227730993  MEMB      274             0.0000000000
     34033       274  PMPE      H14S          -38.4221099829        7.3347452688       -0.4276540171  MEMB      274             0.0000000000
     34034       274  PMPE      C215          -36.6754310212        6.5166267411       -1.3759722878  MEMB      274             0.0000000000
     34035       274  PMPE      H15R          -36.1634431340        6.3897919874       -0.3981660525  MEMB      274             0.0000000000
     34036       274  PMPE      H15S          -36.3194320982        7.4692399514       -1.8233123118  MEMB      274             0.0000000000
     34037       274  PMPE      C216          -36.1664590967        5.3291520746       -2.2002593597  MEMB      274             0.0000000000
     34038       274  PMPE      H16R          -36.2691060089        4.4268185139       -1.5602761411  MEMB      274             0.0000000000
     34039       274  PMPE      H16S          -36.7353010529        5.2984510858       -3.1540916839  MEMB      274             0.0000000000
     34040       274  PMPE      H16T          -35.0833947802        5.3965161342       -2.4384924048  MEMB      274             0.0000000000
     34041       274  PMPE      C33           -33.0710821854        0.4045205239      -10.8162487988  MEMB      274             0.0000000000
     34042       274  PMPE      H3X           -32.1038462953        0.7720206352      -11.2208714816  MEMB      274             0.0000000000
     34043       274  PMPE      H3Y           -32.7506680245       -0.3093156473      -10.0275199422  MEMB      274             0.0000000000
     34044       274  PMPE      C34           -33.8862873138        1.5851965693      -10.2516293162  MEMB      274             0.0000000000
     34045       274  PMPE      H4X           -34.7236516286        1.2857141032       -9.5857079620  MEMB      274             0.0000000000
     34046       274  PMPE      H4Y           -34.4018970691        2.0685734087      -11.1088426725  MEMB      274             0.0000000000
     34047       274  PMPE      C35           -33.0391407300        2.6788422850       -9.5172085746  MEMB      274             0.0000000000
     34048       274  PMPE      H5X           -33.8326913773        3.4466512893       -9.3944580217  MEMB      274             0.0000000000
     34049       274  PMPE      H5Y           -32.1876639236        2.9112576542      -10.1919615428  MEMB      274             0.0000000000
     34050       274  PMPE      C36           -32.5648061660        2.3503095439       -8.0447568119  MEMB      274             0.0000000000
     34051       274  PMPE      H6X           -32.2372953111        3.3679846717       -7.7424406018  MEMB      274             0.0000000000
     34052       274  PMPE      H6Y           -31.6867869155        1.6713356403       -8.0937206889  MEMB      274             0.0000000000
     34053       274  PMPE      C37           -33.5613170860        1.8824516398       -7.0572665018  MEMB      274             0.0000000000
     34054       274  PMPE      H7X           -33.1316635223        1.7314211263       -6.0439016304  MEMB      274             0.0000000000
     34055       274  PMPE      H7Y           -34.0645184539        0.9372160977       -7.3533051105  MEMB      274             0.0000000000
     34056       274  PMPE      C38           -34.7480552958        2.8610437984       -6.8158291127  MEMB      274             0.0000000000
     34057       274  PMPE      H8X           -35.2412571495        2.8237621183       -7.8106569275  MEMB      274             0.0000000000
     34058       274  PMPE      H8Y           -34.3366812160        3.8668066451       -6.5844566542  MEMB      274             0.0000000000
     34059       274  PMPE      C39           -35.6825447673        2.5431256641       -5.6348034392  MEMB      274             0.0000000000
     34060       274  PMPE      H9X           -36.6555276161        3.0785079996       -5.6033208494  MEMB      274             0.0000000000
     34061       274  PMPE      H9Y           -35.1397118616        2.8135494321       -4.7039298200  MEMB      274             0.0000000000
     34062       274  PMPE      C310          -36.1068231207        1.1022142149       -5.4383053931  MEMB      274             0.0000000000
     34063       274  PMPE      H10X          -35.2810785343        0.6584487953       -4.8420341530  MEMB      274             0.0000000000
     34064       274  PMPE      H10Y          -36.0996397169        0.8479615850       -6.5197967016  MEMB      274             0.0000000000
     34065       274  PMPE      C311          -37.4793358969        0.8332367340       -4.7357930781  MEMB      274             0.0000000000
     34066       274  PMPE      H11X          -37.4472165588       -0.2705916887       -4.6139229045  MEMB      274             0.0000000000
     34067       274  PMPE      H11Y          -38.3759374678        1.1152444080       -5.3281592903  MEMB      274             0.0000000000
     34068       274  PMPE      C312          -37.5515119446        1.4115702587       -3.2948276813  MEMB      274             0.0000000000
     34069       274  PMPE      H12X          -37.0273710041        2.3904942767       -3.2587001158  MEMB      274             0.0000000000
     34070       274  PMPE      H12Y          -36.8928752336        0.7327728539       -2.7119434124  MEMB      274             0.0000000000
     34071       274  PMPE      C313          -38.9991289168        1.5306446846       -2.6840023951  MEMB      274             0.0000000000
     34072       274  PMPE      H13X          -39.5119435849        0.5610653130       -2.8608008626  MEMB      274             0.0000000000
     34073       274  PMPE      H13Y          -39.5471982825        2.3148165756       -3.2488173647  MEMB      274             0.0000000000
     34074       274  PMPE      C314          -39.0507732057        1.9030139290       -1.2161849228  MEMB      274             0.0000000000
     34075       274  PMPE      H14X          -40.0106136009        2.4280897588       -1.0229926846  MEMB      274             0.0000000000
     34076       274  PMPE      H14Y          -38.2290508334        2.5958452833       -0.9349749542  MEMB      274             0.0000000000
     34077       274  PMPE      C315          -38.8252037056        0.6930481916       -0.2590055336  MEMB      274             0.0000000000
     34078       274  PMPE      H15X          -37.9002972583        0.1986661624       -0.6256862832  MEMB      274             0.0000000000
     34079       274  PMPE      H15Y          -39.6541460038       -0.0460283385       -0.2283170689  MEMB      274             0.0000000000
     34080       274  PMPE      C316          -38.5643477500        1.1100427894        1.1789218522  MEMB      274             0.0000000000
     34081       274  PMPE      H16X          -38.9313861720        0.3287381882        1.8783268520  MEMB      274             0.0000000000
     34082       274  PMPE      H16Y          -39.1952202415        2.0132185222        1.3224304359  MEMB      274             0.0000000000
     34083       274  PMPE      H16Z          -37.5092539111        1.3747271018        1.4048443922  MEMB      274             0.0000000000
     34084       275  PMPE      N             -11.4212914121       38.1647280037      -19.8138658152  MEMB      275             0.0000000000
     34085       275  PMPE      HN1           -11.5721475230       38.7610699643      -20.6524471946  MEMB      275             0.0000000000
     34086       275  PMPE      HN2           -12.3946519417       38.0137673382      -19.4801292396  MEMB      275             0.0000000000
     34087       275  PMPE      HN3           -10.8590359802       38.5733266744      -19.0402277500  MEMB      275             0.0000000000
     34088       275  PMPE      C12           -11.0237441356       36.7994488398      -20.2403849422  MEMB      275             0.0000000000
     34089       275  PMPE      H12A          -11.4970396394       36.4667833933      -21.1888815682  MEMB      275             0.0000000000
     34090       275  PMPE      H12B          -11.4043406875       36.0614886798      -19.5022237311  MEMB      275             0.0000000000
     34091       275  PMPE      C11            -9.4867149711       36.6661736381      -20.2900289885  MEMB      275             0.0000000000
     34092       275  PMPE      H11A           -9.1355670824       37.4992397821      -20.9357974211  MEMB      275             0.0000000000
     34093       275  PMPE      H11B           -9.1591212645       35.6680941732      -20.6517479668  MEMB      275             0.0000000000
     34094       275  PMPE      P              -7.6302133826       37.2391738254      -18.3904300973  MEMB      275             0.0000000000
     34095       275  PMPE      O13            -6.7444586387       37.8444785300      -19.3658994301  MEMB      275             0.0000000000
     34096       275  PMPE      O14            -7.0340456661       36.1437230189      -17.5386133376  MEMB      275             0.0000000000
     34097       275  PMPE      O11            -8.0023275527       38.4399128595      -17.3995661162  MEMB      275             0.0000000000
     34098       275  PMPE      O12            -9.0054961743       36.7565292619      -18.9612112740  MEMB      275             0.0000000000
     34099       275  PMPE      C1             -8.8558238349       38.2130461433      -16.3046569117  MEMB      275             0.0000000000
     34100       275  PMPE      HA             -8.6983347305       37.2687761814      -15.7408550074  MEMB      275             0.0000000000
     34101       275  PMPE      HB             -9.9309282805       38.2169960837      -16.5847564999  MEMB      275             0.0000000000
     34102       275  PMPE      C2             -8.6848227040       39.3736880337      -15.2724621207  MEMB      275             0.0000000000
     34103       275  PMPE      HS             -9.1833847871       40.3055128483      -15.6151858655  MEMB      275             0.0000000000
     34104       275  PMPE      O21            -7.2045706337       39.6032172480      -15.1263721939  MEMB      275             0.0000000000
     34105       275  PMPE      C21            -6.9292910571       40.7079218435      -14.4638463356  MEMB      275             0.0000000000
     34106       275  PMPE      O22            -7.7015799199       41.5979314635      -14.1343491194  MEMB      275             0.0000000000
     34107       275  PMPE      C22            -5.4894801255       40.7852314990      -14.1640197530  MEMB      275             0.0000000000
     34108       275  PMPE      H2R            -5.3348478423       41.8007329573      -13.7407385928  MEMB      275             0.0000000000
     34109       275  PMPE      H2S            -4.9892125468       40.6977802012      -15.1521521570  MEMB      275             0.0000000000
     34110       275  PMPE      C3             -9.2320526618       38.9851877185      -13.8971539996  MEMB      275             0.0000000000
     34111       275  PMPE      HX            -10.2996456918       38.7060162419      -14.0261089666  MEMB      275             0.0000000000
     34112       275  PMPE      HY             -9.1335414935       39.8581816804      -13.2170817773  MEMB      275             0.0000000000
     34113       275  PMPE      O31            -8.7454025619       37.7518875455      -13.3323214211  MEMB      275             0.0000000000
     34114       275  PMPE      C31            -9.2515471588       37.3060957510      -12.2279557020  MEMB      275             0.0000000000
     34115       275  PMPE      O32           -10.1168392448       37.8343366877      -11.5370992321  MEMB      275             0.0000000000
     34116       275  PMPE      C32            -8.4657504791       36.0511433187      -11.8351257615  MEMB      275             0.0000000000
     34117       275  PMPE      H2X            -8.2074537592       35.5457712429      -12.7902190009  MEMB      275             0.0000000000
     34118       275  PMPE      H2Y            -9.1820051042       35.3707215049      -11.3268673439  MEMB      275             0.0000000000
     34119       275  PMPE      C23            -4.8877335458       39.6674924120      -13.3488020476  MEMB      275             0.0000000000
     34120       275  PMPE      H3R            -3.8290064598       39.3896244355      -13.5390852082  MEMB      275             0.0000000000
     34121       275  PMPE      H3S            -5.4049946119       38.7220397534      -13.6187671007  MEMB      275             0.0000000000
     34122       275  PMPE      C24            -4.9132331485       39.9004976196      -11.8476579449  MEMB      275             0.0000000000
     34123       275  PMPE      H4R            -4.1703008212       40.6442310805      -11.4881675162  MEMB      275             0.0000000000
     34124       275  PMPE      H4S            -4.8373040598       38.8810845782      -11.4125111843  MEMB      275             0.0000000000
     34125       275  PMPE      C25            -6.2348092122       40.4773353913      -11.3081719725  MEMB      275             0.0000000000
     34126       275  PMPE      H5R            -7.0999153034       39.9917900048      -11.8083296137  MEMB      275             0.0000000000
     34127       275  PMPE      H5S            -6.3394710079       41.5599094046      -11.5348879915  MEMB      275             0.0000000000
     34128       275  PMPE      C26            -6.3974825567       40.1027880318       -9.7844719559  MEMB      275             0.0000000000
     34129       275  PMPE      H6R            -5.6821707772       40.6400677281       -9.1257005245  MEMB      275             0.0000000000
     34130       275  PMPE      H6S            -6.1322022701       39.0265837333       -9.7087650017  MEMB      275             0.0000000000
     34131       275  PMPE      C27            -7.8029489226       40.4051708581       -9.3113923483  MEMB      275             0.0000000000
     34132       275  PMPE      H7R            -8.4153768449       39.6597051128       -9.8623310860  MEMB      275             0.0000000000
     34133       275  PMPE      H7S            -8.2230063221       41.3308974312       -9.7596140975  MEMB      275             0.0000000000
     34134       275  PMPE      C28            -7.9733767490       40.2572848023       -7.7471230632  MEMB      275             0.0000000000
     34135       275  PMPE      H8R            -7.4163858911       41.1900661659       -7.5147414728  MEMB      275             0.0000000000
     34136       275  PMPE      H8S            -7.4053637129       39.3409841701       -7.4786539420  MEMB      275             0.0000000000
     34137       275  PMPE      C29            -9.4524743359       40.2115266423       -7.4405035556  MEMB      275             0.0000000000
     34138       275  PMPE      H9R           -10.1188764622       39.5233727133       -8.0032415487  MEMB      275             0.0000000000
     34139       275  PMPE      C217           -9.9655738594       41.5458299663       -6.9278535094  MEMB      275             0.0000000000
     34140       275  PMPE      H17R          -10.9586436787       41.7729580833       -7.2954321573  MEMB      275             0.0000000000
     34141       275  PMPE      H17S           -9.2702793626       42.3761391972       -6.9342604401  MEMB      275             0.0000000000
     34142       275  PMPE      C210           -9.9063518132       40.3557679740       -5.9546872934  MEMB      275             0.0000000000
     34143       275  PMPE      H10R          -10.8766806277       39.8462763747       -5.7724748456  MEMB      275             0.0000000000
     34144       275  PMPE      C211           -8.8045679489       40.4653645553       -4.8854336612  MEMB      275             0.0000000000
     34145       275  PMPE      H11R           -8.0974432869       41.3160301163       -4.9886985130  MEMB      275             0.0000000000
     34146       275  PMPE      H11S           -8.1055596613       39.6173919051       -5.0486850400  MEMB      275             0.0000000000
     34147       275  PMPE      C212           -9.3727249498       40.4082524565       -3.3681778997  MEMB      275             0.0000000000
     34148       275  PMPE      H12R           -9.8815555455       39.4210161902       -3.3403036215  MEMB      275             0.0000000000
     34149       275  PMPE      H12S          -10.0777368857       41.2665496610       -3.3435756180  MEMB      275             0.0000000000
     34150       275  PMPE      C213           -8.2528203600       40.4221665121       -2.3073916191  MEMB      275             0.0000000000
     34151       275  PMPE      H13R           -7.5514845820       39.6252146575       -2.6349841192  MEMB      275             0.0000000000
     34152       275  PMPE      H13S           -8.7593344594       40.2108524085       -1.3414147848  MEMB      275             0.0000000000
     34153       275  PMPE      C214           -7.5135363983       41.7799680022       -2.1480818445  MEMB      275             0.0000000000
     34154       275  PMPE      H14R           -8.2261920433       42.4488363058       -1.6198213616  MEMB      275             0.0000000000
     34155       275  PMPE      H14S           -7.3756376198       42.0680889750       -3.2121736208  MEMB      275             0.0000000000
     34156       275  PMPE      C215           -6.2070340333       41.7750239532       -1.4443059034  MEMB      275             0.0000000000
     34157       275  PMPE      H15R           -6.2264794509       41.2139354408       -0.4855967189  MEMB      275             0.0000000000
     34158       275  PMPE      H15S           -5.9931889706       42.8547949592       -1.2936868009  MEMB      275             0.0000000000
     34159       275  PMPE      C216           -5.0530486520       41.2818494373       -2.3243660844  MEMB      275             0.0000000000
     34160       275  PMPE      H16R           -5.1101267550       40.2131140310       -2.6224726006  MEMB      275             0.0000000000
     34161       275  PMPE      H16S           -5.0979641312       41.9317148632       -3.2243527766  MEMB      275             0.0000000000
     34162       275  PMPE      H16T           -4.1483252732       41.4340040066       -1.6977500854  MEMB      275             0.0000000000
     34163       275  PMPE      C33            -7.2977596703       36.3891381825      -10.9901300190  MEMB      275             0.0000000000
     34164       275  PMPE      H3X            -7.6742377893       36.9001932203      -10.0783145433  MEMB      275             0.0000000000
     34165       275  PMPE      H3Y            -6.5428988752       37.0423038081      -11.4778600386  MEMB      275             0.0000000000
     34166       275  PMPE      C34            -6.4184440144       35.1719751972      -10.4269787603  MEMB      275             0.0000000000
     34167       275  PMPE      H4X            -5.9982524742       34.6700648189      -11.3246684785  MEMB      275             0.0000000000
     34168       275  PMPE      H4Y            -7.0775844662       34.4183581953       -9.9454021135  MEMB      275             0.0000000000
     34169       275  PMPE      C35            -5.2984032718       35.5819076583       -9.4499252630  MEMB      275             0.0000000000
     34170       275  PMPE      H5X            -4.7606587464       36.3665542489      -10.0239294388  MEMB      275             0.0000000000
     34171       275  PMPE      H5Y            -4.6842609533       34.7055781309       -9.1512665591  MEMB      275             0.0000000000
     34172       275  PMPE      C36            -5.7995820575       36.2758925269       -8.1090481273  MEMB      275             0.0000000000
     34173       275  PMPE      H6X            -6.5460628041       35.5877524987       -7.6578819222  MEMB      275             0.0000000000
     34174       275  PMPE      H6Y            -6.3285714797       37.2003637918       -8.4250301216  MEMB      275             0.0000000000
     34175       275  PMPE      C37            -4.6736543808       36.3961615095       -7.0497030441  MEMB      275             0.0000000000
     34176       275  PMPE      H7X            -3.7450197701       36.8752382393       -7.4271208390  MEMB      275             0.0000000000
     34177       275  PMPE      H7Y            -4.2897823940       35.3805894291       -6.8139563120  MEMB      275             0.0000000000
     34178       275  PMPE      C38            -5.1124693446       37.0897423181       -5.7793886461  MEMB      275             0.0000000000
     34179       275  PMPE      H8X            -5.8550504117       37.8678733936       -6.0576085902  MEMB      275             0.0000000000
     34180       275  PMPE      H8Y            -4.2394296379       37.5841094324       -5.3021840231  MEMB      275             0.0000000000
     34181       275  PMPE      C39            -5.7717758595       36.1721896360       -4.7435824205  MEMB      275             0.0000000000
     34182       275  PMPE      H9X            -5.0110870102       35.7179058197       -4.0732847153  MEMB      275             0.0000000000
     34183       275  PMPE      H9Y            -6.2871999007       35.3315872307       -5.2554879071  MEMB      275             0.0000000000
     34184       275  PMPE      C310           -6.7698738809       36.9616691277       -3.7932084530  MEMB      275             0.0000000000
     34185       275  PMPE      H10X           -7.4331999915       37.5932055302       -4.4220806523  MEMB      275             0.0000000000
     34186       275  PMPE      H10Y           -6.1251049975       37.7014527674       -3.2723293579  MEMB      275             0.0000000000
     34187       275  PMPE      C311           -7.6938315088       36.1524717612       -2.9303351702  MEMB      275             0.0000000000
     34188       275  PMPE      H11X           -8.4375304999       35.5546249026       -3.4993804867  MEMB      275             0.0000000000
     34189       275  PMPE      H11Y           -8.2817670859       36.8951811562       -2.3497885340  MEMB      275             0.0000000000
     34190       275  PMPE      C312           -6.9567306846       35.2232327466       -1.9103825373  MEMB      275             0.0000000000
     34191       275  PMPE      H12X           -6.4567163807       34.4778383703       -2.5651294502  MEMB      275             0.0000000000
     34192       275  PMPE      H12Y           -7.7294468634       34.7835169420       -1.2441402071  MEMB      275             0.0000000000
     34193       275  PMPE      C313           -5.9964850056       35.9608092869       -1.0940946054  MEMB      275             0.0000000000
     34194       275  PMPE      H13X           -5.1928134429       36.5485029847       -1.5870956368  MEMB      275             0.0000000000
     34195       275  PMPE      H13Y           -5.4588815394       35.1680235712       -0.5312500820  MEMB      275             0.0000000000
     34196       275  PMPE      C314           -6.6525962994       36.8111904802        0.0163520024  MEMB      275             0.0000000000
     34197       275  PMPE      H14X           -7.2632838334       36.2773124195        0.7755329589  MEMB      275             0.0000000000
     34198       275  PMPE      H14Y           -7.3839483636       37.5334757707       -0.4052523069  MEMB      275             0.0000000000
     34199       275  PMPE      C315           -5.6689009342       37.7242052684        0.7503017125  MEMB      275             0.0000000000
     34200       275  PMPE      H15X           -4.9547097676       38.1814335879        0.0325322244  MEMB      275             0.0000000000
     34201       275  PMPE      H15Y           -5.0856046463       37.0079497950        1.3676050559  MEMB      275             0.0000000000
     34202       275  PMPE      C316           -6.2314351632       38.7662049321        1.6989392289  MEMB      275             0.0000000000
     34203       275  PMPE      H16X           -6.9443130032       39.3981447284        1.1272934071  MEMB      275             0.0000000000
     34204       275  PMPE      H16Y           -5.4317855166       39.4226996591        2.1037800130  MEMB      275             0.0000000000
     34205       275  PMPE      H16Z           -6.6823768906       38.2753439722        2.5877748457  MEMB      275             0.0000000000
     34206       276  PMPE      N              38.2962663872       -6.1742196050      -22.2335419064  MEMB      276             0.0000000000
     34207       276  PMPE      HN1            38.8367758887       -5.3549920816      -22.5775123546  MEMB      276             0.0000000000
     34208       276  PMPE      HN2            39.0015514470       -6.9192918294      -22.0631296131  MEMB      276             0.0000000000
     34209       276  PMPE      HN3            37.7960356214       -6.5525691946      -23.0631327434  MEMB      276             0.0000000000
     34210       276  PMPE      C12            37.1874566175       -5.8197067830      -21.3122968982  MEMB      276             0.0000000000
     34211       276  PMPE      H12A           36.5619700584       -6.7331414640      -21.2188916834  MEMB      276             0.0000000000
     34212       276  PMPE      H12B           36.5405802600       -5.1318644784      -21.8977409358  MEMB      276             0.0000000000
     34213       276  PMPE      C11            37.5646703976       -5.1613086561      -19.9805313149  MEMB      276             0.0000000000
     34214       276  PMPE      H11A           36.7254111446       -4.8801172799      -19.3090430965  MEMB      276             0.0000000000
     34215       276  PMPE      H11B           38.1338285305       -4.2705923556      -20.3225906226  MEMB      276             0.0000000000
     34216       276  PMPE      P              38.2965805224       -6.3036174890      -17.6580558502  MEMB      276             0.0000000000
     34217       276  PMPE      O13            39.2118780237       -7.3386547675      -17.2897763221  MEMB      276             0.0000000000
     34218       276  PMPE      O14            36.9397518295       -6.5862372059      -17.2932163218  MEMB      276             0.0000000000
     34219       276  PMPE      O11            38.7204129269       -4.9185469295      -17.0293294911  MEMB      276             0.0000000000
     34220       276  PMPE      O12            38.4286824899       -6.0288526439      -19.2032518916  MEMB      276             0.0000000000
     34221       276  PMPE      C1             39.8214289754       -4.2181479159      -17.4660784606  MEMB      276             0.0000000000
     34222       276  PMPE      HA             39.5007306551       -3.1732369192      -17.6651626188  MEMB      276             0.0000000000
     34223       276  PMPE      HB             40.2885615807       -4.5271710431      -18.4255641853  MEMB      276             0.0000000000
     34224       276  PMPE      C2             40.9843214973       -4.1486794368      -16.4377665643  MEMB      276             0.0000000000
     34225       276  PMPE      HS             41.8896349093       -3.7357425594      -16.9319442730  MEMB      276             0.0000000000
     34226       276  PMPE      O21            41.2227021239       -5.4947419139      -16.0454050045  MEMB      276             0.0000000000
     34227       276  PMPE      C21            42.5318361440       -5.9128439479      -15.9309202013  MEMB      276             0.0000000000
     34228       276  PMPE      O22            43.5015305302       -5.2300251259      -16.1717208271  MEMB      276             0.0000000000
     34229       276  PMPE      C22            42.4721193933       -7.2595143818      -15.3979575823  MEMB      276             0.0000000000
     34230       276  PMPE      H2R            42.8019691304       -7.9223476968      -16.2263130075  MEMB      276             0.0000000000
     34231       276  PMPE      H2S            41.5359247405       -7.6143774030      -14.9163636062  MEMB      276             0.0000000000
     34232       276  PMPE      C3             40.7108450618       -3.2506578012      -15.1951349347  MEMB      276             0.0000000000
     34233       276  PMPE      HX             40.6185818887       -2.2662161813      -15.7017741643  MEMB      276             0.0000000000
     34234       276  PMPE      HY             41.5581072138       -3.2426410032      -14.4765225830  MEMB      276             0.0000000000
     34235       276  PMPE      O31            39.4679863544       -3.5744312190      -14.4871371174  MEMB      276             0.0000000000
     34236       276  PMPE      C31            39.5092032710       -4.5560294066      -13.6639078515  MEMB      276             0.0000000000
     34237       276  PMPE      O32            40.4335110724       -5.2635886603      -13.3894360067  MEMB      276             0.0000000000
     34238       276  PMPE      C32            38.0572081124       -4.7085047607      -13.0865931062  MEMB      276             0.0000000000
     34239       276  PMPE      H2X            37.4369691952       -3.7989726659      -13.2361794528  MEMB      276             0.0000000000
     34240       276  PMPE      H2Y            38.1852012241       -4.8135083866      -11.9879972526  MEMB      276             0.0000000000
     34241       276  PMPE      C23            43.5344867731       -7.4026100318      -14.2712430190  MEMB      276             0.0000000000
     34242       276  PMPE      H3R            44.4869526384       -6.9265596940      -14.5882698680  MEMB      276             0.0000000000
     34243       276  PMPE      H3S            43.6351820108       -8.4796004358      -14.0177214740  MEMB      276             0.0000000000
     34244       276  PMPE      C24            43.2336275242       -6.6552647861      -12.9421348114  MEMB      276             0.0000000000
     34245       276  PMPE      H4R            42.1395085731       -6.8480918122      -12.9486153019  MEMB      276             0.0000000000
     34246       276  PMPE      H4S            43.5867917359       -5.6084563895      -13.0595579709  MEMB      276             0.0000000000
     34247       276  PMPE      C25            43.8203439894       -7.3109107756      -11.7320139928  MEMB      276             0.0000000000
     34248       276  PMPE      H5R            44.9137330242       -7.1142298170      -11.7202669863  MEMB      276             0.0000000000
     34249       276  PMPE      H5S            43.6657368407       -8.4085622957      -11.8067059530  MEMB      276             0.0000000000
     34250       276  PMPE      C26            43.1498472844       -6.8316082434      -10.4208058775  MEMB      276             0.0000000000
     34251       276  PMPE      H6R            43.1172220150       -7.6410507708       -9.6605034862  MEMB      276             0.0000000000
     34252       276  PMPE      H6S            42.0491836851       -6.7667510611      -10.5573872195  MEMB      276             0.0000000000
     34253       276  PMPE      C27            43.6294583721       -5.4661065179       -9.8603755855  MEMB      276             0.0000000000
     34254       276  PMPE      H7R            43.4107402750       -4.7019991942      -10.6366641018  MEMB      276             0.0000000000
     34255       276  PMPE      H7S            44.7386034925       -5.4375688771       -9.8028955475  MEMB      276             0.0000000000
     34256       276  PMPE      C28            42.9957368562       -5.0598774803       -8.4393270219  MEMB      276             0.0000000000
     34257       276  PMPE      H8R            43.7013938160       -4.4300815508       -7.8564666190  MEMB      276             0.0000000000
     34258       276  PMPE      H8S            42.7902583849       -5.9664376458       -7.8308464625  MEMB      276             0.0000000000
     34259       276  PMPE      C29            41.6785357849       -4.2344536294       -8.5887996379  MEMB      276             0.0000000000
     34260       276  PMPE      H9R            41.0071266505       -4.5950166916       -9.3972089082  MEMB      276             0.0000000000
     34261       276  PMPE      C217           41.9473393599       -2.7582299528       -8.7849528996  MEMB      276             0.0000000000
     34262       276  PMPE      H17R           41.2147212240       -2.2007537636       -9.3553745883  MEMB      276             0.0000000000
     34263       276  PMPE      H17S           42.9568772772       -2.4525191514       -8.5394680199  MEMB      276             0.0000000000
     34264       276  PMPE      C210           41.1975367769       -3.2454868842       -7.4951058288  MEMB      276             0.0000000000
     34265       276  PMPE      H10R           40.0952247552       -3.1072773618       -7.5063853263  MEMB      276             0.0000000000
     34266       276  PMPE      C211           42.0158437825       -3.1038285999       -6.2218085373  MEMB      276             0.0000000000
     34267       276  PMPE      H11R           41.5592147263       -2.3275222134       -5.5713019741  MEMB      276             0.0000000000
     34268       276  PMPE      H11S           43.0728865257       -2.8873063480       -6.4865721979  MEMB      276             0.0000000000
     34269       276  PMPE      C212           41.9701639806       -4.3653526506       -5.3579396208  MEMB      276             0.0000000000
     34270       276  PMPE      H12R           42.5562833222       -5.1109591343       -5.9366071413  MEMB      276             0.0000000000
     34271       276  PMPE      H12S           40.8824031137       -4.5688089102       -5.4564416576  MEMB      276             0.0000000000
     34272       276  PMPE      C213           42.2907873550       -4.3154180036       -3.8651320831  MEMB      276             0.0000000000
     34273       276  PMPE      H13R           41.8435577724       -5.1529809668       -3.2882482097  MEMB      276             0.0000000000
     34274       276  PMPE      H13S           41.7803117895       -3.3717722729       -3.5765694382  MEMB      276             0.0000000000
     34275       276  PMPE      C214           43.7921411993       -4.1520477060       -3.6204384240  MEMB      276             0.0000000000
     34276       276  PMPE      H14R           44.2100901382       -3.1361597975       -3.7866063902  MEMB      276             0.0000000000
     34277       276  PMPE      H14S           44.2745979818       -4.9599270385       -4.2111060674  MEMB      276             0.0000000000
     34278       276  PMPE      C215           44.1782849905       -4.4870066404       -2.1514648828  MEMB      276             0.0000000000
     34279       276  PMPE      H15R           45.2850792725       -4.4555466618       -2.0601560952  MEMB      276             0.0000000000
     34280       276  PMPE      H15S           43.9120863922       -5.5534248426       -1.9895669486  MEMB      276             0.0000000000
     34281       276  PMPE      C216           43.5254834787       -3.5682693211       -1.0785419784  MEMB      276             0.0000000000
     34282       276  PMPE      H16R           42.4224519070       -3.6978691854       -1.0494503825  MEMB      276             0.0000000000
     34283       276  PMPE      H16S           43.8997976898       -3.8579567678       -0.0734090099  MEMB      276             0.0000000000
     34284       276  PMPE      H16T           43.8197311537       -2.5063766293       -1.2203990967  MEMB      276             0.0000000000
     34285       276  PMPE      C33            37.3398381766       -5.9056383052      -13.6637586764  MEMB      276             0.0000000000
     34286       276  PMPE      H3X            37.0593483855       -5.7317781693      -14.7246163413  MEMB      276             0.0000000000
     34287       276  PMPE      H3Y            36.3778910122       -6.0075130544      -13.1173157589  MEMB      276             0.0000000000
     34288       276  PMPE      C34            38.0848530225       -7.2393234390      -13.4355628597  MEMB      276             0.0000000000
     34289       276  PMPE      H4X            39.0776543067       -7.2058747382      -13.9331046581  MEMB      276             0.0000000000
     34290       276  PMPE      H4Y            37.4234226548       -7.9753355738      -13.9406540438  MEMB      276             0.0000000000
     34291       276  PMPE      C35            38.2031637831       -7.6506716462      -11.9905041349  MEMB      276             0.0000000000
     34292       276  PMPE      H5X            37.2999889906       -7.2372274748      -11.4928495755  MEMB      276             0.0000000000
     34293       276  PMPE      H5Y            39.1143988363       -7.1771061430      -11.5665854410  MEMB      276             0.0000000000
     34294       276  PMPE      C36            38.3455204323       -9.1282011532      -11.7134780745  MEMB      276             0.0000000000
     34295       276  PMPE      H6X            39.3502502867       -9.2850222200      -12.1609666800  MEMB      276             0.0000000000
     34296       276  PMPE      H6Y            37.6263153059       -9.8063966978      -12.2205433899  MEMB      276             0.0000000000
     34297       276  PMPE      C37            38.2473754600       -9.3521356762      -10.2169977860  MEMB      276             0.0000000000
     34298       276  PMPE      H7X            38.4098317065      -10.4464374313      -10.1148577526  MEMB      276             0.0000000000
     34299       276  PMPE      H7Y            37.2071092709       -9.0194616316      -10.0132941073  MEMB      276             0.0000000000
     34300       276  PMPE      C38            39.2989176772       -8.7057581888       -9.3334534576  MEMB      276             0.0000000000
     34301       276  PMPE      H8X            39.1549523307       -7.6167540336       -9.1671251524  MEMB      276             0.0000000000
     34302       276  PMPE      H8Y            40.2587990603       -8.8827193113       -9.8641444714  MEMB      276             0.0000000000
     34303       276  PMPE      C39            39.5334232626       -9.3602726984       -7.9168773484  MEMB      276             0.0000000000
     34304       276  PMPE      H9X            40.5838100349       -9.2339089396       -7.5776997995  MEMB      276             0.0000000000
     34305       276  PMPE      H9Y            39.3229335184      -10.4499190298       -7.9686982214  MEMB      276             0.0000000000
     34306       276  PMPE      C310           38.6375970502       -8.6620637931       -6.8918587996  MEMB      276             0.0000000000
     34307       276  PMPE      H10X           37.5903680515       -8.5355896607       -7.2406237597  MEMB      276             0.0000000000
     34308       276  PMPE      H10Y           38.9785339808       -7.6081341999       -6.8063285824  MEMB      276             0.0000000000
     34309       276  PMPE      C311           38.4773282738       -9.4874089907       -5.5549629610  MEMB      276             0.0000000000
     34310       276  PMPE      H11X           39.4854708050       -9.7182090927       -5.1491293214  MEMB      276             0.0000000000
     34311       276  PMPE      H11Y           38.0118622344      -10.4414538288       -5.8827751212  MEMB      276             0.0000000000
     34312       276  PMPE      C312           37.6448977164       -8.8308469463       -4.4248454794  MEMB      276             0.0000000000
     34313       276  PMPE      H12X           37.2326550868       -9.4624354793       -3.6090802254  MEMB      276             0.0000000000
     34314       276  PMPE      H12Y           36.7445041242       -8.4587282188       -4.9588296920  MEMB      276             0.0000000000
     34315       276  PMPE      C313           38.3560816116       -7.5688047533       -3.8865743077  MEMB      276             0.0000000000
     34316       276  PMPE      H13X           37.7432114628       -6.9506902897       -3.1961796629  MEMB      276             0.0000000000
     34317       276  PMPE      H13Y           38.5962500854       -6.9489635811       -4.7767638294  MEMB      276             0.0000000000
     34318       276  PMPE      C314           39.6603493984       -7.8766589006       -2.9537075095  MEMB      276             0.0000000000
     34319       276  PMPE      H14X           40.0227601640       -6.8863096971       -2.6041534536  MEMB      276             0.0000000000
     34320       276  PMPE      H14Y           40.4740593603       -8.2921529928       -3.5858169769  MEMB      276             0.0000000000
     34321       276  PMPE      C315           39.3042143859       -8.7791643506       -1.8146416681  MEMB      276             0.0000000000
     34322       276  PMPE      H15X           39.0525408203       -9.7645316293       -2.2618923737  MEMB      276             0.0000000000
     34323       276  PMPE      H15Y           38.4741761478       -8.3212786706       -1.2352478130  MEMB      276             0.0000000000
     34324       276  PMPE      C316           40.4441476012       -9.0130785635       -0.8142101686  MEMB      276             0.0000000000
     34325       276  PMPE      H16X           40.6717957817       -8.1441474082       -0.1604096344  MEMB      276             0.0000000000
     34326       276  PMPE      H16Y           41.3516726614       -9.4167499240       -1.3119746364  MEMB      276             0.0000000000
     34327       276  PMPE      H16Z           40.1462972569       -9.7793984941       -0.0669746999  MEMB      276             0.0000000000
     34328       277  PMPE      N             -25.5869385085       27.5661271166      -20.5044302126  MEMB      277             0.0000000000
     34329       277  PMPE      HN1           -24.8527840112       28.1433447983      -20.9620728060  MEMB      277             0.0000000000
     34330       277  PMPE      HN2           -25.3460533764       26.9411405003      -19.7088385327  MEMB      277             0.0000000000
     34331       277  PMPE      HN3           -26.1775164160       26.9221987774      -21.0684996074  MEMB      277             0.0000000000
     34332       277  PMPE      C12           -26.5218709446       28.6431560903      -20.1755000829  MEMB      277             0.0000000000
     34333       277  PMPE      H12A          -26.6200091436       29.1805501321      -21.1429181742  MEMB      277             0.0000000000
     34334       277  PMPE      H12B          -25.9862949045       29.2975470166      -19.4549088403  MEMB      277             0.0000000000
     34335       277  PMPE      C11           -27.8549291111       28.0580662632      -19.7050476631  MEMB      277             0.0000000000
     34336       277  PMPE      H11A          -28.5285899156       27.6279046702      -20.4767101622  MEMB      277             0.0000000000
     34337       277  PMPE      H11B          -28.4026837221       28.9034710467      -19.2364575374  MEMB      277             0.0000000000
     34338       277  PMPE      P             -28.5208782995       26.0281345260      -18.3196457175  MEMB      277             0.0000000000
     34339       277  PMPE      O13           -27.9417679920       25.4119225415      -17.1080327287  MEMB      277             0.0000000000
     34340       277  PMPE      O14           -28.8242230947       25.1297821215      -19.5022807925  MEMB      277             0.0000000000
     34341       277  PMPE      O11           -29.8081168856       26.9240732321      -18.0480104726  MEMB      277             0.0000000000
     34342       277  PMPE      O12           -27.5757495669       27.2338605072      -18.6370523314  MEMB      277             0.0000000000
     34343       277  PMPE      C1            -30.4641031576       26.7813344753      -16.8094400646  MEMB      277             0.0000000000
     34344       277  PMPE      HA            -30.2081491115       25.8142386865      -16.3261862274  MEMB      277             0.0000000000
     34345       277  PMPE      HB            -31.5640257283       26.7312184642      -16.9576948264  MEMB      277             0.0000000000
     34346       277  PMPE      C2            -30.0805250087       27.9580400164      -15.8554786656  MEMB      277             0.0000000000
     34347       277  PMPE      HS            -30.3000766123       28.9168480961      -16.3720106388  MEMB      277             0.0000000000
     34348       277  PMPE      O21           -28.6453717539       27.7723771017      -15.6723038003  MEMB      277             0.0000000000
     34349       277  PMPE      C21           -27.9488521306       28.7072105032      -15.0655603972  MEMB      277             0.0000000000
     34350       277  PMPE      O22           -28.3983231322       29.7338209608      -14.6112335981  MEMB      277             0.0000000000
     34351       277  PMPE      C22           -26.5094532510       28.2593271588      -14.9118280218  MEMB      277             0.0000000000
     34352       277  PMPE      H2R           -25.7818886962       28.7592913449      -15.5863698954  MEMB      277             0.0000000000
     34353       277  PMPE      H2S           -26.4310716758       27.1987090878      -15.2331793713  MEMB      277             0.0000000000
     34354       277  PMPE      C3            -30.7982020781       27.8589560659      -14.4864945425  MEMB      277             0.0000000000
     34355       277  PMPE      HX            -31.9003180623       27.7265448612      -14.5326318436  MEMB      277             0.0000000000
     34356       277  PMPE      HY            -30.7379664686       28.8039873156      -13.9054537079  MEMB      277             0.0000000000
     34357       277  PMPE      O31           -30.2257102389       26.7623927746      -13.7409926076  MEMB      277             0.0000000000
     34358       277  PMPE      C31           -30.4817093685       26.6996427494      -12.4472629398  MEMB      277             0.0000000000
     34359       277  PMPE      O32           -31.1382051896       27.4998771719      -11.7818733630  MEMB      277             0.0000000000
     34360       277  PMPE      C32           -29.9897349799       25.3868903173      -11.9236000662  MEMB      277             0.0000000000
     34361       277  PMPE      H2X           -28.9065069670       25.4227380253      -12.1678396154  MEMB      277             0.0000000000
     34362       277  PMPE      H2Y           -30.2947727170       24.4939567852      -12.5100662069  MEMB      277             0.0000000000
     34363       277  PMPE      C23           -26.1012363621       28.5096691117      -13.3996913549  MEMB      277             0.0000000000
     34364       277  PMPE      H3R           -26.6549746287       29.3642759306      -12.9554594497  MEMB      277             0.0000000000
     34365       277  PMPE      H3S           -25.0102975223       28.7098183456      -13.4638299338  MEMB      277             0.0000000000
     34366       277  PMPE      C24           -26.3855482481       27.2451397799      -12.5233516355  MEMB      277             0.0000000000
     34367       277  PMPE      H4R           -27.4922437229       27.1602301847      -12.4750151183  MEMB      277             0.0000000000
     34368       277  PMPE      H4S           -26.0768461142       27.5725496448      -11.5075629584  MEMB      277             0.0000000000
     34369       277  PMPE      C25           -25.5743447616       26.0244636712      -12.8715391770  MEMB      277             0.0000000000
     34370       277  PMPE      H5R           -24.4888859888       26.2587740328      -12.8369150401  MEMB      277             0.0000000000
     34371       277  PMPE      H5S           -25.6248101263       25.6558121914      -13.9183775117  MEMB      277             0.0000000000
     34372       277  PMPE      C26           -25.8408637521       24.8411785657      -12.0445202971  MEMB      277             0.0000000000
     34373       277  PMPE      H6R           -25.1767822686       24.0206323546      -12.3909608051  MEMB      277             0.0000000000
     34374       277  PMPE      H6S           -26.8808244131       24.4594312453      -12.1286135914  MEMB      277             0.0000000000
     34375       277  PMPE      C27           -25.4585430846       25.0527001436      -10.4996614034  MEMB      277             0.0000000000
     34376       277  PMPE      H7R           -25.8807155317       26.0503715535      -10.2532005088  MEMB      277             0.0000000000
     34377       277  PMPE      H7S           -24.3590772890       24.8933856620      -10.5103820507  MEMB      277             0.0000000000
     34378       277  PMPE      C28           -25.9891526010       24.1672713514       -9.3719351348  MEMB      277             0.0000000000
     34379       277  PMPE      H8R           -27.0696609077       24.3433442340       -9.1826699180  MEMB      277             0.0000000000
     34380       277  PMPE      H8S           -25.3777883980       24.4090775026       -8.4763429561  MEMB      277             0.0000000000
     34381       277  PMPE      C29           -25.7803293433       22.6931775914       -9.6843580987  MEMB      277             0.0000000000
     34382       277  PMPE      H9R           -24.8397111947       22.3970309563      -10.1960763926  MEMB      277             0.0000000000
     34383       277  PMPE      C217          -26.9684878627       21.9830680155      -10.2134455041  MEMB      277             0.0000000000
     34384       277  PMPE      H17R          -26.6751288116       21.2631252713      -10.9674432721  MEMB      277             0.0000000000
     34385       277  PMPE      H17S          -27.8031076385       22.6712027134      -10.1608185779  MEMB      277             0.0000000000
     34386       277  PMPE      C210          -26.4620620489       21.5562833781       -8.8344198766  MEMB      277             0.0000000000
     34387       277  PMPE      H10R          -25.8202897654       20.6564345642       -8.9472104033  MEMB      277             0.0000000000
     34388       277  PMPE      C211          -27.1321798263       21.9344214235       -7.5280429334  MEMB      277             0.0000000000
     34389       277  PMPE      H11R          -27.6613981514       21.0462538910       -7.1213401192  MEMB      277             0.0000000000
     34390       277  PMPE      H11S          -27.9986668222       22.6151221957       -7.6700581695  MEMB      277             0.0000000000
     34391       277  PMPE      C212          -26.2377675836       22.5011522510       -6.4443866927  MEMB      277             0.0000000000
     34392       277  PMPE      H12R          -26.2569693369       23.5905330962       -6.6616448478  MEMB      277             0.0000000000
     34393       277  PMPE      H12S          -25.2164011747       22.0895046393       -6.5916222236  MEMB      277             0.0000000000
     34394       277  PMPE      C213          -26.7079851016       22.3720618968       -4.9948454983  MEMB      277             0.0000000000
     34395       277  PMPE      H13R          -26.0779431380       22.9431625675       -4.2798552208  MEMB      277             0.0000000000
     34396       277  PMPE      H13S          -26.6937326533       21.2921472356       -4.7342653326  MEMB      277             0.0000000000
     34397       277  PMPE      C214          -28.0964591362       22.9733445924       -4.7004171371  MEMB      277             0.0000000000
     34398       277  PMPE      H14R          -28.9255437193       22.5031968252       -5.2712958075  MEMB      277             0.0000000000
     34399       277  PMPE      H14S          -28.1500511155       24.0445627433       -4.9901424466  MEMB      277             0.0000000000
     34400       277  PMPE      C215          -28.5023241448       22.7918889864       -3.1656234094  MEMB      277             0.0000000000
     34401       277  PMPE      H15R          -28.4477928096       21.7961404289       -2.6758971411  MEMB      277             0.0000000000
     34402       277  PMPE      H15S          -29.5995792656       22.9296626665       -3.0589902227  MEMB      277             0.0000000000
     34403       277  PMPE      C216          -27.9186857022       23.8676556330       -2.2839758680  MEMB      277             0.0000000000
     34404       277  PMPE      H16R          -28.0439875636       23.6163508166       -1.2090488828  MEMB      277             0.0000000000
     34405       277  PMPE      H16S          -26.8702066901       24.1071292562       -2.5626586796  MEMB      277             0.0000000000
     34406       277  PMPE      H16T          -28.3817935803       24.8638196655       -2.4498333745  MEMB      277             0.0000000000
     34407       277  PMPE      C33           -30.1286388061       25.3256043578      -10.4260307671  MEMB      277             0.0000000000
     34408       277  PMPE      H3X           -29.7424789585       26.2701927003       -9.9867645913  MEMB      277             0.0000000000
     34409       277  PMPE      H3Y           -29.5431324974       24.4158096583      -10.1734893585  MEMB      277             0.0000000000
     34410       277  PMPE      C34           -31.5376895914       24.8928661218       -9.8955647401  MEMB      277             0.0000000000
     34411       277  PMPE      H4X           -31.7813334037       23.8152811851      -10.0129075502  MEMB      277             0.0000000000
     34412       277  PMPE      H4Y           -32.2781308006       25.4026805239      -10.5483714397  MEMB      277             0.0000000000
     34413       277  PMPE      C35           -31.9146207782       25.3253855103       -8.4957469206  MEMB      277             0.0000000000
     34414       277  PMPE      H5X           -32.7824156281       24.7607542599       -8.0927018748  MEMB      277             0.0000000000
     34415       277  PMPE      H5Y           -32.0404255435       26.4291376288       -8.4807537559  MEMB      277             0.0000000000
     34416       277  PMPE      C36           -30.7849878784       25.1277230684       -7.4718736879  MEMB      277             0.0000000000
     34417       277  PMPE      H6X           -29.9200418558       25.8148039598       -7.5906570963  MEMB      277             0.0000000000
     34418       277  PMPE      H6Y           -30.3237933128       24.1339633884       -7.6564338674  MEMB      277             0.0000000000
     34419       277  PMPE      C37           -31.2500659601       24.9774521295       -6.0351865770  MEMB      277             0.0000000000
     34420       277  PMPE      H7X           -30.4149215604       24.7859432788       -5.3279529917  MEMB      277             0.0000000000
     34421       277  PMPE      H7Y           -31.9400486355       24.1179586247       -5.8954870432  MEMB      277             0.0000000000
     34422       277  PMPE      C38           -32.1065924057       26.1438798863       -5.4071400163  MEMB      277             0.0000000000
     34423       277  PMPE      H8X           -32.8888442321       25.7943380985       -4.6998742873  MEMB      277             0.0000000000
     34424       277  PMPE      H8Y           -32.6447557942       26.6389119531       -6.2435873095  MEMB      277             0.0000000000
     34425       277  PMPE      C39           -31.1708075805       27.1834343408       -4.6674335919  MEMB      277             0.0000000000
     34426       277  PMPE      H9X           -31.6252752770       28.1735269410       -4.4494952017  MEMB      277             0.0000000000
     34427       277  PMPE      H9Y           -30.3202649060       27.4593816263       -5.3267905238  MEMB      277             0.0000000000
     34428       277  PMPE      C310          -30.7106232489       26.6684335892       -3.2680980834  MEMB      277             0.0000000000
     34429       277  PMPE      H10X          -29.9603494443       25.9079764559       -3.5732455336  MEMB      277             0.0000000000
     34430       277  PMPE      H10Y          -31.5067068086       26.1255450489       -2.7150659960  MEMB      277             0.0000000000
     34431       277  PMPE      C311          -30.1601896271       27.8244917521       -2.3801160060  MEMB      277             0.0000000000
     34432       277  PMPE      H11X          -29.8426099922       27.5422658821       -1.3535622815  MEMB      277             0.0000000000
     34433       277  PMPE      H11Y          -31.0421429495       28.4770064184       -2.2048890999  MEMB      277             0.0000000000
     34434       277  PMPE      C312          -28.8581396758       28.4214853565       -2.9365647509  MEMB      277             0.0000000000
     34435       277  PMPE      H12X          -28.8887485107       28.7299311822       -4.0034498264  MEMB      277             0.0000000000
     34436       277  PMPE      H12Y          -28.0497225187       27.6657081861       -2.8386680667  MEMB      277             0.0000000000
     34437       277  PMPE      C313          -28.4834113361       29.6241061949       -2.2221198003  MEMB      277             0.0000000000
     34438       277  PMPE      H13X          -28.4904193963       29.4789916784       -1.1206597892  MEMB      277             0.0000000000
     34439       277  PMPE      H13Y          -29.1760789764       30.4634004501       -2.4459878356  MEMB      277             0.0000000000
     34440       277  PMPE      C314          -27.0741916258       30.1030473135       -2.5854258960  MEMB      277             0.0000000000
     34441       277  PMPE      H14X          -27.1782644818       30.6444269888       -3.5499966581  MEMB      277             0.0000000000
     34442       277  PMPE      H14Y          -26.3618563693       29.2525808995       -2.6454796741  MEMB      277             0.0000000000
     34443       277  PMPE      C315          -26.4740467187       31.2296668687       -1.6052216864  MEMB      277             0.0000000000
     34444       277  PMPE      H15X          -27.1890959562       32.0631548082       -1.7735146674  MEMB      277             0.0000000000
     34445       277  PMPE      H15Y          -25.5494078420       31.4158744845       -2.1923251053  MEMB      277             0.0000000000
     34446       277  PMPE      C316          -26.2817493108       30.6365856913       -0.2610107282  MEMB      277             0.0000000000
     34447       277  PMPE      H16X          -26.1385190186       29.5356549298       -0.2190838450  MEMB      277             0.0000000000
     34448       277  PMPE      H16Y          -27.2147410456       30.8475872755        0.3040784700  MEMB      277             0.0000000000
     34449       277  PMPE      H16Z          -25.4836809281       31.1011970949        0.3566815623  MEMB      277             0.0000000000
     34450       278  PYPG      C13           -34.3360646129      -11.9121767170      -19.8913874528  MEMB      278             0.0000000000
     34451       278  PYPG      H13A          -33.9945273684      -11.7917840190      -18.8410641516  MEMB      278             0.0000000000
     34452       278  PYPG      H13B          -33.4914462868      -12.2201048949      -20.5441671769  MEMB      278             0.0000000000
     34453       278  PYPG      OC3           -35.0455075756      -10.7317587032      -20.3400266455  MEMB      278             0.0000000000
     34454       278  PYPG      HO3           -35.1479129293      -10.8148509697      -21.2909256920  MEMB      278             0.0000000000
     34455       278  PYPG      C12           -35.3223312825      -13.1207411275      -19.7763548927  MEMB      278             0.0000000000
     34456       278  PYPG      H12A          -34.7161938712      -14.0190717566      -19.5148619493  MEMB      278             0.0000000000
     34457       278  PYPG      OC2           -35.9508364902      -13.3644778852      -21.0355667441  MEMB      278             0.0000000000
     34458       278  PYPG      HO2           -36.6324195883      -14.0367083282      -20.8158679689  MEMB      278             0.0000000000
     34459       278  PYPG      C11           -36.3515320335      -12.8946579997      -18.6840473089  MEMB      278             0.0000000000
     34460       278  PYPG      H11A          -35.9145354841      -12.8793196994      -17.6627149294  MEMB      278             0.0000000000
     34461       278  PYPG      H11B          -36.9607798697      -13.8177717288      -18.5791715970  MEMB      278             0.0000000000
     34462       278  PYPG      P             -38.4378373021      -11.6111750762      -18.0746200532  MEMB      278             0.0000000000
     34463       278  PYPG      O13           -39.1029954529      -12.9819163643      -17.9746385308  MEMB      278             0.0000000000
     34464       278  PYPG      O14           -39.1758646466      -10.5165926073      -18.5728205553  MEMB      278             0.0000000000
     34465       278  PYPG      O11           -37.8741240763      -11.2030986549      -16.6395920122  MEMB      278             0.0000000000
     34466       278  PYPG      O12           -37.2005855254      -11.7982458617      -19.0109458447  MEMB      278             0.0000000000
     34467       278  PYPG      C1            -37.3312684663       -9.8947363041      -16.5170714182  MEMB      278             0.0000000000
     34468       278  PYPG      HA            -37.9798617990       -9.0926943249      -16.9298381775  MEMB      278             0.0000000000
     34469       278  PYPG      HB            -36.3570991446       -9.8892136598      -17.0511920134  MEMB      278             0.0000000000
     34470       278  PYPG      C2            -37.1752011253       -9.6722759775      -14.9892157235  MEMB      278             0.0000000000
     34471       278  PYPG      HS            -36.5811232054       -8.7761190878      -14.7094032450  MEMB      278             0.0000000000
     34472       278  PYPG      O21           -36.4113081503      -10.8044484408      -14.3965491400  MEMB      278             0.0000000000
     34473       278  PYPG      C21           -36.3386034796      -10.8494638945      -13.1095432177  MEMB      278             0.0000000000
     34474       278  PYPG      O22           -36.6119348482       -9.9567678505      -12.3082538057  MEMB      278             0.0000000000
     34475       278  PYPG      C22           -35.5938668361      -12.2058043168      -12.7865103471  MEMB      278             0.0000000000
     34476       278  PYPG      H2R           -34.5468435405      -12.0447151920      -13.1213441212  MEMB      278             0.0000000000
     34477       278  PYPG      H2S           -36.1649111210      -12.9906700006      -13.3270799130  MEMB      278             0.0000000000
     34478       278  PYPG      C3            -38.6580203424       -9.6532001523      -14.4136928678  MEMB      278             0.0000000000
     34479       278  PYPG      HX            -39.1648603703       -8.7406090981      -14.7939718110  MEMB      278             0.0000000000
     34480       278  PYPG      HY            -38.6696469360       -9.3022570519      -13.3596414206  MEMB      278             0.0000000000
     34481       278  PYPG      O31           -39.3419470502      -10.9592374997      -14.5773905232  MEMB      278             0.0000000000
     34482       278  PYPG      C31           -40.7084104432      -10.8772572141      -14.3002572575  MEMB      278             0.0000000000
     34483       278  PYPG      O32           -41.3734273715       -9.9159199118      -14.0730040105  MEMB      278             0.0000000000
     34484       278  PYPG      C32           -41.2094755679      -12.3494042593      -14.2646550137  MEMB      278             0.0000000000
     34485       278  PYPG      H2X           -42.3118683791      -12.4582840459      -14.3494882741  MEMB      278             0.0000000000
     34486       278  PYPG      H2Y           -40.9056568169      -12.7705430603      -15.2468244658  MEMB      278             0.0000000000
     34487       278  PYPG      C23           -35.6293299776      -12.4527141410      -11.2610140874  MEMB      278             0.0000000000
     34488       278  PYPG      H3R           -36.6313237004      -12.3338620484      -10.7960371165  MEMB      278             0.0000000000
     34489       278  PYPG      H3S           -35.0396414831      -11.6476236026      -10.7727337294  MEMB      278             0.0000000000
     34490       278  PYPG      C24           -34.9296452122      -13.8435751497      -10.8602254601  MEMB      278             0.0000000000
     34491       278  PYPG      H4R           -34.3283455748      -13.7425657601       -9.9314861511  MEMB      278             0.0000000000
     34492       278  PYPG      H4S           -34.1994592075      -14.0387967041      -11.6744968786  MEMB      278             0.0000000000
     34493       278  PYPG      C25           -35.9484679650      -14.9424837356      -10.8454877265  MEMB      278             0.0000000000
     34494       278  PYPG      H5R           -35.4312764389      -15.9013830243      -11.0630795401  MEMB      278             0.0000000000
     34495       278  PYPG      H5S           -36.6367632317      -14.8092414085      -11.7073562792  MEMB      278             0.0000000000
     34496       278  PYPG      C26           -36.8256674306      -14.8324894830       -9.5913922163  MEMB      278             0.0000000000
     34497       278  PYPG      H6R           -37.7517363465      -15.4279939115       -9.7400257502  MEMB      278             0.0000000000
     34498       278  PYPG      H6S           -37.0560963737      -13.7924737460       -9.2758123399  MEMB      278             0.0000000000
     34499       278  PYPG      C27           -36.0674578866      -15.5309535395       -8.5025212063  MEMB      278             0.0000000000
     34500       278  PYPG      H7R           -35.2389323371      -14.8706117642       -8.1681334879  MEMB      278             0.0000000000
     34501       278  PYPG      H7S           -35.6147021987      -16.5129544966       -8.7574861193  MEMB      278             0.0000000000
     34502       278  PYPG      C28           -36.9999266962      -15.8247461620       -7.2373340217  MEMB      278             0.0000000000
     34503       278  PYPG      H8R           -36.4361804799      -16.4818083207       -6.5410716537  MEMB      278             0.0000000000
     34504       278  PYPG      H8S           -37.8246215219      -16.4973179587       -7.5564684093  MEMB      278             0.0000000000
     34505       278  PYPG      C29           -37.5497908644      -14.5915341515       -6.5239923585  MEMB      278             0.0000000000
     34506       278  PYPG      H9R           -36.7644167305      -13.8389076610       -6.3604665717  MEMB      278             0.0000000000
     34507       278  PYPG      C210          -38.7750058971      -14.3487623972       -6.0245723537  MEMB      278             0.0000000000
     34508       278  PYPG      H10R          -39.0221952641      -13.3759860651       -5.5744576672  MEMB      278             0.0000000000
     34509       278  PYPG      C211          -40.0433026057      -15.1833431723       -6.0177298657  MEMB      278             0.0000000000
     34510       278  PYPG      H11R          -39.7550648518      -16.1546055305       -6.4736789570  MEMB      278             0.0000000000
     34511       278  PYPG      H11S          -40.8523547008      -14.7766215535       -6.6614175977  MEMB      278             0.0000000000
     34512       278  PYPG      C212          -40.7163614086      -15.4026867382       -4.6510999655  MEMB      278             0.0000000000
     34513       278  PYPG      H12R          -41.5713724191      -16.0857615658       -4.8426362208  MEMB      278             0.0000000000
     34514       278  PYPG      H12S          -40.9159063749      -14.3934877887       -4.2315528320  MEMB      278             0.0000000000
     34515       278  PYPG      C213          -39.8497682757      -15.9875457309       -3.5150151887  MEMB      278             0.0000000000
     34516       278  PYPG      H13R          -38.8555859588      -15.4941978492       -3.4647096492  MEMB      278             0.0000000000
     34517       278  PYPG      H13S          -39.6069290468      -17.0415478354       -3.7688457461  MEMB      278             0.0000000000
     34518       278  PYPG      C214          -40.5106508196      -15.9374294966       -2.1107618530  MEMB      278             0.0000000000
     34519       278  PYPG      H14R          -39.6549650749      -16.1066400359       -1.4226554880  MEMB      278             0.0000000000
     34520       278  PYPG      H14S          -40.8675729920      -14.8922109735       -1.9905700496  MEMB      278             0.0000000000
     34521       278  PYPG      C215          -41.7684069285      -16.8430756669       -1.9518658265  MEMB      278             0.0000000000
     34522       278  PYPG      H15R          -41.6631717401      -17.8175406772       -2.4749949457  MEMB      278             0.0000000000
     34523       278  PYPG      H15S          -42.5816605650      -16.2939559247       -2.4728319252  MEMB      278             0.0000000000
     34524       278  PYPG      C216          -42.2329898808      -17.0003495329       -0.5358172839  MEMB      278             0.0000000000
     34525       278  PYPG      H16R          -41.5137802036      -17.4442274580        0.1853154656  MEMB      278             0.0000000000
     34526       278  PYPG      H16S          -43.0783466930      -17.7212281391       -0.5305851672  MEMB      278             0.0000000000
     34527       278  PYPG      H16T          -42.7436232286      -16.0762597770       -0.1899366069  MEMB      278             0.0000000000
     34528       278  PYPG      C33           -40.5465566320      -13.0386169587      -13.0967378471  MEMB      278             0.0000000000
     34529       278  PYPG      H3X           -39.4850061508      -12.7250748439      -13.0012244102  MEMB      278             0.0000000000
     34530       278  PYPG      H3Y           -40.5144873843      -14.1393961512      -13.2436315170  MEMB      278             0.0000000000
     34531       278  PYPG      C34           -41.2760892143      -12.9398909380      -11.8005262421  MEMB      278             0.0000000000
     34532       278  PYPG      H4X           -42.1903487265      -13.5693294373      -11.8480360941  MEMB      278             0.0000000000
     34533       278  PYPG      H4Y           -41.6865556783      -11.9207489084      -11.6356388674  MEMB      278             0.0000000000
     34534       278  PYPG      C35           -40.4040948143      -13.2796919043      -10.5996662930  MEMB      278             0.0000000000
     34535       278  PYPG      H5X           -39.9556070430      -14.2872151899      -10.7341161690  MEMB      278             0.0000000000
     34536       278  PYPG      H5Y           -41.0007841589      -13.2154861035       -9.6647008292  MEMB      278             0.0000000000
     34537       278  PYPG      C36           -39.3378697774      -12.1751261783      -10.3361248732  MEMB      278             0.0000000000
     34538       278  PYPG      H6X           -38.6325574340      -11.9874405984      -11.1737579461  MEMB      278             0.0000000000
     34539       278  PYPG      H6Y           -38.7053326217      -12.5198789609       -9.4903336635  MEMB      278             0.0000000000
     34540       278  PYPG      C37           -39.8850327074      -10.8022637956       -9.8746575543  MEMB      278             0.0000000000
     34541       278  PYPG      H7X           -40.5642165572      -10.3411449548      -10.6232567025  MEMB      278             0.0000000000
     34542       278  PYPG      H7Y           -40.4614075454      -11.1094610563       -8.9759129988  MEMB      278             0.0000000000
     34543       278  PYPG      C38           -38.8110055304       -9.7980683486       -9.4579630736  MEMB      278             0.0000000000
     34544       278  PYPG      H8X           -39.2952532437       -8.8480195842       -9.1461418212  MEMB      278             0.0000000000
     34545       278  PYPG      H8Y           -38.3148550386       -9.4776417291      -10.3989641242  MEMB      278             0.0000000000
     34546       278  PYPG      C39           -37.6952447774      -10.2128451574       -8.5160654322  MEMB      278             0.0000000000
     34547       278  PYPG      H9X           -36.9298265886       -9.4096759008       -8.4579686304  MEMB      278             0.0000000000
     34548       278  PYPG      H9Y           -37.1555460087      -11.0978555447       -8.9158193464  MEMB      278             0.0000000000
     34549       278  PYPG      C310          -38.1386815191      -10.4645942038       -7.0600923681  MEMB      278             0.0000000000
     34550       278  PYPG      H10X          -37.6113153568      -11.3618885208       -6.6714166837  MEMB      278             0.0000000000
     34551       278  PYPG      H10Y          -39.1486468158      -10.8809133484       -7.2625016010  MEMB      278             0.0000000000
     34552       278  PYPG      C311          -38.0198009605       -9.2956438068       -6.1677690965  MEMB      278             0.0000000000
     34553       278  PYPG      H11X          -38.5963686188       -8.4594146044       -6.6178926672  MEMB      278             0.0000000000
     34554       278  PYPG      H11Y          -36.9728030247       -8.9240253737       -6.1638006687  MEMB      278             0.0000000000
     34555       278  PYPG      C312          -38.4097641984       -9.5420034730       -4.6914925871  MEMB      278             0.0000000000
     34556       278  PYPG      H12X          -38.7283572099       -8.5695370926       -4.2589089372  MEMB      278             0.0000000000
     34557       278  PYPG      H12Y          -39.3112303506      -10.1873489863       -4.6193200518  MEMB      278             0.0000000000
     34558       278  PYPG      C313          -37.3364310492      -10.3491529009       -3.8620737642  MEMB      278             0.0000000000
     34559       278  PYPG      H13X          -36.8514581759      -11.1069422513       -4.5139003462  MEMB      278             0.0000000000
     34560       278  PYPG      H13Y          -36.6475588241       -9.4970221749       -3.6786358068  MEMB      278             0.0000000000
     34561       278  PYPG      C314          -37.7430871002      -10.8696952389       -2.5121469798  MEMB      278             0.0000000000
     34562       278  PYPG      H14X          -36.7936941410      -11.2355197835       -2.0658889212  MEMB      278             0.0000000000
     34563       278  PYPG      H14Y          -38.1950093508      -10.0972831724       -1.8537637766  MEMB      278             0.0000000000
     34564       278  PYPG      C315          -38.6414513177      -12.0847407380       -2.5351005015  MEMB      278             0.0000000000
     34565       278  PYPG      H15X          -39.5157612636      -11.8584857806       -3.1821797154  MEMB      278             0.0000000000
     34566       278  PYPG      H15Y          -38.0225211401      -12.9079551313       -2.9517106922  MEMB      278             0.0000000000
     34567       278  PYPG      C316          -39.0722434009      -12.5352377316       -1.1455444865  MEMB      278             0.0000000000
     34568       278  PYPG      H16X          -38.4134299148      -13.2326689307       -0.5852975691  MEMB      278             0.0000000000
     34569       278  PYPG      H16Y          -39.9934366974      -13.1412292072       -1.2815529500  MEMB      278             0.0000000000
     34570       278  PYPG      H16Z          -39.3131050007      -11.6955099733       -0.4591302113  MEMB      278             0.0000000000
     34571       279  OYPE      N             -15.6443985017       33.9285154512      -21.2104502494  MEMB      279             0.0000000000
     34572       279  OYPE      HN1           -15.1885694044       34.2960520701      -22.0699482177  MEMB      279             0.0000000000
     34573       279  OYPE      HN2           -15.2487524329       32.9958930987      -20.9753337642  MEMB      279             0.0000000000
     34574       279  OYPE      HN3           -16.6812566934       33.9908577293      -21.2618165008  MEMB      279             0.0000000000
     34575       279  OYPE      C12           -15.1813550149       34.7361307933      -20.0011768071  MEMB      279             0.0000000000
     34576       279  OYPE      H12A          -15.1246420235       35.8175396481      -20.2494904046  MEMB      279             0.0000000000
     34577       279  OYPE      H12B          -14.1413745516       34.4049553531      -19.7936095248  MEMB      279             0.0000000000
     34578       279  OYPE      C11           -16.0862163800       34.6805278273      -18.7070560687  MEMB      279             0.0000000000
     34579       279  OYPE      H11A          -15.4623702874       35.0532943482      -17.8667095455  MEMB      279             0.0000000000
     34580       279  OYPE      H11B          -16.3916185716       33.6565696321      -18.4028190900  MEMB      279             0.0000000000
     34581       279  OYPE      P             -17.2753020858       36.9877369372      -18.4728737090  MEMB      279             0.0000000000
     34582       279  OYPE      O13           -18.3715164773       37.7060159749      -19.2718204145  MEMB      279             0.0000000000
     34583       279  OYPE      O14           -15.9033846943       37.5091380531      -18.4400731372  MEMB      279             0.0000000000
     34584       279  OYPE      O11           -17.8362642040       36.7879456420      -16.9713369887  MEMB      279             0.0000000000
     34585       279  OYPE      O12           -17.2224714479       35.4579052877      -18.9252126238  MEMB      279             0.0000000000
     34586       279  OYPE      C1            -17.5603286816       37.8486912022      -16.0179564459  MEMB      279             0.0000000000
     34587       279  OYPE      HA            -18.2613264279       37.6812218936      -15.1724524937  MEMB      279             0.0000000000
     34588       279  OYPE      HB            -17.6577339484       38.8555511584      -16.4773758043  MEMB      279             0.0000000000
     34589       279  OYPE      C2            -16.2334932645       37.5995281891      -15.3507163306  MEMB      279             0.0000000000
     34590       279  OYPE      HS            -15.4675875435       37.4511859019      -16.1417307438  MEMB      279             0.0000000000
     34591       279  OYPE      O21           -16.2698454703       36.3923867845      -14.4606090041  MEMB      279             0.0000000000
     34592       279  OYPE      C21           -15.0972155145       35.8682331036      -14.0325081272  MEMB      279             0.0000000000
     34593       279  OYPE      O22           -13.9768875984       36.3039804223      -14.2476609537  MEMB      279             0.0000000000
     34594       279  OYPE      C22           -15.3753070123       34.4188181595      -13.4070557347  MEMB      279             0.0000000000
     34595       279  OYPE      H2R           -14.5377828134       33.7287845654      -13.6452315225  MEMB      279             0.0000000000
     34596       279  OYPE      H2S           -16.3727985592       34.0859736192      -13.7655892901  MEMB      279             0.0000000000
     34597       279  OYPE      C3            -15.8001268177       38.7350111472      -14.4265738379  MEMB      279             0.0000000000
     34598       279  OYPE      HX            -15.6737355580       39.5586799598      -15.1613638157  MEMB      279             0.0000000000
     34599       279  OYPE      HY            -14.8077758972       38.4999042302      -13.9857957603  MEMB      279             0.0000000000
     34600       279  OYPE      O31           -16.8525504719       39.0202764765      -13.4508299956  MEMB      279             0.0000000000
     34601       279  OYPE      C31           -16.4475233252       39.7539489255      -12.3843034207  MEMB      279             0.0000000000
     34602       279  OYPE      O32           -15.3556287551       40.2778386092      -12.2859266354  MEMB      279             0.0000000000
     34603       279  OYPE      C32           -17.5793726347       39.6541691658      -11.3150579035  MEMB      279             0.0000000000
     34604       279  OYPE      H2X           -18.5723863048       39.7430641201      -11.8053056847  MEMB      279             0.0000000000
     34605       279  OYPE      H2Y           -17.5175921839       38.6931203635      -10.7610822044  MEMB      279             0.0000000000
     34606       279  OYPE      C23           -15.4742916688       34.5845179290      -11.8517452537  MEMB      279             0.0000000000
     34607       279  OYPE      H3R           -16.4151722504       35.0668591000      -11.5105536875  MEMB      279             0.0000000000
     34608       279  OYPE      H3S           -14.6701896569       35.1800305369      -11.3689350570  MEMB      279             0.0000000000
     34609       279  OYPE      C24           -15.2511388698       33.2168114295      -11.2178394888  MEMB      279             0.0000000000
     34610       279  OYPE      H4R           -14.2378158434       32.8684652049      -11.5113565279  MEMB      279             0.0000000000
     34611       279  OYPE      H4S           -15.9622016394       32.4305502243      -11.5502611737  MEMB      279             0.0000000000
     34612       279  OYPE      C25           -15.4048477765       33.3048558969       -9.6811133347  MEMB      279             0.0000000000
     34613       279  OYPE      H5R           -15.1057509897       32.3174681389       -9.2688908497  MEMB      279             0.0000000000
     34614       279  OYPE      H5S           -16.4720102056       33.4985403430       -9.4403410847  MEMB      279             0.0000000000
     34615       279  OYPE      C26           -14.4175671219       34.3321627321       -8.9458481864  MEMB      279             0.0000000000
     34616       279  OYPE      H6R           -14.6505539549       34.2656241879       -7.8615921476  MEMB      279             0.0000000000
     34617       279  OYPE      H6S           -14.5104047390       35.3952667518       -9.2548983044  MEMB      279             0.0000000000
     34618       279  OYPE      C27           -12.9841747099       33.8534529333       -9.1148778162  MEMB      279             0.0000000000
     34619       279  OYPE      H7R           -12.4423416060       34.3737450021       -9.9334343344  MEMB      279             0.0000000000
     34620       279  OYPE      H7S           -13.1116907577       32.7833031030       -9.3847675193  MEMB      279             0.0000000000
     34621       279  OYPE      C28           -12.0493995570       33.8520847469       -7.8313147545  MEMB      279             0.0000000000
     34622       279  OYPE      H8R           -11.0643605125       33.3762731032       -8.0252791203  MEMB      279             0.0000000000
     34623       279  OYPE      H8S           -12.5975378594       33.3634034689       -6.9976142392  MEMB      279             0.0000000000
     34624       279  OYPE      C29           -11.7598941967       35.2904573385       -7.4809234641  MEMB      279             0.0000000000
     34625       279  OYPE      H9R           -11.3902202186       35.9904063352       -8.2447381175  MEMB      279             0.0000000000
     34626       279  OYPE      C210          -11.9322253178       35.9577925366       -6.2982479813  MEMB      279             0.0000000000
     34627       279  OYPE      H10R          -11.5161661264       36.9694955427       -6.1826982180  MEMB      279             0.0000000000
     34628       279  OYPE      C211          -12.4363201986       35.4055562768       -5.0160066583  MEMB      279             0.0000000000
     34629       279  OYPE      H11R          -11.7301927644       35.7440605259       -4.2278953890  MEMB      279             0.0000000000
     34630       279  OYPE      H11S          -12.4489891954       34.2977172208       -5.0987911761  MEMB      279             0.0000000000
     34631       279  OYPE      C212          -13.8623652206       35.8491782713       -4.4989852901  MEMB      279             0.0000000000
     34632       279  OYPE      H12R          -14.0969299136       35.4165817407       -3.5029130631  MEMB      279             0.0000000000
     34633       279  OYPE      H12S          -14.6047885332       35.6066113572       -5.2891057850  MEMB      279             0.0000000000
     34634       279  OYPE      C213          -13.9997709633       37.3504358958       -4.3664819442  MEMB      279             0.0000000000
     34635       279  OYPE      H13R          -14.1053693497       37.7476187072       -5.3986725619  MEMB      279             0.0000000000
     34636       279  OYPE      H13S          -13.1849676898       37.8809374003       -3.8289089924  MEMB      279             0.0000000000
     34637       279  OYPE      C214          -15.3557647913       37.9300162272       -3.9610326189  MEMB      279             0.0000000000
     34638       279  OYPE      H14R          -16.1422087350       37.3516772702       -4.4914577698  MEMB      279             0.0000000000
     34639       279  OYPE      H14S          -15.3879139558       38.9785745003       -4.3268377795  MEMB      279             0.0000000000
     34640       279  OYPE      C215          -15.6839199564       37.8236834259       -2.5129667566  MEMB      279             0.0000000000
     34641       279  OYPE      H15R          -15.5865197239       36.7441930425       -2.2689691724  MEMB      279             0.0000000000
     34642       279  OYPE      H15S          -16.7072256577       38.1828951847       -2.2718577250  MEMB      279             0.0000000000
     34643       279  OYPE      C216          -14.7493328327       38.5882809078       -1.4815845548  MEMB      279             0.0000000000
     34644       279  OYPE      H16R          -15.1118069885       39.6305781299       -1.3529380041  MEMB      279             0.0000000000
     34645       279  OYPE      H16S          -13.7613593739       38.6909948371       -1.9792593549  MEMB      279             0.0000000000
     34646       279  OYPE      H16T          -14.6033683055       38.0430401135       -0.5246477494  MEMB      279             0.0000000000
     34647       279  OYPE      C33           -17.5100727625       40.8407319451      -10.2099169450  MEMB      279             0.0000000000
     34648       279  OYPE      H3X           -18.5581189106       41.0615254324       -9.9146700146  MEMB      279             0.0000000000
     34649       279  OYPE      H3Y           -17.1558726010       41.7978964428      -10.6488919616  MEMB      279             0.0000000000
     34650       279  OYPE      C34           -16.6823167980       40.4417147427       -9.0084487980  MEMB      279             0.0000000000
     34651       279  OYPE      H4X           -16.8580091559       39.3830003595       -8.7210866656  MEMB      279             0.0000000000
     34652       279  OYPE      H4Y           -15.6052204419       40.4379006596       -9.2807908929  MEMB      279             0.0000000000
     34653       279  OYPE      C35           -16.8076925217       41.3163397048       -7.7821097967  MEMB      279             0.0000000000
     34654       279  OYPE      H5X           -16.4887633855       42.3202862393       -8.1352344204  MEMB      279             0.0000000000
     34655       279  OYPE      H5Y           -16.0443287334       40.9913032110       -7.0432265396  MEMB      279             0.0000000000
     34656       279  OYPE      C36           -18.2164692175       41.2375909879       -7.1270487158  MEMB      279             0.0000000000
     34657       279  OYPE      H6X           -17.9994276403       41.4686275361       -6.0622309990  MEMB      279             0.0000000000
     34658       279  OYPE      H6Y           -18.8932579215       42.0374791833       -7.4964487487  MEMB      279             0.0000000000
     34659       279  OYPE      C37           -18.9453744258       39.8386728459       -7.0802641452  MEMB      279             0.0000000000
     34660       279  OYPE      H7X           -19.9500321692       39.9918253259       -6.6313462350  MEMB      279             0.0000000000
     34661       279  OYPE      H7Y           -19.2363471769       39.4266294175       -8.0701516539  MEMB      279             0.0000000000
     34662       279  OYPE      C38           -18.1705359253       38.7560198205       -6.1882186219  MEMB      279             0.0000000000
     34663       279  OYPE      H8X           -17.1240387671       38.6694612054       -6.5510855214  MEMB      279             0.0000000000
     34664       279  OYPE      H8Y           -18.1606317656       39.2335953799       -5.1851510266  MEMB      279             0.0000000000
     34665       279  OYPE      C39           -19.0462832794       37.5470614012       -6.3008861557  MEMB      279             0.0000000000
     34666       279  OYPE      H9X           -19.0868712742       37.2384639620       -7.3559314447  MEMB      279             0.0000000000
     34667       279  OYPE      C310          -19.7714541708       36.9261236787       -5.3411505382  MEMB      279             0.0000000000
     34668       279  OYPE      H10X          -20.0525045329       35.8842489540       -5.5544765830  MEMB      279             0.0000000000
     34669       279  OYPE      C311          -19.8694175878       37.2961387377       -3.8667425611  MEMB      279             0.0000000000
     34670       279  OYPE      H11X          -19.0629266680       37.9492344425       -3.4700566998  MEMB      279             0.0000000000
     34671       279  OYPE      H11Y          -20.8397542054       37.8246254303       -3.7506826454  MEMB      279             0.0000000000
     34672       279  OYPE      C312          -19.8397292884       36.0952562815       -2.8415172196  MEMB      279             0.0000000000
     34673       279  OYPE      H12X          -20.5757358796       35.3204841713       -3.1453981242  MEMB      279             0.0000000000
     34674       279  OYPE      H12Y          -19.9136280676       36.4969868727       -1.8083316525  MEMB      279             0.0000000000
     34675       279  OYPE      C313          -18.4717788115       35.3754473708       -2.8166084647  MEMB      279             0.0000000000
     34676       279  OYPE      H13X          -18.3014588175       35.2104411198       -3.9020048902  MEMB      279             0.0000000000
     34677       279  OYPE      H13Y          -17.7108864951       36.0982342731       -2.4519944870  MEMB      279             0.0000000000
     34678       279  OYPE      C314          -18.4453504387       34.2393377803       -1.7996721305  MEMB      279             0.0000000000
     34679       279  OYPE      H14X          -19.2325940261       33.4735220145       -1.9672863001  MEMB      279             0.0000000000
     34680       279  OYPE      H14Y          -18.6814770793       34.7044451259       -0.8187336786  MEMB      279             0.0000000000
     34681       279  OYPE      C315          -17.1111647938       33.3727894079       -1.7722895909  MEMB      279             0.0000000000
     34682       279  OYPE      H15X          -16.3835693234       34.1343196223       -1.4187387590  MEMB      279             0.0000000000
     34683       279  OYPE      H15Y          -16.9664391639       32.9942777077       -2.8067484026  MEMB      279             0.0000000000
     34684       279  OYPE      C316          -17.1431141708       32.1513080614       -0.7820930797  MEMB      279             0.0000000000
     34685       279  OYPE      H16X          -17.5740874929       31.2178108377       -1.2030049639  MEMB      279             0.0000000000
     34686       279  OYPE      H16Y          -17.7454521655       32.4703251829        0.0952523819  MEMB      279             0.0000000000
     34687       279  OYPE      C317          -15.7414626373       31.9070453944       -0.1253027482  MEMB      279             0.0000000000
     34688       279  OYPE      H17X          -15.3272053763       32.9337495897       -0.0326177242  MEMB      279             0.0000000000
     34689       279  OYPE      H17Y          -15.1623875656       31.3463505736       -0.8899027277  MEMB      279             0.0000000000
     34690       279  OYPE      C318          -15.6542062416       31.1927376610        1.2128615924  MEMB      279             0.0000000000
     34691       279  OYPE      H18X          -14.5889152804       31.0677843542        1.5024514841  MEMB      279             0.0000000000
     34692       279  OYPE      H18Y          -16.2032277976       31.6776012369        2.0482076330  MEMB      279             0.0000000000
     34693       279  OYPE      H18Z          -16.1335722159       30.1913417977        1.1712051254  MEMB      279             0.0000000000
     34694       280  PMPE      N              18.1821492649      -35.2776588921      -17.7688287281  MEMB      280             0.0000000000
     34695       280  PMPE      HN1            18.8688266350      -35.5112761383      -17.0235120209  MEMB      280             0.0000000000
     34696       280  PMPE      HN2            18.2758333597      -36.0535947495      -18.4549387604  MEMB      280             0.0000000000
     34697       280  PMPE      HN3            18.4235554021      -34.4099725319      -18.2888703930  MEMB      280             0.0000000000
     34698       280  PMPE      C12            16.7325935878      -35.1362194094      -17.4063546589  MEMB      280             0.0000000000
     34699       280  PMPE      H12A           16.7431959204      -34.2329204386      -16.7596246334  MEMB      280             0.0000000000
     34700       280  PMPE      H12B           16.4930965515      -36.0464359504      -16.8160427761  MEMB      280             0.0000000000
     34701       280  PMPE      C11            15.6798864176      -35.1238441829      -18.5804890286  MEMB      280             0.0000000000
     34702       280  PMPE      H11A           15.7636404938      -34.1059869872      -19.0178364100  MEMB      280             0.0000000000
     34703       280  PMPE      H11B           14.6240506785      -35.1289303319      -18.2347926902  MEMB      280             0.0000000000
     34704       280  PMPE      P              15.0694796057      -37.3085216114      -19.7419487876  MEMB      280             0.0000000000
     34705       280  PMPE      O13            15.6757732547      -38.3781910585      -20.4987248614  MEMB      280             0.0000000000
     34706       280  PMPE      O14            13.8279571663      -36.7124774734      -20.2157274051  MEMB      280             0.0000000000
     34707       280  PMPE      O11            14.8617439270      -37.8023251156      -18.2243736480  MEMB      280             0.0000000000
     34708       280  PMPE      O12            16.0877439648      -36.1330958813      -19.5635528824  MEMB      280             0.0000000000
     34709       280  PMPE      C1             14.8320558768      -39.1471703904      -17.9575634486  MEMB      280             0.0000000000
     34710       280  PMPE      HA             15.9034878120      -39.4084391070      -17.8230521828  MEMB      280             0.0000000000
     34711       280  PMPE      HB             14.4365560532      -39.7808191894      -18.7799928196  MEMB      280             0.0000000000
     34712       280  PMPE      C2             14.0277366656      -39.4698050777      -16.6490972497  MEMB      280             0.0000000000
     34713       280  PMPE      HS             12.9440860439      -39.4006054055      -16.8841163730  MEMB      280             0.0000000000
     34714       280  PMPE      O21            14.4488802369      -38.6306948061      -15.6041282362  MEMB      280             0.0000000000
     34715       280  PMPE      C21            13.9059828982      -37.4164354645      -15.4648613133  MEMB      280             0.0000000000
     34716       280  PMPE      O22            13.0586997606      -36.9602009975      -16.1653893981  MEMB      280             0.0000000000
     34717       280  PMPE      C22            14.5204825285      -36.6128147013      -14.2600624384  MEMB      280             0.0000000000
     34718       280  PMPE      H2R            15.5454640950      -36.1922589470      -14.3429278748  MEMB      280             0.0000000000
     34719       280  PMPE      H2S            14.4666487064      -37.1928371365      -13.3140194646  MEMB      280             0.0000000000
     34720       280  PMPE      C3             14.1661778362      -40.9088596077      -16.0970638540  MEMB      280             0.0000000000
     34721       280  PMPE      HX             15.2066420635      -41.2973878761      -16.1253646559  MEMB      280             0.0000000000
     34722       280  PMPE      HY             13.6707234897      -41.5176332892      -16.8833467310  MEMB      280             0.0000000000
     34723       280  PMPE      O31            13.4548016168      -41.1490254416      -14.9358711891  MEMB      280             0.0000000000
     34724       280  PMPE      C31            14.1953172826      -41.2460815825      -13.9172066875  MEMB      280             0.0000000000
     34725       280  PMPE      O32            15.3466366036      -41.5165402292      -13.8220366432  MEMB      280             0.0000000000
     34726       280  PMPE      C32            13.3328048067      -40.8972289331      -12.7534723361  MEMB      280             0.0000000000
     34727       280  PMPE      H2X            12.8419182005      -41.8577980222      -12.4876565548  MEMB      280             0.0000000000
     34728       280  PMPE      H2Y            12.4972510544      -40.1796154917      -12.8990819225  MEMB      280             0.0000000000
     34729       280  PMPE      C23            13.6216286981      -35.3617091667      -13.9302028043  MEMB      280             0.0000000000
     34730       280  PMPE      H3R            12.5199618019      -35.4716509643      -14.0227416145  MEMB      280             0.0000000000
     34731       280  PMPE      H3S            13.8649257078      -34.4957389331      -14.5822941811  MEMB      280             0.0000000000
     34732       280  PMPE      C24            13.6692229039      -34.9837814359      -12.4949765252  MEMB      280             0.0000000000
     34733       280  PMPE      H4R            13.1079950796      -35.7662938643      -11.9408837126  MEMB      280             0.0000000000
     34734       280  PMPE      H4S            12.9983105042      -34.1240339382      -12.2827693828  MEMB      280             0.0000000000
     34735       280  PMPE      C25            15.1197567539      -34.9068395778      -11.9721983293  MEMB      280             0.0000000000
     34736       280  PMPE      H5R            15.6176794501      -34.1565086631      -12.6228880621  MEMB      280             0.0000000000
     34737       280  PMPE      H5S            15.6149177063      -35.8834480448      -12.1602741900  MEMB      280             0.0000000000
     34738       280  PMPE      C26            15.2200289959      -34.2785328428      -10.5478143101  MEMB      280             0.0000000000
     34739       280  PMPE      H6R            14.7104341074      -33.2951889338      -10.6353870855  MEMB      280             0.0000000000
     34740       280  PMPE      H6S            16.2743899485      -34.1297844920      -10.2307685569  MEMB      280             0.0000000000
     34741       280  PMPE      C27            14.4763917250      -35.0268870742       -9.4247407550  MEMB      280             0.0000000000
     34742       280  PMPE      H7R            14.0858910443      -36.0260076327       -9.7138575393  MEMB      280             0.0000000000
     34743       280  PMPE      H7S            13.4597847914      -34.6618991685       -9.1647113624  MEMB      280             0.0000000000
     34744       280  PMPE      C28            15.2812549838      -35.3926296605       -8.1577124617  MEMB      280             0.0000000000
     34745       280  PMPE      H8R            14.7730079492      -35.9605020612       -7.3493020401  MEMB      280             0.0000000000
     34746       280  PMPE      H8S            15.5152974669      -34.3896503147       -7.7410858592  MEMB      280             0.0000000000
     34747       280  PMPE      C29            16.6378847538      -36.1147193621       -8.3950016062  MEMB      280             0.0000000000
     34748       280  PMPE      H9R            17.2095436528      -35.8952441926       -9.3220164839  MEMB      280             0.0000000000
     34749       280  PMPE      C217           16.3135132302      -37.6266401411       -8.4272285078  MEMB      280             0.0000000000
     34750       280  PMPE      H17R           16.7760766836      -38.2484061205       -9.1837536768  MEMB      280             0.0000000000
     34751       280  PMPE      H17S           15.3689418357      -37.8740327509       -7.9587512452  MEMB      280             0.0000000000
     34752       280  PMPE      C210           17.3066139327      -37.0672783370       -7.4254108392  MEMB      280             0.0000000000
     34753       280  PMPE      H10R           18.3719279606      -36.9960401943       -7.7325793363  MEMB      280             0.0000000000
     34754       280  PMPE      C211           16.8718745198      -36.8737279611       -5.9850749934  MEMB      280             0.0000000000
     34755       280  PMPE      H11R           17.3641629258      -37.5183335493       -5.2258276552  MEMB      280             0.0000000000
     34756       280  PMPE      H11S           15.7737446679      -37.0299813650       -5.9216969541  MEMB      280             0.0000000000
     34757       280  PMPE      C212           17.2483702764      -35.4623938163       -5.3706139645  MEMB      280             0.0000000000
     34758       280  PMPE      H12R           16.6633434893      -34.6953329190       -5.9216880529  MEMB      280             0.0000000000
     34759       280  PMPE      H12S           18.3325260462      -35.3838967866       -5.6003213298  MEMB      280             0.0000000000
     34760       280  PMPE      C213           17.0930524254      -35.4774531523       -3.8715807181  MEMB      280             0.0000000000
     34761       280  PMPE      H13R           17.8190369404      -34.7381217984       -3.4707606157  MEMB      280             0.0000000000
     34762       280  PMPE      H13S           17.2943539291      -36.4892523045       -3.4591958682  MEMB      280             0.0000000000
     34763       280  PMPE      C214           15.7676835175      -34.9258106699       -3.3430036921  MEMB      280             0.0000000000
     34764       280  PMPE      H14R           14.9860383493      -35.7085534553       -3.4462775798  MEMB      280             0.0000000000
     34765       280  PMPE      H14S           15.4636464984      -34.0777555464       -3.9931462836  MEMB      280             0.0000000000
     34766       280  PMPE      C215           15.9549332719      -34.2265698160       -1.9992091309  MEMB      280             0.0000000000
     34767       280  PMPE      H15R           16.9716011175      -33.7801857958       -1.9611528648  MEMB      280             0.0000000000
     34768       280  PMPE      H15S           15.8613229955      -35.0195389854       -1.2267095557  MEMB      280             0.0000000000
     34769       280  PMPE      C216           14.8513568921      -33.1726992386       -1.5725359533  MEMB      280             0.0000000000
     34770       280  PMPE      H16R           13.8737909454      -33.7000548321       -1.5966621420  MEMB      280             0.0000000000
     34771       280  PMPE      H16S           15.1170491764      -32.8060882618       -0.5579795323  MEMB      280             0.0000000000
     34772       280  PMPE      H16T           14.8450395682      -32.3320701947       -2.2989148732  MEMB      280             0.0000000000
     34773       280  PMPE      C33            14.0334702448      -40.4814275943      -11.4633923883  MEMB      280             0.0000000000
     34774       280  PMPE      H3X            14.2540683848      -39.3931986578      -11.5010116761  MEMB      280             0.0000000000
     34775       280  PMPE      H3Y            14.9495060598      -41.1099407412      -11.4764489757  MEMB      280             0.0000000000
     34776       280  PMPE      C34            13.3568522467      -40.8339445063      -10.1565664568  MEMB      280             0.0000000000
     34777       280  PMPE      H4X            13.4931806434      -41.9218350416       -9.9770390633  MEMB      280             0.0000000000
     34778       280  PMPE      H4Y            12.2925545585      -40.5297382836      -10.2516967875  MEMB      280             0.0000000000
     34779       280  PMPE      C35            13.8680903169      -40.0446925950       -8.9317639116  MEMB      280             0.0000000000
     34780       280  PMPE      H5X            13.8582213173      -38.9646546230       -9.1920353600  MEMB      280             0.0000000000
     34781       280  PMPE      H5Y            14.9560970624      -40.2313178455       -8.8063314017  MEMB      280             0.0000000000
     34782       280  PMPE      C36            12.9903669587      -40.4073233339       -7.6402853232  MEMB      280             0.0000000000
     34783       280  PMPE      H6X            13.2552094460      -41.4642384038       -7.4232351252  MEMB      280             0.0000000000
     34784       280  PMPE      H6Y            11.9424254878      -40.4477459090       -8.0070356248  MEMB      280             0.0000000000
     34785       280  PMPE      C37            13.0896954504      -39.4742879123       -6.4872643021  MEMB      280             0.0000000000
     34786       280  PMPE      H7X            12.2047370969      -39.5552073510       -5.8204644429  MEMB      280             0.0000000000
     34787       280  PMPE      H7Y            13.1534145583      -38.4295806052       -6.8598871038  MEMB      280             0.0000000000
     34788       280  PMPE      C38            14.2653867541      -39.8428241406       -5.5534454511  MEMB      280             0.0000000000
     34789       280  PMPE      H8X            15.2901793303      -39.7405452595       -5.9701710387  MEMB      280             0.0000000000
     34790       280  PMPE      H8Y            14.0933094357      -40.7830259443       -4.9871142434  MEMB      280             0.0000000000
     34791       280  PMPE      C39            14.2432272459      -38.9550270677       -4.2900822566  MEMB      280             0.0000000000
     34792       280  PMPE      H9X            13.1808467773      -38.9583412759       -3.9650314371  MEMB      280             0.0000000000
     34793       280  PMPE      H9Y            14.4663651674      -37.8871771341       -4.5003841625  MEMB      280             0.0000000000
     34794       280  PMPE      C310           15.1577082724      -39.4937982932       -3.2622599569  MEMB      280             0.0000000000
     34795       280  PMPE      H10X           16.0968387793      -39.7667717191       -3.7893662422  MEMB      280             0.0000000000
     34796       280  PMPE      H10Y           14.8011527785      -40.4826867486       -2.9026938590  MEMB      280             0.0000000000
     34797       280  PMPE      C311           15.5173493223      -38.4952229650       -2.1863264578  MEMB      280             0.0000000000
     34798       280  PMPE      H11X           14.7681974473      -38.4578586591       -1.3667556933  MEMB      280             0.0000000000
     34799       280  PMPE      H11Y           15.6041155134      -37.5009701339       -2.6744406577  MEMB      280             0.0000000000
     34800       280  PMPE      C312           16.8585689449      -38.8294360957       -1.4190348236  MEMB      280             0.0000000000
     34801       280  PMPE      H12X           17.7220725438      -38.9221263328       -2.1119206952  MEMB      280             0.0000000000
     34802       280  PMPE      H12Y           16.7607429674      -39.7891549320       -0.8679542505  MEMB      280             0.0000000000
     34803       280  PMPE      C313           17.3554151128      -37.7443965585       -0.3149492071  MEMB      280             0.0000000000
     34804       280  PMPE      H13X           16.5573099877      -37.6237593887        0.4484600180  MEMB      280             0.0000000000
     34805       280  PMPE      H13Y           17.5458526489      -36.7908267761       -0.8523136738  MEMB      280             0.0000000000
     34806       280  PMPE      C314           18.7116872206      -38.0773197708        0.4439654835  MEMB      280             0.0000000000
     34807       280  PMPE      H14X           18.6485091836      -39.0882134205        0.9004998718  MEMB      280             0.0000000000
     34808       280  PMPE      H14Y           18.9021662555      -37.3583263853        1.2692461266  MEMB      280             0.0000000000
     34809       280  PMPE      C315           19.9582543219      -38.0153452941       -0.4891810405  MEMB      280             0.0000000000
     34810       280  PMPE      H15X           19.8422458107      -38.7552924097       -1.3097544786  MEMB      280             0.0000000000
     34811       280  PMPE      H15Y           20.7551237845      -38.4482456758        0.1526285201  MEMB      280             0.0000000000
     34812       280  PMPE      C316           20.4531482922      -36.6852388640       -1.0095452155  MEMB      280             0.0000000000
     34813       280  PMPE      H16X           20.4091207651      -35.8544942176       -0.2731721705  MEMB      280             0.0000000000
     34814       280  PMPE      H16Y           20.0050093704      -36.2939361651       -1.9478291812  MEMB      280             0.0000000000
     34815       280  PMPE      H16Z           21.5057524128      -36.8105469379       -1.3421765667  MEMB      280             0.0000000000
     34816       281  PYPG      C13            -7.4654950946      -37.0854891592      -19.1331960676  MEMB      281             0.0000000000
     34817       281  PYPG      H13A           -7.2412385565      -37.8087221116      -19.9461930577  MEMB      281             0.0000000000
     34818       281  PYPG      H13B           -7.0087709474      -36.1138922822      -19.4190694948  MEMB      281             0.0000000000
     34819       281  PYPG      OC3            -6.8659588989      -37.5682803533      -17.9405739961  MEMB      281             0.0000000000
     34820       281  PYPG      HO3            -7.5731731442      -38.1697073241      -17.6961689707  MEMB      281             0.0000000000
     34821       281  PYPG      C12            -8.9633513193      -36.8090094159      -19.0182526264  MEMB      281             0.0000000000
     34822       281  PYPG      H12A           -9.3560724162      -36.6768653499      -20.0531860184  MEMB      281             0.0000000000
     34823       281  PYPG      OC2            -9.1857104097      -35.5923733307      -18.3038340089  MEMB      281             0.0000000000
     34824       281  PYPG      HO2           -10.1592259609      -35.5873833965      -18.1736057015  MEMB      281             0.0000000000
     34825       281  PYPG      C11            -9.7470951121      -37.9811489540      -18.3522591059  MEMB      281             0.0000000000
     34826       281  PYPG      H11A          -10.7965648932      -37.6485036749      -18.2029899323  MEMB      281             0.0000000000
     34827       281  PYPG      H11B           -9.2819497049      -38.1320924372      -17.3546736147  MEMB      281             0.0000000000
     34828       281  PYPG      P             -10.7053213070      -40.1669469733      -19.4932405740  MEMB      281             0.0000000000
     34829       281  PYPG      O13           -10.5513411283      -40.4888082673      -20.9276178359  MEMB      281             0.0000000000
     34830       281  PYPG      O14           -11.9883267851      -39.7134243595      -18.9740909519  MEMB      281             0.0000000000
     34831       281  PYPG      O11           -10.4116372822      -41.6165734593      -18.7633169452  MEMB      281             0.0000000000
     34832       281  PYPG      O12            -9.5881320607      -39.1756157092      -19.0936178671  MEMB      281             0.0000000000
     34833       281  PYPG      C1             -9.6856181914      -41.7277156590      -17.5113046017  MEMB      281             0.0000000000
     34834       281  PYPG      HA             -9.0138912225      -40.8702344803      -17.2926040591  MEMB      281             0.0000000000
     34835       281  PYPG      HB             -8.9973292952      -42.5995138896      -17.4879045404  MEMB      281             0.0000000000
     34836       281  PYPG      C2            -10.6307709334      -41.9298527460      -16.3219638922  MEMB      281             0.0000000000
     34837       281  PYPG      HS            -11.5080084238      -42.5606809045      -16.5804815296  MEMB      281             0.0000000000
     34838       281  PYPG      O21           -11.1216649398      -40.5832180255      -16.1003112832  MEMB      281             0.0000000000
     34839       281  PYPG      C21           -11.8268589229      -40.3216388749      -14.9393135660  MEMB      281             0.0000000000
     34840       281  PYPG      O22           -12.0548675919      -41.1939416178      -14.1162578486  MEMB      281             0.0000000000
     34841       281  PYPG      C22           -12.0988942046      -38.8459990786      -14.7430420699  MEMB      281             0.0000000000
     34842       281  PYPG      H2R           -11.6392716062      -38.1942434516      -15.5165297616  MEMB      281             0.0000000000
     34843       281  PYPG      H2S           -11.7025076142      -38.4999807140      -13.7645383480  MEMB      281             0.0000000000
     34844       281  PYPG      C3             -9.7718535617      -42.4494535517      -15.2383724601  MEMB      281             0.0000000000
     34845       281  PYPG      HX             -9.2283314172      -43.3267312707      -15.6498194602  MEMB      281             0.0000000000
     34846       281  PYPG      HY            -10.4196595349      -42.9754734350      -14.5049072849  MEMB      281             0.0000000000
     34847       281  PYPG      O31            -8.8984827399      -41.3856611681      -14.7657428883  MEMB      281             0.0000000000
     34848       281  PYPG      C31            -8.6917800680      -41.4737883179      -13.4655918117  MEMB      281             0.0000000000
     34849       281  PYPG      O32            -9.0515948030      -42.4234509650      -12.7186094886  MEMB      281             0.0000000000
     34850       281  PYPG      C32            -7.9452885192      -40.2365633152      -12.9658023728  MEMB      281             0.0000000000
     34851       281  PYPG      H2X            -7.7835059009      -40.2309227644      -11.8666593705  MEMB      281             0.0000000000
     34852       281  PYPG      H2Y            -6.9722211261      -40.3154578671      -13.4961201167  MEMB      281             0.0000000000
     34853       281  PYPG      C23           -13.6277909025      -38.5203930552      -14.7745316485  MEMB      281             0.0000000000
     34854       281  PYPG      H3R           -14.2040338467      -39.2492711924      -14.1654326766  MEMB      281             0.0000000000
     34855       281  PYPG      H3S           -13.9877895040      -38.6973399327      -15.8105875381  MEMB      281             0.0000000000
     34856       281  PYPG      C24           -14.0353127348      -37.1170982652      -14.3904506086  MEMB      281             0.0000000000
     34857       281  PYPG      H4R           -15.1396050109      -37.1099859278      -14.5121429631  MEMB      281             0.0000000000
     34858       281  PYPG      H4S           -13.4790688590      -36.3514782584      -14.9724643936  MEMB      281             0.0000000000
     34859       281  PYPG      C25           -13.6610704255      -36.7884818726      -12.9234883039  MEMB      281             0.0000000000
     34860       281  PYPG      H5R           -13.8408914226      -35.7065441894      -12.7462977279  MEMB      281             0.0000000000
     34861       281  PYPG      H5S           -12.5557815179      -36.8729031584      -12.8491212108  MEMB      281             0.0000000000
     34862       281  PYPG      C26           -14.3411923034      -37.4001756066      -11.7647044347  MEMB      281             0.0000000000
     34863       281  PYPG      H6R           -14.2242740826      -38.5018214269      -11.8485331345  MEMB      281             0.0000000000
     34864       281  PYPG      H6S           -15.4381820062      -37.2454741438      -11.8483849531  MEMB      281             0.0000000000
     34865       281  PYPG      C27           -13.9319280403      -36.8940439299      -10.3728149013  MEMB      281             0.0000000000
     34866       281  PYPG      H7R           -14.5977208944      -37.3841143430       -9.6306073172  MEMB      281             0.0000000000
     34867       281  PYPG      H7S           -14.1972849218      -35.8152978291      -10.3874374358  MEMB      281             0.0000000000
     34868       281  PYPG      C28           -12.5158234222      -37.2760485068       -9.7907925052  MEMB      281             0.0000000000
     34869       281  PYPG      H8R           -12.3475176831      -36.7977754916       -8.8022340671  MEMB      281             0.0000000000
     34870       281  PYPG      H8S           -11.7202359235      -36.8637939433      -10.4476093078  MEMB      281             0.0000000000
     34871       281  PYPG      C29           -12.4263624848      -38.8110961361       -9.7165749908  MEMB      281             0.0000000000
     34872       281  PYPG      H9R           -12.6531105895      -39.2242029593      -10.7105204500  MEMB      281             0.0000000000
     34873       281  PYPG      C210          -12.2286776979      -39.6138223409       -8.6398911925  MEMB      281             0.0000000000
     34874       281  PYPG      H10R          -12.1432749784      -40.7104477095       -8.6289882696  MEMB      281             0.0000000000
     34875       281  PYPG      C211          -12.0894714835      -39.0899824764       -7.2425258746  MEMB      281             0.0000000000
     34876       281  PYPG      H11R          -12.5239079173      -38.0873302456       -7.0418401107  MEMB      281             0.0000000000
     34877       281  PYPG      H11S          -11.0123340406      -39.0234861196       -6.9785668975  MEMB      281             0.0000000000
     34878       281  PYPG      C212          -12.9225482811      -39.9590035236       -6.2473411390  MEMB      281             0.0000000000
     34879       281  PYPG      H12R          -12.7335334302      -41.0307023954       -6.4710734156  MEMB      281             0.0000000000
     34880       281  PYPG      H12S          -13.9770853589      -39.6339895170       -6.3763316251  MEMB      281             0.0000000000
     34881       281  PYPG      C213          -12.5710057783      -39.8579948971       -4.7389607988  MEMB      281             0.0000000000
     34882       281  PYPG      H13R          -11.5437898587      -40.2552349045       -4.5928482017  MEMB      281             0.0000000000
     34883       281  PYPG      H13S          -13.2593744127      -40.5758740081       -4.2438652274  MEMB      281             0.0000000000
     34884       281  PYPG      C214          -12.5948682634      -38.4980068465       -3.9417169054  MEMB      281             0.0000000000
     34885       281  PYPG      H14R          -12.1762255966      -38.6178817821       -2.9196159792  MEMB      281             0.0000000000
     34886       281  PYPG      H14S          -11.8831474172      -37.8212187137       -4.4610745194  MEMB      281             0.0000000000
     34887       281  PYPG      C215          -13.9903385749      -37.8456518353       -3.9873261445  MEMB      281             0.0000000000
     34888       281  PYPG      H15R          -14.5051710044      -37.9029521850       -4.9701717530  MEMB      281             0.0000000000
     34889       281  PYPG      H15S          -13.9412133649      -36.7644243516       -3.7366164179  MEMB      281             0.0000000000
     34890       281  PYPG      C216          -14.8596314014      -38.4673672580       -2.8880697118  MEMB      281             0.0000000000
     34891       281  PYPG      H16R          -15.4020759810      -39.3608730432       -3.2645308596  MEMB      281             0.0000000000
     34892       281  PYPG      H16S          -15.7012618528      -37.7684774436       -2.6943392173  MEMB      281             0.0000000000
     34893       281  PYPG      H16T          -14.2937316500      -38.6209431745       -1.9444116988  MEMB      281             0.0000000000
     34894       281  PYPG      C33            -8.6811055279      -38.9803961323      -13.4062407334  MEMB      281             0.0000000000
     34895       281  PYPG      H3X            -9.7452242417      -38.9062045406      -13.0956476412  MEMB      281             0.0000000000
     34896       281  PYPG      H3Y            -8.8377913013      -38.9711204077      -14.5060971962  MEMB      281             0.0000000000
     34897       281  PYPG      C34            -8.0998632981      -37.5861760815      -12.9917679900  MEMB      281             0.0000000000
     34898       281  PYPG      H4X            -8.2817982865      -36.8779410791      -13.8282031250  MEMB      281             0.0000000000
     34899       281  PYPG      H4Y            -6.9983785913      -37.6273029589      -12.8526252526  MEMB      281             0.0000000000
     34900       281  PYPG      C35            -8.6831117489      -37.0004921764      -11.6766786250  MEMB      281             0.0000000000
     34901       281  PYPG      H5X            -9.7939239170      -37.0178694274      -11.6659490346  MEMB      281             0.0000000000
     34902       281  PYPG      H5Y            -8.3549630973      -35.9705600212      -11.4200093822  MEMB      281             0.0000000000
     34903       281  PYPG      C36            -8.2159426367      -37.8319196124      -10.4895169949  MEMB      281             0.0000000000
     34904       281  PYPG      H6X            -7.1196672569      -37.7023028236      -10.6148199670  MEMB      281             0.0000000000
     34905       281  PYPG      H6Y            -8.4381518122      -38.9135508105      -10.6120652570  MEMB      281             0.0000000000
     34906       281  PYPG      C37            -8.5685266001      -37.3321079221       -9.0474323872  MEMB      281             0.0000000000
     34907       281  PYPG      H7X            -9.6433293968      -37.6083130463       -8.9942291390  MEMB      281             0.0000000000
     34908       281  PYPG      H7Y            -7.9942127813      -37.8611349639       -8.2571061824  MEMB      281             0.0000000000
     34909       281  PYPG      C38            -8.4289256705      -35.8345398105       -8.8395714047  MEMB      281             0.0000000000
     34910       281  PYPG      H8X            -9.0472195986      -35.1632300321       -9.4731141837  MEMB      281             0.0000000000
     34911       281  PYPG      H8Y            -7.4333300256      -35.4479319241       -9.1455857751  MEMB      281             0.0000000000
     34912       281  PYPG      C39            -8.7770274402      -35.3925292465       -7.4072767485  MEMB      281             0.0000000000
     34913       281  PYPG      H9X            -8.7664002591      -34.2816508106       -7.4198172640  MEMB      281             0.0000000000
     34914       281  PYPG      H9Y            -8.0155541199      -35.7927377162       -6.7042029546  MEMB      281             0.0000000000
     34915       281  PYPG      C310          -10.1955263476      -35.8254277236       -7.0616690340  MEMB      281             0.0000000000
     34916       281  PYPG      H10X          -10.2857750414      -36.9323509655       -7.0916197120  MEMB      281             0.0000000000
     34917       281  PYPG      H10Y          -10.7962534921      -35.3033115953       -7.8368098202  MEMB      281             0.0000000000
     34918       281  PYPG      C311          -10.6387950998      -35.3592762847       -5.7204780197  MEMB      281             0.0000000000
     34919       281  PYPG      H11X          -11.7064432823      -35.6625597721       -5.6708045696  MEMB      281             0.0000000000
     34920       281  PYPG      H11Y          -10.4090117057      -34.2770586320       -5.6188645420  MEMB      281             0.0000000000
     34921       281  PYPG      C312           -9.7489059199      -36.0798286498       -4.5627004025  MEMB      281             0.0000000000
     34922       281  PYPG      H12X           -9.7431048640      -37.1698495749       -4.7775062573  MEMB      281             0.0000000000
     34923       281  PYPG      H12Y           -8.7635998144      -35.6324289502       -4.8143478622  MEMB      281             0.0000000000
     34924       281  PYPG      C313          -10.1177546335      -35.7504076363       -3.1489001895  MEMB      281             0.0000000000
     34925       281  PYPG      H13X           -9.8594294231      -34.6895391021       -2.9436020328  MEMB      281             0.0000000000
     34926       281  PYPG      H13Y          -11.2095179498      -35.7757713464       -2.9446181816  MEMB      281             0.0000000000
     34927       281  PYPG      C314           -9.3121206345      -36.4615121744       -2.0900310552  MEMB      281             0.0000000000
     34928       281  PYPG      H14X           -9.7839928870      -36.1697093919       -1.1274772760  MEMB      281             0.0000000000
     34929       281  PYPG      H14Y           -9.4432607969      -37.5477214879       -2.2830917186  MEMB      281             0.0000000000
     34930       281  PYPG      C315           -7.9370405375      -35.9019556726       -2.1305715573  MEMB      281             0.0000000000
     34931       281  PYPG      H15X           -7.3844947891      -36.1307407265       -3.0668782690  MEMB      281             0.0000000000
     34932       281  PYPG      H15Y           -8.0358353424      -34.8008166310       -2.0207829590  MEMB      281             0.0000000000
     34933       281  PYPG      C316           -7.1129330876      -36.4103747188       -0.8857245655  MEMB      281             0.0000000000
     34934       281  PYPG      H16X           -6.6407859817      -37.4030590015       -1.0468936616  MEMB      281             0.0000000000
     34935       281  PYPG      H16Y           -7.6284820533      -36.3873628208        0.0981459516  MEMB      281             0.0000000000
     34936       281  PYPG      H16Z           -6.2328034426      -35.7507768916       -0.7288043177  MEMB      281             0.0000000000
     34937       282  PYPG      C13           -24.6363100180      -32.6622802885      -20.5497367108  MEMB      282             0.0000000000
     34938       282  PYPG      H13A          -24.4527111191      -31.5669409846      -20.5206798993  MEMB      282             0.0000000000
     34939       282  PYPG      H13B          -25.0584468044      -32.9210425640      -21.5443036772  MEMB      282             0.0000000000
     34940       282  PYPG      OC3           -25.7649631705      -32.7430973260      -19.7193204766  MEMB      282             0.0000000000
     34941       282  PYPG      HO3           -26.0643557986      -33.6538936437      -19.6701875164  MEMB      282             0.0000000000
     34942       282  PYPG      C12           -23.6185393074      -33.7446967972      -20.1240129063  MEMB      282             0.0000000000
     34943       282  PYPG      H12A          -22.7152788507      -33.6205029897      -20.7654764559  MEMB      282             0.0000000000
     34944       282  PYPG      OC2           -24.1547880260      -35.0463417501      -20.3652568044  MEMB      282             0.0000000000
     34945       282  PYPG      HO2           -23.4966700554      -35.6387035780      -19.9401626481  MEMB      282             0.0000000000
     34946       282  PYPG      C11           -23.1806556521      -33.6121832457      -18.6630922341  MEMB      282             0.0000000000
     34947       282  PYPG      H11A          -22.3327800268      -34.3270437613      -18.5967419993  MEMB      282             0.0000000000
     34948       282  PYPG      H11B          -23.9227456405      -33.8159981488      -17.8617915943  MEMB      282             0.0000000000
     34949       282  PYPG      P             -21.2355375196      -31.7079719453      -18.2228569227  MEMB      282             0.0000000000
     34950       282  PYPG      O13           -21.0720491376      -30.4415444402      -18.9616977183  MEMB      282             0.0000000000
     34951       282  PYPG      O14           -20.2121177584      -32.7175710401      -18.4499429287  MEMB      282             0.0000000000
     34952       282  PYPG      O11           -21.2542364618      -31.4566933635      -16.5754321937  MEMB      282             0.0000000000
     34953       282  PYPG      O12           -22.7335359495      -32.2835328069      -18.3686510702  MEMB      282             0.0000000000
     34954       282  PYPG      C1            -20.1082328570      -31.8135145317      -15.7239561370  MEMB      282             0.0000000000
     34955       282  PYPG      HA            -20.1356377784      -31.2724327746      -14.7540074296  MEMB      282             0.0000000000
     34956       282  PYPG      HB            -19.1723509568      -31.4760117575      -16.2184640171  MEMB      282             0.0000000000
     34957       282  PYPG      C2            -19.9896804426      -33.3609971242      -15.3288538492  MEMB      282             0.0000000000
     34958       282  PYPG      HS            -19.2310768774      -33.7538568060      -16.0391375343  MEMB      282             0.0000000000
     34959       282  PYPG      O21           -21.3458073432      -33.8445020810      -15.4776649979  MEMB      282             0.0000000000
     34960       282  PYPG      C21           -21.3107972414      -35.1776155461      -15.4024165655  MEMB      282             0.0000000000
     34961       282  PYPG      O22           -20.3331445776      -35.8537410375      -15.5475704866  MEMB      282             0.0000000000
     34962       282  PYPG      C22           -22.7738247295      -35.6217216586      -15.0469582612  MEMB      282             0.0000000000
     34963       282  PYPG      H2R           -22.9611457784      -36.7167433330      -15.0343260758  MEMB      282             0.0000000000
     34964       282  PYPG      H2S           -23.4329592992      -35.1627124616      -15.8145344235  MEMB      282             0.0000000000
     34965       282  PYPG      C3            -19.4294328615      -33.4812563397      -13.8485094512  MEMB      282             0.0000000000
     34966       282  PYPG      HX            -18.4104410592      -33.0385792442      -13.8522549998  MEMB      282             0.0000000000
     34967       282  PYPG      HY            -19.3587628894      -34.5619214599      -13.6005383683  MEMB      282             0.0000000000
     34968       282  PYPG      O31           -20.3210656913      -32.7871209176      -12.9231980768  MEMB      282             0.0000000000
     34969       282  PYPG      C31           -19.7899443982      -32.0243537428      -11.9570800988  MEMB      282             0.0000000000
     34970       282  PYPG      O32           -18.6131038559      -32.0378314983      -11.5919709699  MEMB      282             0.0000000000
     34971       282  PYPG      C32           -20.9231851011      -31.0026506766      -11.6005919688  MEMB      282             0.0000000000
     34972       282  PYPG      H2X           -21.1982704785      -31.0534919440      -10.5253874244  MEMB      282             0.0000000000
     34973       282  PYPG      H2Y           -20.6002880288      -29.9583750990      -11.7994569239  MEMB      282             0.0000000000
     34974       282  PYPG      C23           -23.0728611151      -35.0787984014      -13.5835691556  MEMB      282             0.0000000000
     34975       282  PYPG      H3R           -24.1701486818      -35.0240329401      -13.4183976112  MEMB      282             0.0000000000
     34976       282  PYPG      H3S           -22.7816648522      -34.0085388199      -13.6473684483  MEMB      282             0.0000000000
     34977       282  PYPG      C24           -22.5342791836      -35.8833368866      -12.4159565791  MEMB      282             0.0000000000
     34978       282  PYPG      H4R           -21.4255020308      -35.8155904889      -12.4345209924  MEMB      282             0.0000000000
     34979       282  PYPG      H4S           -22.7507954591      -36.9685687760      -12.5145135494  MEMB      282             0.0000000000
     34980       282  PYPG      C25           -23.0569650940      -35.5757354829      -11.0327482104  MEMB      282             0.0000000000
     34981       282  PYPG      H5R           -24.0905198697      -35.9716147809      -10.9359768113  MEMB      282             0.0000000000
     34982       282  PYPG      H5S           -23.0374446339      -34.4896098458      -10.7997866600  MEMB      282             0.0000000000
     34983       282  PYPG      C26           -22.2191915551      -36.2534024138       -9.9487371086  MEMB      282             0.0000000000
     34984       282  PYPG      H6R           -21.3588118963      -35.6897670585       -9.5287572564  MEMB      282             0.0000000000
     34985       282  PYPG      H6S           -21.7437121882      -37.1888602419      -10.3136469994  MEMB      282             0.0000000000
     34986       282  PYPG      C27           -23.1546815460      -36.8895194365       -8.8678546636  MEMB      282             0.0000000000
     34987       282  PYPG      H7R           -23.8027563296      -37.6514421976       -9.3513771609  MEMB      282             0.0000000000
     34988       282  PYPG      H7S           -23.7662299826      -36.0124570822       -8.5660418077  MEMB      282             0.0000000000
     34989       282  PYPG      C28           -22.5224867004      -37.3494622980       -7.5204433403  MEMB      282             0.0000000000
     34990       282  PYPG      H8R           -23.1879689560      -37.7832307483       -6.7437196166  MEMB      282             0.0000000000
     34991       282  PYPG      H8S           -21.9856501180      -36.4853552622       -7.0738490006  MEMB      282             0.0000000000
     34992       282  PYPG      C29           -21.5906791167      -38.5236544479       -7.8027734067  MEMB      282             0.0000000000
     34993       282  PYPG      H9R           -22.2545243721      -39.3572028689       -8.0757318182  MEMB      282             0.0000000000
     34994       282  PYPG      C210          -20.2819849092      -38.6443551290       -7.7066429003  MEMB      282             0.0000000000
     34995       282  PYPG      H10R          -19.8134614600      -39.6061665977       -7.9623854651  MEMB      282             0.0000000000
     34996       282  PYPG      C211          -19.3102442498      -37.5870150927       -7.3266243605  MEMB      282             0.0000000000
     34997       282  PYPG      H11R          -19.7992583979      -36.5895629562       -7.3100409377  MEMB      282             0.0000000000
     34998       282  PYPG      H11S          -18.5882608145      -37.4667724154       -8.1624487505  MEMB      282             0.0000000000
     34999       282  PYPG      C212          -18.2897430139      -37.9200538888       -6.2277454880  MEMB      282             0.0000000000
     35000       282  PYPG      H12R          -17.6522816378      -37.0375863446       -6.0059012053  MEMB      282             0.0000000000
     35001       282  PYPG      H12S          -17.6928157400      -38.7432119871       -6.6754160851  MEMB      282             0.0000000000
     35002       282  PYPG      C213          -18.9738525719      -38.4457770288       -4.9648818800  MEMB      282             0.0000000000
     35003       282  PYPG      H13R          -18.1770528331      -38.7809667902       -4.2669706038  MEMB      282             0.0000000000
     35004       282  PYPG      H13S          -19.6369295852      -39.2682206283       -5.3087368887  MEMB      282             0.0000000000
     35005       282  PYPG      C214          -19.8847289336      -37.5183171494       -4.1353255882  MEMB      282             0.0000000000
     35006       282  PYPG      H14R          -20.8374731005      -37.3967989418       -4.6937460210  MEMB      282             0.0000000000
     35007       282  PYPG      H14S          -20.0182994634      -37.9337804064       -3.1136250666  MEMB      282             0.0000000000
     35008       282  PYPG      C215          -19.3225745036      -36.0865355715       -3.8183299307  MEMB      282             0.0000000000
     35009       282  PYPG      H15R          -19.0938829041      -35.5677679689       -4.7737887685  MEMB      282             0.0000000000
     35010       282  PYPG      H15S          -18.4197379061      -36.2209764626       -3.1849784084  MEMB      282             0.0000000000
     35011       282  PYPG      C216          -20.2292705079      -35.1951182734       -2.9561555226  MEMB      282             0.0000000000
     35012       282  PYPG      H16R          -19.7735703535      -34.2076392517       -2.7291229041  MEMB      282             0.0000000000
     35013       282  PYPG      H16S          -20.3292772024      -35.7331103924       -1.9892619683  MEMB      282             0.0000000000
     35014       282  PYPG      H16T          -21.1963245533      -35.0180944502       -3.4736403894  MEMB      282             0.0000000000
     35015       282  PYPG      C33           -22.1074613400      -31.2121309914      -12.5087546283  MEMB      282             0.0000000000
     35016       282  PYPG      H3X           -22.6047328588      -32.2011716294      -12.4147310569  MEMB      282             0.0000000000
     35017       282  PYPG      H3Y           -21.8786197426      -31.2110255941      -13.5959304061  MEMB      282             0.0000000000
     35018       282  PYPG      C34           -23.1237991249      -30.1190782653      -12.3620665073  MEMB      282             0.0000000000
     35019       282  PYPG      H4X           -23.1557135638      -29.7052647033      -13.3926298919  MEMB      282             0.0000000000
     35020       282  PYPG      H4Y           -22.7216267257      -29.3209841108      -11.7020479533  MEMB      282             0.0000000000
     35021       282  PYPG      C35           -24.4358174565      -30.5530095581      -11.7144987278  MEMB      282             0.0000000000
     35022       282  PYPG      H5X           -24.9296680911      -31.3105298825      -12.3599405423  MEMB      282             0.0000000000
     35023       282  PYPG      H5Y           -25.2074925019      -29.7751976374      -11.5305226159  MEMB      282             0.0000000000
     35024       282  PYPG      C36           -24.1871302722      -31.2380357495      -10.3561037523  MEMB      282             0.0000000000
     35025       282  PYPG      H6X           -23.3089235811      -30.8257972732       -9.8146855601  MEMB      282             0.0000000000
     35026       282  PYPG      H6Y           -23.9411641071      -32.3109425445      -10.5067439191  MEMB      282             0.0000000000
     35027       282  PYPG      C37           -25.5087228105      -31.2793075810       -9.4516842329  MEMB      282             0.0000000000
     35028       282  PYPG      H7X           -25.8139374252      -30.2328218944       -9.2371309274  MEMB      282             0.0000000000
     35029       282  PYPG      H7Y           -26.2947146919      -31.9199793073       -9.9056415727  MEMB      282             0.0000000000
     35030       282  PYPG      C38           -25.1705571065      -31.8724170042       -8.0531285672  MEMB      282             0.0000000000
     35031       282  PYPG      H8X           -26.0984130410      -31.9009578663       -7.4427275499  MEMB      282             0.0000000000
     35032       282  PYPG      H8Y           -24.4496957548      -31.1283916460       -7.6517484351  MEMB      282             0.0000000000
     35033       282  PYPG      C39           -24.5401923434      -33.3323354466       -7.9410415694  MEMB      282             0.0000000000
     35034       282  PYPG      H9X           -23.5671331827      -33.2919964691       -8.4756900986  MEMB      282             0.0000000000
     35035       282  PYPG      H9Y           -25.1519512388      -34.0279927431       -8.5543378513  MEMB      282             0.0000000000
     35036       282  PYPG      C310          -24.3517838841      -33.7520780623       -6.4582556138  MEMB      282             0.0000000000
     35037       282  PYPG      H10X          -24.2430049279      -32.8265195270       -5.8534172092  MEMB      282             0.0000000000
     35038       282  PYPG      H10Y          -23.4983800984      -34.4560525779       -6.3560673130  MEMB      282             0.0000000000
     35039       282  PYPG      C311          -25.5377410311      -34.4834132192       -5.8952443010  MEMB      282             0.0000000000
     35040       282  PYPG      H11X          -25.3888892018      -35.5055854429       -6.3043021910  MEMB      282             0.0000000000
     35041       282  PYPG      H11Y          -26.4005412237      -34.0714509829       -6.4610918574  MEMB      282             0.0000000000
     35042       282  PYPG      C312          -25.6243391810      -34.5150023996       -4.3336906228  MEMB      282             0.0000000000
     35043       282  PYPG      H12X          -26.2802260894      -35.3731615957       -4.0735048439  MEMB      282             0.0000000000
     35044       282  PYPG      H12Y          -24.6070509011      -34.6297581604       -3.9020934387  MEMB      282             0.0000000000
     35045       282  PYPG      C313          -26.2721998058      -33.2090685983       -3.6723448850  MEMB      282             0.0000000000
     35046       282  PYPG      H13X          -25.9982544919      -32.3186047107       -4.2776129233  MEMB      282             0.0000000000
     35047       282  PYPG      H13Y          -27.3830160031      -33.1955643873       -3.6873636149  MEMB      282             0.0000000000
     35048       282  PYPG      C314          -25.8250724022      -32.9674155096       -2.2205762054  MEMB      282             0.0000000000
     35049       282  PYPG      H14X          -24.7261269329      -32.8079935283       -2.1855802213  MEMB      282             0.0000000000
     35050       282  PYPG      H14Y          -26.2632997403      -31.9979167459       -1.9006543179  MEMB      282             0.0000000000
     35051       282  PYPG      C315          -26.1274853312      -34.1877045237       -1.2708757776  MEMB      282             0.0000000000
     35052       282  PYPG      H15X          -25.4249992698      -35.0178199379       -1.4983456012  MEMB      282             0.0000000000
     35053       282  PYPG      H15Y          -26.0290511286      -33.8950314063       -0.2036487739  MEMB      282             0.0000000000
     35054       282  PYPG      C316          -27.5357354134      -34.8060498055       -1.3451939748  MEMB      282             0.0000000000
     35055       282  PYPG      H16X          -27.5435832869      -35.7710912318       -0.7947793319  MEMB      282             0.0000000000
     35056       282  PYPG      H16Y          -27.8292679827      -35.0653323527       -2.3848716577  MEMB      282             0.0000000000
     35057       282  PYPG      H16Z          -28.2696283536      -34.0587504767       -0.9746998971  MEMB      282             0.0000000000
     35058       283  PMPE      N              28.0676688458      -30.3460134483      -16.9033158632  MEMB      283             0.0000000000
     35059       283  PMPE      HN1            28.2523721387      -31.2204910868      -17.4350805937  MEMB      283             0.0000000000
     35060       283  PMPE      HN2            27.9539215383      -30.4727658682      -15.8773551783  MEMB      283             0.0000000000
     35061       283  PMPE      HN3            27.1914813788      -29.8980366331      -17.2397862248  MEMB      283             0.0000000000
     35062       283  PMPE      C12            29.2834696301      -29.5285750476      -17.1721185040  MEMB      283             0.0000000000
     35063       283  PMPE      H12A           30.0679143498      -30.0051544583      -16.5461476457  MEMB      283             0.0000000000
     35064       283  PMPE      H12B           29.2154113162      -28.4972617716      -16.7645868399  MEMB      283             0.0000000000
     35065       283  PMPE      C11            29.7090019091      -29.6607941339      -18.6354974809  MEMB      283             0.0000000000
     35066       283  PMPE      H11A           30.2401723938      -30.6070519626      -18.8737725232  MEMB      283             0.0000000000
     35067       283  PMPE      H11B           30.4084005746      -28.8638186176      -18.9671485031  MEMB      283             0.0000000000
     35068       283  PMPE      P              27.7670383518      -28.3412635248      -19.9045791462  MEMB      283             0.0000000000
     35069       283  PMPE      O13            26.6222789102      -28.8151401299      -20.6853823874  MEMB      283             0.0000000000
     35070       283  PMPE      O14            28.7232333069      -27.4657658969      -20.6433301179  MEMB      283             0.0000000000
     35071       283  PMPE      O11            27.2923190331      -27.6443856139      -18.5854934757  MEMB      283             0.0000000000
     35072       283  PMPE      O12            28.5534924589      -29.6086614421      -19.4702830244  MEMB      283             0.0000000000
     35073       283  PMPE      C1             26.0567746556      -27.8933018151      -17.8408141150  MEMB      283             0.0000000000
     35074       283  PMPE      HA             25.8242013726      -28.9660701867      -17.6693543844  MEMB      283             0.0000000000
     35075       283  PMPE      HB             25.2605550258      -27.5470042646      -18.5339470589  MEMB      283             0.0000000000
     35076       283  PMPE      C2             26.0314340050      -27.0144988847      -16.6315615535  MEMB      283             0.0000000000
     35077       283  PMPE      HS             26.0362134983      -25.9661331547      -16.9992943452  MEMB      283             0.0000000000
     35078       283  PMPE      O21            27.1345814450      -27.4249486001      -15.7680579481  MEMB      283             0.0000000000
     35079       283  PMPE      C21            27.5350698200      -26.4657030063      -14.9893707620  MEMB      283             0.0000000000
     35080       283  PMPE      O22            27.0457708632      -25.3575686232      -14.9802570179  MEMB      283             0.0000000000
     35081       283  PMPE      C22            28.7717523454      -26.8821940905      -14.2172569706  MEMB      283             0.0000000000
     35082       283  PMPE      H2R            29.1426867891      -26.0369317570      -13.5989848081  MEMB      283             0.0000000000
     35083       283  PMPE      H2S            29.5476189113      -27.0930478939      -14.9839986147  MEMB      283             0.0000000000
     35084       283  PMPE      C3             24.6807923005      -27.3121958433      -15.8861472634  MEMB      283             0.0000000000
     35085       283  PMPE      HX             24.5658576067      -28.4134380570      -15.9776697549  MEMB      283             0.0000000000
     35086       283  PMPE      HY             23.7901877585      -26.8198286351      -16.3319264176  MEMB      283             0.0000000000
     35087       283  PMPE      O31            24.6654741874      -26.7663264291      -14.5665845509  MEMB      283             0.0000000000
     35088       283  PMPE      C31            24.2940216692      -27.5843876458      -13.6277760707  MEMB      283             0.0000000000
     35089       283  PMPE      O32            23.9857804301      -28.7643721071      -13.7407093871  MEMB      283             0.0000000000
     35090       283  PMPE      C32            24.2994252029      -26.8262228061      -12.2314530917  MEMB      283             0.0000000000
     35091       283  PMPE      H2X            23.2321241177      -26.6169070900      -12.0047902299  MEMB      283             0.0000000000
     35092       283  PMPE      H2Y            24.9126388192      -25.9020220989      -12.2958178797  MEMB      283             0.0000000000
     35093       283  PMPE      C23            28.4173129382      -28.0601299676      -13.2934398744  MEMB      283             0.0000000000
     35094       283  PMPE      H3R            27.7269865162      -28.7513883751      -13.8225260657  MEMB      283             0.0000000000
     35095       283  PMPE      H3S            27.9661785472      -27.7792539781      -12.3177822030  MEMB      283             0.0000000000
     35096       283  PMPE      C24            29.6755977746      -28.8683425309      -12.8794223703  MEMB      283             0.0000000000
     35097       283  PMPE      H4R            30.1301999131      -28.9976828662      -13.8848719537  MEMB      283             0.0000000000
     35098       283  PMPE      H4S            29.6081595910      -29.8425429848      -12.3496048480  MEMB      283             0.0000000000
     35099       283  PMPE      C25            30.6260974621      -28.1194543692      -12.0806219817  MEMB      283             0.0000000000
     35100       283  PMPE      H5R            31.0607469104      -27.2069585955      -12.5418730148  MEMB      283             0.0000000000
     35101       283  PMPE      H5S            31.5157255648      -28.7656375901      -11.9214677009  MEMB      283             0.0000000000
     35102       283  PMPE      C26            30.1493012623      -27.7287042328      -10.7146827706  MEMB      283             0.0000000000
     35103       283  PMPE      H6R            29.2032058384      -27.1478260971      -10.6721995648  MEMB      283             0.0000000000
     35104       283  PMPE      H6S            30.9189624876      -27.0078689681      -10.3649125327  MEMB      283             0.0000000000
     35105       283  PMPE      C27            30.1006052628      -28.9068994888       -9.7281571184  MEMB      283             0.0000000000
     35106       283  PMPE      H7R            31.0707242205      -29.4290457049       -9.8715223502  MEMB      283             0.0000000000
     35107       283  PMPE      H7S            29.2801816774      -29.6286466497       -9.9289236541  MEMB      283             0.0000000000
     35108       283  PMPE      C28            29.9663851047      -28.3958890064       -8.2642055527  MEMB      283             0.0000000000
     35109       283  PMPE      H8R            29.5273022922      -29.0651052813       -7.4937014134  MEMB      283             0.0000000000
     35110       283  PMPE      H8S            29.5344848189      -27.3777511319       -8.3699328735  MEMB      283             0.0000000000
     35111       283  PMPE      C29            31.4243886468      -28.0038150817       -7.9282592692  MEMB      283             0.0000000000
     35112       283  PMPE      H9R            31.9785394253      -27.2630593799       -8.5434989296  MEMB      283             0.0000000000
     35113       283  PMPE      C217           32.2403023645      -29.0757872599       -7.2056814456  MEMB      283             0.0000000000
     35114       283  PMPE      H17R           33.1940709258      -29.0822249910       -7.7186867222  MEMB      283             0.0000000000
     35115       283  PMPE      H17S           31.6830675675      -29.9806776089       -6.9969914325  MEMB      283             0.0000000000
     35116       283  PMPE      C210           31.7969176661      -27.7823154912       -6.5381159596  MEMB      283             0.0000000000
     35117       283  PMPE      H10R           32.6613553436      -27.0976805962       -6.4026775592  MEMB      283             0.0000000000
     35118       283  PMPE      C211           30.8487648322      -27.8877116348       -5.3374215793  MEMB      283             0.0000000000
     35119       283  PMPE      H11R           31.3656910443      -28.1936473693       -4.4028033902  MEMB      283             0.0000000000
     35120       283  PMPE      H11S           30.1909260279      -28.7628421557       -5.5264071593  MEMB      283             0.0000000000
     35121       283  PMPE      C212           30.0961320527      -26.4644456090       -5.1987823440  MEMB      283             0.0000000000
     35122       283  PMPE      H12R           29.0515122275      -26.4938087890       -5.5759138602  MEMB      283             0.0000000000
     35123       283  PMPE      H12S           30.6149100038      -25.7173200631       -5.8367432115  MEMB      283             0.0000000000
     35124       283  PMPE      C213           29.9546890120      -25.9588108802       -3.7413250016  MEMB      283             0.0000000000
     35125       283  PMPE      H13R           29.5937492663      -24.9130879454       -3.8438275856  MEMB      283             0.0000000000
     35126       283  PMPE      H13S           31.0102004284      -26.0346801154       -3.4030041153  MEMB      283             0.0000000000
     35127       283  PMPE      C214           29.0572050645      -26.9279422543       -2.9558092329  MEMB      283             0.0000000000
     35128       283  PMPE      H14R           29.6303172459      -27.3589784299       -2.1072380220  MEMB      283             0.0000000000
     35129       283  PMPE      H14S           28.7621452128      -27.8046670300       -3.5711256281  MEMB      283             0.0000000000
     35130       283  PMPE      C215           27.6869566915      -26.3362260934       -2.6141608087  MEMB      283             0.0000000000
     35131       283  PMPE      H15R           27.1198326961      -26.1311024034       -3.5472281731  MEMB      283             0.0000000000
     35132       283  PMPE      H15S           27.8948460457      -25.4024950935       -2.0491394583  MEMB      283             0.0000000000
     35133       283  PMPE      C216           26.7179461421      -27.1556958805       -1.6797721230  MEMB      283             0.0000000000
     35134       283  PMPE      H16R           25.7715018454      -26.6176593693       -1.4582301103  MEMB      283             0.0000000000
     35135       283  PMPE      H16S           26.4286383780      -28.0883629600       -2.2096343355  MEMB      283             0.0000000000
     35136       283  PMPE      H16T           27.0858453413      -27.3663698965       -0.6528405535  MEMB      283             0.0000000000
     35137       283  PMPE      C33            24.8691540140      -27.7767033126      -11.1280760628  MEMB      283             0.0000000000
     35138       283  PMPE      H3X            25.9766638369      -27.7989545678      -11.2132108291  MEMB      283             0.0000000000
     35139       283  PMPE      H3Y            24.4387401716      -28.7972444402      -11.2150290579  MEMB      283             0.0000000000
     35140       283  PMPE      C34            24.7013487617      -27.2736925474       -9.6285730707  MEMB      283             0.0000000000
     35141       283  PMPE      H4X            23.6272048194      -27.1120277069       -9.3953338325  MEMB      283             0.0000000000
     35142       283  PMPE      H4Y            25.2591590777      -26.3189848305       -9.5203981536  MEMB      283             0.0000000000
     35143       283  PMPE      C35            25.3383239800      -28.3470701522       -8.6812053266  MEMB      283             0.0000000000
     35144       283  PMPE      H5X            26.3620556398      -28.6496203856       -8.9890330426  MEMB      283             0.0000000000
     35145       283  PMPE      H5Y            24.7141156144      -29.2604996997       -8.5795618495  MEMB      283             0.0000000000
     35146       283  PMPE      C36            25.5971656706      -27.6594347322       -7.3111170951  MEMB      283             0.0000000000
     35147       283  PMPE      H6X            24.6711223693      -27.0690524174       -7.1431478413  MEMB      283             0.0000000000
     35148       283  PMPE      H6Y            26.3211567562      -26.8284499412       -7.4511967921  MEMB      283             0.0000000000
     35149       283  PMPE      C37            26.0524065512      -28.6552930969       -6.1969967277  MEMB      283             0.0000000000
     35150       283  PMPE      H7X            25.9801780721      -28.1379677553       -5.2164465687  MEMB      283             0.0000000000
     35151       283  PMPE      H7Y            27.0561604933      -28.9795960002       -6.5457473263  MEMB      283             0.0000000000
     35152       283  PMPE      C38            25.1400557754      -29.9275065922       -5.9288156780  MEMB      283             0.0000000000
     35153       283  PMPE      H8X            24.9391325604      -30.6072744010       -6.7843074355  MEMB      283             0.0000000000
     35154       283  PMPE      H8Y            24.1609191835      -29.5317943435       -5.5838167845  MEMB      283             0.0000000000
     35155       283  PMPE      C39            25.6746594551      -30.7297665814       -4.7855538379  MEMB      283             0.0000000000
     35156       283  PMPE      H9X            24.8736448681      -31.3480890756       -4.3268879819  MEMB      283             0.0000000000
     35157       283  PMPE      H9Y            26.0467593712      -29.9744924827       -4.0606921628  MEMB      283             0.0000000000
     35158       283  PMPE      C310           26.7709196038      -31.7292621977       -5.2775789106  MEMB      283             0.0000000000
     35159       283  PMPE      H10X           27.5059689019      -31.0982056325       -5.8214463834  MEMB      283             0.0000000000
     35160       283  PMPE      H10Y           26.3936956309      -32.4564645213       -6.0280459932  MEMB      283             0.0000000000
     35161       283  PMPE      C311           27.4520560854      -32.4638611174       -4.1428467952  MEMB      283             0.0000000000
     35162       283  PMPE      H11X           28.1381754737      -33.1840554423       -4.6377015516  MEMB      283             0.0000000000
     35163       283  PMPE      H11Y           26.7374892443      -33.1143789317       -3.5946310858  MEMB      283             0.0000000000
     35164       283  PMPE      C312           28.3901592503      -31.4994823510       -3.3110615339  MEMB      283             0.0000000000
     35165       283  PMPE      H12X           27.7543809711      -30.7787319807       -2.7537244708  MEMB      283             0.0000000000
     35166       283  PMPE      H12Y           29.0102873928      -30.8896124411       -4.0023077721  MEMB      283             0.0000000000
     35167       283  PMPE      C313           29.4272546009      -32.2031883229       -2.4105003916  MEMB      283             0.0000000000
     35168       283  PMPE      H13X           30.0609650295      -32.6864809206       -3.1845553233  MEMB      283             0.0000000000
     35169       283  PMPE      H13Y           28.9440491633      -33.0633384366       -1.8996442538  MEMB      283             0.0000000000
     35170       283  PMPE      C314           30.2851356591      -31.2851063381       -1.6056694342  MEMB      283             0.0000000000
     35171       283  PMPE      H14X           30.7704943551      -30.4431724181       -2.1440874966  MEMB      283             0.0000000000
     35172       283  PMPE      H14Y           31.1214172363      -31.8141932300       -1.1006725487  MEMB      283             0.0000000000
     35173       283  PMPE      C315           29.4137309083      -30.6554254361       -0.4888304891  MEMB      283             0.0000000000
     35174       283  PMPE      H15X           28.6743780310      -30.0937848654       -1.0989441945  MEMB      283             0.0000000000
     35175       283  PMPE      H15Y           29.9093224700      -29.8838426148        0.1383612860  MEMB      283             0.0000000000
     35176       283  PMPE      C316           28.7277161082      -31.7028809473        0.4348005030  MEMB      283             0.0000000000
     35177       283  PMPE      H16X           29.4988464767      -32.0048280691        1.1754142271  MEMB      283             0.0000000000
     35178       283  PMPE      H16Y           28.1775878311      -32.5553310427       -0.0179788152  MEMB      283             0.0000000000
     35179       283  PMPE      H16Z           27.9477569954      -31.2185434093        1.0604219409  MEMB      283             0.0000000000
     35180       284  PYPG      C13            25.1794829207       33.6156449956      -18.2188951748  MEMB      284             0.0000000000
     35181       284  PYPG      H13A           25.2619986857       32.7525571778      -17.5242070476  MEMB      284             0.0000000000
     35182       284  PYPG      H13B           25.9985986679       33.5447596022      -18.9661205343  MEMB      284             0.0000000000
     35183       284  PYPG      OC3            25.4673262859       34.7488467346      -17.3255047721  MEMB      284             0.0000000000
     35184       284  PYPG      HO3            26.3036529432       35.0244756040      -17.7078480942  MEMB      284             0.0000000000
     35185       284  PYPG      C12            23.8116105584       33.9303344167      -18.8287078504  MEMB      284             0.0000000000
     35186       284  PYPG      H12A           23.9929489584       34.4336929673      -19.8067291151  MEMB      284             0.0000000000
     35187       284  PYPG      OC2            23.0968465764       34.8398012516      -17.9908394741  MEMB      284             0.0000000000
     35188       284  PYPG      HO2            22.2038184141       34.8611647525      -18.3992034567  MEMB      284             0.0000000000
     35189       284  PYPG      C11            22.9515460979       32.6536405308      -19.0990054827  MEMB      284             0.0000000000
     35190       284  PYPG      H11A           21.9517455634       32.9802229507      -19.4568652448  MEMB      284             0.0000000000
     35191       284  PYPG      H11B           22.8758912018       32.2774403523      -18.0563786355  MEMB      284             0.0000000000
     35192       284  PYPG      P              23.8209671724       30.2753650541      -19.7471395290  MEMB      284             0.0000000000
     35193       284  PYPG      O13            24.5612942845       29.6411201594      -20.8532581840  MEMB      284             0.0000000000
     35194       284  PYPG      O14            22.5813350737       29.5419538451      -19.3477025543  MEMB      284             0.0000000000
     35195       284  PYPG      O11            24.7345355796       30.4605370101      -18.5233596483  MEMB      284             0.0000000000
     35196       284  PYPG      O12            23.4576994522       31.7538120049      -20.0655872857  MEMB      284             0.0000000000
     35197       284  PYPG      C1             25.4356848679       29.3629325762      -17.9713931565  MEMB      284             0.0000000000
     35198       284  PYPG      HA             26.2397188021       29.0871634888      -18.6867963109  MEMB      284             0.0000000000
     35199       284  PYPG      HB             24.7098236357       28.5398588667      -17.7981989888  MEMB      284             0.0000000000
     35200       284  PYPG      C2             25.9747442042       29.7698767557      -16.5541530097  MEMB      284             0.0000000000
     35201       284  PYPG      HS             26.3230204153       28.8054259564      -16.1265324953  MEMB      284             0.0000000000
     35202       284  PYPG      O21            24.9829338795       30.5096030804      -15.7195551705  MEMB      284             0.0000000000
     35203       284  PYPG      C21            24.5447418677       29.9055868804      -14.6451072733  MEMB      284             0.0000000000
     35204       284  PYPG      O22            25.2405274089       29.0361142754      -14.0590852456  MEMB      284             0.0000000000
     35205       284  PYPG      C22            23.1567062276       30.2726939275      -14.2075758299  MEMB      284             0.0000000000
     35206       284  PYPG      H2R            22.5562275746       29.3402483829      -14.1420638846  MEMB      284             0.0000000000
     35207       284  PYPG      H2S            22.7029874306       30.9272649258      -14.9821707339  MEMB      284             0.0000000000
     35208       284  PYPG      C3             27.2393060132       30.6614124855      -16.5929490810  MEMB      284             0.0000000000
     35209       284  PYPG      HX             26.9080340977       31.5112664956      -17.2272426180  MEMB      284             0.0000000000
     35210       284  PYPG      HY             28.0048940803       30.0944526938      -17.1645714784  MEMB      284             0.0000000000
     35211       284  PYPG      O31            27.6678103261       30.9113865624      -15.2510019473  MEMB      284             0.0000000000
     35212       284  PYPG      C31            27.3100349600       32.0154280786      -14.6921816215  MEMB      284             0.0000000000
     35213       284  PYPG      O32            26.6932484749       32.9252859883      -15.2580235247  MEMB      284             0.0000000000
     35214       284  PYPG      C32            27.3843457664       31.9318654914      -13.1256694717  MEMB      284             0.0000000000
     35215       284  PYPG      H2X            26.8167039650       31.0175676260      -12.8496928089  MEMB      284             0.0000000000
     35216       284  PYPG      H2Y            28.4799180250       31.9479797180      -12.9418687004  MEMB      284             0.0000000000
     35217       284  PYPG      C23            23.2821443368       31.2336385879      -13.0329580890  MEMB      284             0.0000000000
     35218       284  PYPG      H3R            24.0330613728       30.9088306082      -12.2813304340  MEMB      284             0.0000000000
     35219       284  PYPG      H3S            22.3282238709       31.0771285111      -12.4853624866  MEMB      284             0.0000000000
     35220       284  PYPG      C24            23.3148634118       32.7408042861      -13.4775894786  MEMB      284             0.0000000000
     35221       284  PYPG      H4R            22.4931370765       32.9282789764      -14.2014266802  MEMB      284             0.0000000000
     35222       284  PYPG      H4S            24.2886317054       32.9831341217      -13.9544255413  MEMB      284             0.0000000000
     35223       284  PYPG      C25            23.0236686237       33.6953483118      -12.3595136268  MEMB      284             0.0000000000
     35224       284  PYPG      H5R            23.4354697358       34.7211027321      -12.4716237283  MEMB      284             0.0000000000
     35225       284  PYPG      H5S            23.4119789380       33.4139287557      -11.3573464144  MEMB      284             0.0000000000
     35226       284  PYPG      C26            21.5300389057       33.8959028722      -12.0594550691  MEMB      284             0.0000000000
     35227       284  PYPG      H6R            21.0978825226       32.8818628675      -11.9205858257  MEMB      284             0.0000000000
     35228       284  PYPG      H6S            21.0266407355       34.3410396782      -12.9441947649  MEMB      284             0.0000000000
     35229       284  PYPG      C27            21.1939572249       34.7126105972      -10.8453984441  MEMB      284             0.0000000000
     35230       284  PYPG      H7R            21.4796343637       35.7835048749      -10.7686218979  MEMB      284             0.0000000000
     35231       284  PYPG      H7S            21.7157515786       34.1758399486      -10.0244668237  MEMB      284             0.0000000000
     35232       284  PYPG      C28            19.6335865008       34.6601131477      -10.5114620221  MEMB      284             0.0000000000
     35233       284  PYPG      H8R            19.3503447470       33.5870974025      -10.5637314523  MEMB      284             0.0000000000
     35234       284  PYPG      H8S            19.2129401825       35.1764205492      -11.4007338835  MEMB      284             0.0000000000
     35235       284  PYPG      C29            19.2242714434       35.3441675539       -9.2283874351  MEMB      284             0.0000000000
     35236       284  PYPG      H9R            18.8274385892       36.3560092953       -9.3977991641  MEMB      284             0.0000000000
     35237       284  PYPG      C210           19.4533529586       34.8902562958       -7.9577109090  MEMB      284             0.0000000000
     35238       284  PYPG      H10R           19.1652321243       35.5396956025       -7.1179408285  MEMB      284             0.0000000000
     35239       284  PYPG      C211           20.1601455869       33.5704492062       -7.6524654152  MEMB      284             0.0000000000
     35240       284  PYPG      H11R           20.3710466094       33.0223256613       -8.5955461072  MEMB      284             0.0000000000
     35241       284  PYPG      H11S           19.4278285861       32.9673990641       -7.0742241059  MEMB      284             0.0000000000
     35242       284  PYPG      C212           21.5366078927       33.7826727183       -6.8929148515  MEMB      284             0.0000000000
     35243       284  PYPG      H12R           22.3385403704       34.2435274933       -7.5084136112  MEMB      284             0.0000000000
     35244       284  PYPG      H12S           21.9984360036       32.8067065605       -6.6311403199  MEMB      284             0.0000000000
     35245       284  PYPG      C213           21.3787928599       34.4201673491       -5.4888618195  MEMB      284             0.0000000000
     35246       284  PYPG      H13R           20.5907338483       33.8551349892       -4.9466235162  MEMB      284             0.0000000000
     35247       284  PYPG      H13S           21.0159029018       35.4525593267       -5.6806917292  MEMB      284             0.0000000000
     35248       284  PYPG      C214           22.6618394167       34.6257759777       -4.6791562706  MEMB      284             0.0000000000
     35249       284  PYPG      H14R           23.1084102774       33.6239328544       -4.5025046901  MEMB      284             0.0000000000
     35250       284  PYPG      H14S           23.3494496926       35.2935820700       -5.2408928435  MEMB      284             0.0000000000
     35251       284  PYPG      C215           22.3911340611       35.2247684894       -3.2593237597  MEMB      284             0.0000000000
     35252       284  PYPG      H15R           23.3896126568       35.5979425244       -2.9461104454  MEMB      284             0.0000000000
     35253       284  PYPG      H15S           22.1160697746       34.5260547188       -2.4405079772  MEMB      284             0.0000000000
     35254       284  PYPG      C216           21.4745451974       36.4236452071       -3.2473795987  MEMB      284             0.0000000000
     35255       284  PYPG      H16R           21.3742536315       36.7152128876       -2.1800238026  MEMB      284             0.0000000000
     35256       284  PYPG      H16S           20.4459223579       36.2690476384       -3.6377083598  MEMB      284             0.0000000000
     35257       284  PYPG      H16T           21.9113890544       37.2864258355       -3.7942788720  MEMB      284             0.0000000000
     35258       284  PYPG      C33            26.7720740289       33.2490010524      -12.5455726695  MEMB      284             0.0000000000
     35259       284  PYPG      H3X            25.6752394125       33.0835329234      -12.6079859294  MEMB      284             0.0000000000
     35260       284  PYPG      H3Y            27.1174601376       34.1224979572      -13.1388959271  MEMB      284             0.0000000000
     35261       284  PYPG      C34            27.0707553862       33.5665630645      -11.0877411489  MEMB      284             0.0000000000
     35262       284  PYPG      H4X            26.9126323554       34.6577753730      -10.9514531108  MEMB      284             0.0000000000
     35263       284  PYPG      H4Y            28.1482664632       33.3760054993      -10.8954433108  MEMB      284             0.0000000000
     35264       284  PYPG      C35            26.1101144820       32.6328656983      -10.1977926051  MEMB      284             0.0000000000
     35265       284  PYPG      H5X            25.5636277977       31.8154682769      -10.7150302240  MEMB      284             0.0000000000
     35266       284  PYPG      H5Y            25.3280157063       33.1532091362       -9.6045928257  MEMB      284             0.0000000000
     35267       284  PYPG      C36            26.8363193144       31.8389515514       -9.1592008831  MEMB      284             0.0000000000
     35268       284  PYPG      H6X            27.5964539215       31.1276017344       -9.5471412097  MEMB      284             0.0000000000
     35269       284  PYPG      H6Y            26.1137857037       31.1369454339       -8.6907423489  MEMB      284             0.0000000000
     35270       284  PYPG      C37            27.3819761291       32.6776360941       -7.9655446136  MEMB      284             0.0000000000
     35271       284  PYPG      H7X            27.7965556359       31.8575553437       -7.3411145418  MEMB      284             0.0000000000
     35272       284  PYPG      H7Y            28.2939748372       33.2793789975       -8.1667530474  MEMB      284             0.0000000000
     35273       284  PYPG      C38            26.3126935007       33.2494078305       -7.0223237236  MEMB      284             0.0000000000
     35274       284  PYPG      H8X            26.4389526077       32.7184517866       -6.0546126291  MEMB      284             0.0000000000
     35275       284  PYPG      H8Y            25.3430467045       33.0600807495       -7.5305177846  MEMB      284             0.0000000000
     35276       284  PYPG      C39            26.5380477765       34.7779281199       -6.7349786397  MEMB      284             0.0000000000
     35277       284  PYPG      H9X            25.5812829478       35.2022127326       -6.3622796829  MEMB      284             0.0000000000
     35278       284  PYPG      H9Y            26.8318579918       35.3576639371       -7.6360355158  MEMB      284             0.0000000000
     35279       284  PYPG      C310           27.6273440112       35.1508600179       -5.6248178474  MEMB      284             0.0000000000
     35280       284  PYPG      H10X           27.6674938553       36.2469223614       -5.4477393233  MEMB      284             0.0000000000
     35281       284  PYPG      H10Y           28.6344035803       34.8461883930       -5.9816474292  MEMB      284             0.0000000000
     35282       284  PYPG      C311           27.5642263054       34.4820386817       -4.2229691329  MEMB      284             0.0000000000
     35283       284  PYPG      H11X           28.5022973370       34.8072003357       -3.7243577189  MEMB      284             0.0000000000
     35284       284  PYPG      H11Y           27.6016237360       33.3728833686       -4.2749003992  MEMB      284             0.0000000000
     35285       284  PYPG      C312           26.4053421804       35.0547109137       -3.4264525403  MEMB      284             0.0000000000
     35286       284  PYPG      H12X           26.5273424767       36.1582349750       -3.4673412011  MEMB      284             0.0000000000
     35287       284  PYPG      H12Y           25.4944488481       34.7016745774       -3.9555642313  MEMB      284             0.0000000000
     35288       284  PYPG      C313           26.4237024696       34.6054906905       -1.9262581969  MEMB      284             0.0000000000
     35289       284  PYPG      H13X           27.1513778471       35.2873553911       -1.4364913249  MEMB      284             0.0000000000
     35290       284  PYPG      H13Y           25.4159266816       34.8824974581       -1.5494604896  MEMB      284             0.0000000000
     35291       284  PYPG      C314           26.7242128631       33.1171474096       -1.5703627652  MEMB      284             0.0000000000
     35292       284  PYPG      H14X           26.1973775695       32.4959947568       -2.3259648737  MEMB      284             0.0000000000
     35293       284  PYPG      H14Y           27.8253187036       33.0814899559       -1.7139438115  MEMB      284             0.0000000000
     35294       284  PYPG      C315           26.4757718657       32.6699429309       -0.0625423663  MEMB      284             0.0000000000
     35295       284  PYPG      H15X           27.1381442491       31.7844608607        0.0447226593  MEMB      284             0.0000000000
     35296       284  PYPG      H15Y           26.9277314918       33.3929014669        0.6497658583  MEMB      284             0.0000000000
     35297       284  PYPG      C316           25.0459188524       32.2181527969        0.3195931134  MEMB      284             0.0000000000
     35298       284  PYPG      H16X           25.1161114305       31.8204161788        1.3545798308  MEMB      284             0.0000000000
     35299       284  PYPG      H16Y           24.6486044081       31.4344417284       -0.3603049887  MEMB      284             0.0000000000
     35300       284  PYPG      H16Z           24.3283287787       33.0520738187        0.1647983544  MEMB      284             0.0000000000
     35301       285  PVCL2     C3             10.6769977128       39.8861471488      -19.7628833906  MEMB      285             0.0000000000
     35302       285  PVCL2     HG31            9.7575508400       39.8255931238      -19.1421808248  MEMB      285             0.0000000000
     35303       285  PVCL2     HG32           11.2578600667       38.9569454931      -19.5798417797  MEMB      285             0.0000000000
     35304       285  PVCL2     P3             11.3945119688       41.7092077978      -17.9540746456  MEMB      285             0.0000000000
     35305       285  PVCL2     OP33           10.1094364659       42.4274864291      -17.8308725742  MEMB      285             0.0000000000
     35306       285  PVCL2     OP34           12.6746745771       42.4378921448      -17.8837003441  MEMB      285             0.0000000000
     35307       285  PVCL2     OP31           11.4194591755       40.9425982256      -19.3688512583  MEMB      285             0.0000000000
     35308       285  PVCL2     OP32           11.4270345984       40.4020686482      -17.0661402396  MEMB      285             0.0000000000
     35309       285  PVCL2     C31            12.2357489240       40.4360244475      -15.8944967917  MEMB      285             0.0000000000
     35310       285  PVCL2     H31J           12.8582569790       41.3333219187      -15.6903839801  MEMB      285             0.0000000000
     35311       285  PVCL2     H31K           11.6118151016       40.2975386669      -14.9857340338  MEMB      285             0.0000000000
     35312       285  PVCL2     C2             10.2311904355       39.8840275597      -21.2823385470  MEMB      285             0.0000000000
     35313       285  PVCL2     HG22           11.1184861022       39.9714475732      -21.9452000018  MEMB      285             0.0000000000
     35314       285  PVCL2     OG12            9.7459491798       38.5468845920      -21.6916312037  MEMB      285             0.0000000000
     35315       285  PVCL2     HO12           10.3544365012       37.9134380903      -21.3042181849  MEMB      285             0.0000000000
     35316       285  PVCL2     C1              9.2350413935       40.9733576085      -21.7292331308  MEMB      285             0.0000000000
     35317       285  PVCL2     HG11            9.0652857036       40.8623923817      -22.8215659259  MEMB      285             0.0000000000
     35318       285  PVCL2     HG12            9.5774799508       42.0301910936      -21.7165947155  MEMB      285             0.0000000000
     35319       285  PVCL2     P1              6.7755686718       41.5517829007      -21.4698618841  MEMB      285             0.0000000000
     35320       285  PVCL2     OP13            6.7138451402       43.0275345437      -21.1650003531  MEMB      285             0.0000000000
     35321       285  PVCL2     OP14            6.6415965286       41.1896336586      -22.8510275561  MEMB      285             0.0000000000
     35322       285  PVCL2     OP11            8.0722991663       40.8637941775      -20.9078315922  MEMB      285             0.0000000000
     35323       285  PVCL2     OP12            5.6887076735       40.7638800477      -20.7116975771  MEMB      285             0.0000000000
     35324       285  PVCL2     C11             5.8089912583       39.3751842212      -20.3200911507  MEMB      285             0.0000000000
     35325       285  PVCL2     H11J            6.6168793726       38.8451520630      -20.8684557221  MEMB      285             0.0000000000
     35326       285  PVCL2     H11K            4.8731626565       38.8453787951      -20.5991112802  MEMB      285             0.0000000000
     35327       285  PVCL2     C12             5.9448457242       39.1853577789      -18.7865417890  MEMB      285             0.0000000000
     35328       285  PVCL2     H12J            4.9164210099       39.0525987480      -18.3877453828  MEMB      285             0.0000000000
     35329       285  PVCL2     O12             6.6550971559       40.2889741314      -18.2223167863  MEMB      285             0.0000000000
     35330       285  PVCL2     CA1             5.8542930147       41.2806673753      -17.7996806160  MEMB      285             0.0000000000
     35331       285  PVCL2     OA1             4.6513495956       41.3510049884      -17.8521088438  MEMB      285             0.0000000000
     35332       285  PVCL2     CA2             6.7588180772       42.4668256354      -17.3230321833  MEMB      285             0.0000000000
     35333       285  PVCL2     H2A             6.9878339298       43.0872442144      -18.2157547308  MEMB      285             0.0000000000
     35334       285  PVCL2     H2B             7.7272101991       42.1039567078      -16.9169977076  MEMB      285             0.0000000000
     35335       285  PVCL2     C13             6.7167254137       37.8366833486      -18.2480674465  MEMB      285             0.0000000000
     35336       285  PVCL2     H13J            7.6526562832       37.6652315182      -18.8216165659  MEMB      285             0.0000000000
     35337       285  PVCL2     H13K            6.0837901851       36.9831074279      -18.5722934942  MEMB      285             0.0000000000
     35338       285  PVCL2     O13             6.8752385087       37.8080902197      -16.8444747415  MEMB      285             0.0000000000
     35339       285  PVCL2     CB1             8.1659690173       37.9795813141      -16.2962925137  MEMB      285             0.0000000000
     35340       285  PVCL2     OB1             9.1649065107       37.8853738156      -16.9020785067  MEMB      285             0.0000000000
     35341       285  PVCL2     CB2             8.0531339088       38.4159769754      -14.8500963239  MEMB      285             0.0000000000
     35342       285  PVCL2     H2D             8.0691417476       37.4999149611      -14.2216891499  MEMB      285             0.0000000000
     35343       285  PVCL2     H2E             7.1131686396       38.9702333621      -14.6413234907  MEMB      285             0.0000000000
     35344       285  PVCL2     C32            13.2892638591       39.3082806572      -16.1640570209  MEMB      285             0.0000000000
     35345       285  PVCL2     H32J           13.8279564437       39.5452190995      -17.1063901559  MEMB      285             0.0000000000
     35346       285  PVCL2     O32            12.5377115013       38.0792268380      -16.1854516309  MEMB      285             0.0000000000
     35347       285  PVCL2     CC1            13.0902396354       37.0587912310      -16.8353448426  MEMB      285             0.0000000000
     35348       285  PVCL2     OC1            14.2565772103       36.9746041671      -17.2269390355  MEMB      285             0.0000000000
     35349       285  PVCL2     CC2            12.1551025515       35.8483322611      -16.8652370198  MEMB      285             0.0000000000
     35350       285  PVCL2     H2R            12.5202808977       35.1104062444      -17.6111800654  MEMB      285             0.0000000000
     35351       285  PVCL2     H2S            11.2029248776       36.1681958867      -17.3399641341  MEMB      285             0.0000000000
     35352       285  PVCL2     C33            14.4336373742       39.2915228340      -15.0953493097  MEMB      285             0.0000000000
     35353       285  PVCL2     H33J           15.2731291108       38.5995305572      -15.3205635199  MEMB      285             0.0000000000
     35354       285  PVCL2     H33K           14.8822417608       40.2788510143      -14.8539808317  MEMB      285             0.0000000000
     35355       285  PVCL2     O33            13.8912046117       38.9594535013      -13.7892888377  MEMB      285             0.0000000000
     35356       285  PVCL2     CD1            14.2119873827       37.8785480447      -13.2226805587  MEMB      285             0.0000000000
     35357       285  PVCL2     OD1            14.9846545076       37.0346290163      -13.5778783046  MEMB      285             0.0000000000
     35358       285  PVCL2     CD2            13.5124137611       37.9145021344      -11.8481679357  MEMB      285             0.0000000000
     35359       285  PVCL2     H2X            12.4328675276       38.1704307916      -11.7898454811  MEMB      285             0.0000000000
     35360       285  PVCL2     H2Y            13.9575519280       38.6258960596      -11.1200943229  MEMB      285             0.0000000000
     35361       285  PVCL2     CA3             6.0414341380       43.3754255609      -16.3285233384  MEMB      285             0.0000000000
     35362       285  PVCL2     H3A             5.1093508083       43.7653897568      -16.7905513428  MEMB      285             0.0000000000
     35363       285  PVCL2     H3B             6.5831942473       44.2854902941      -15.9929657436  MEMB      285             0.0000000000
     35364       285  PVCL2     CA4             5.7887650640       42.5735680215      -15.0463241507  MEMB      285             0.0000000000
     35365       285  PVCL2     H4A             6.0860656150       41.5044844751      -15.1010384911  MEMB      285             0.0000000000
     35366       285  PVCL2     H4B             4.7021398301       42.5497498349      -14.8161076460  MEMB      285             0.0000000000
     35367       285  PVCL2     CA5             6.5601128824       43.1633351045      -13.8501649331  MEMB      285             0.0000000000
     35368       285  PVCL2     H5A             6.6359353160       44.2702056675      -13.9085544126  MEMB      285             0.0000000000
     35369       285  PVCL2     H5B             7.5981532303       42.7735401041      -13.9198275141  MEMB      285             0.0000000000
     35370       285  PVCL2     CA6             6.0147129855       42.8061278219      -12.4513974970  MEMB      285             0.0000000000
     35371       285  PVCL2     H6A             6.7520149562       43.0489088385      -11.6565616212  MEMB      285             0.0000000000
     35372       285  PVCL2     H6B             5.9807001069       41.6963015532      -12.4133230737  MEMB      285             0.0000000000
     35373       285  PVCL2     CA7             4.6304352517       43.4597325361      -12.0428936791  MEMB      285             0.0000000000
     35374       285  PVCL2     H7A             3.9247046858       43.1508119927      -12.8434145022  MEMB      285             0.0000000000
     35375       285  PVCL2     H7B             4.8643361517       44.5437615221      -12.1099213926  MEMB      285             0.0000000000
     35376       285  PVCL2     CA8             4.1846292228       43.0087675797      -10.6458807214  MEMB      285             0.0000000000
     35377       285  PVCL2     H8A             4.8863212895       42.2237796400      -10.2912777157  MEMB      285             0.0000000000
     35378       285  PVCL2     H8B             3.1485438389       42.6268773593      -10.7683862538  MEMB      285             0.0000000000
     35379       285  PVCL2     CA9             4.1892196097       44.0556412745       -9.5571270828  MEMB      285             0.0000000000
     35380       285  PVCL2     H9A             3.3906785066       44.8061245420       -9.7399615265  MEMB      285             0.0000000000
     35381       285  PVCL2     H9B             5.1412878496       44.6125500574       -9.6903190169  MEMB      285             0.0000000000
     35382       285  PVCL2     CA10            4.2198817506       43.5882411351       -8.1231593380  MEMB      285             0.0000000000
     35383       285  PVCL2     H10A            4.3539739537       44.5154116731       -7.5259201193  MEMB      285             0.0000000000
     35384       285  PVCL2     H10B            5.0658278201       42.8923080918       -7.9377577632  MEMB      285             0.0000000000
     35385       285  PVCL2     CA11            2.9692910175       42.9018264827       -7.7150500976  MEMB      285             0.0000000000
     35386       285  PVCL2     H11A            2.1036902997       43.5756569821       -7.6332687268  MEMB      285             0.0000000000
     35387       285  PVCL2     CA12            2.7376493995       41.5534827240       -7.4582189476  MEMB      285             0.0000000000
     35388       285  PVCL2     H12A            1.7035699629       41.3135652178       -7.1699154853  MEMB      285             0.0000000000
     35389       285  PVCL2     CA13            3.7093061826       40.3874161586       -7.4775599137  MEMB      285             0.0000000000
     35390       285  PVCL2     H13A            4.6934540262       40.7724152545       -7.8204152710  MEMB      285             0.0000000000
     35391       285  PVCL2     H13B            3.3577347191       39.4917553052       -8.0329962237  MEMB      285             0.0000000000
     35392       285  PVCL2     CA14            3.9781175096       39.9298813728       -6.0044443357  MEMB      285             0.0000000000
     35393       285  PVCL2     H14A            4.5743207882       39.0076344254       -5.8361491412  MEMB      285             0.0000000000
     35394       285  PVCL2     H14B            3.0197883986       39.9581611257       -5.4430827611  MEMB      285             0.0000000000
     35395       285  PVCL2     CA15            4.9753126137       40.9770137652       -5.3479475268  MEMB      285             0.0000000000
     35396       285  PVCL2     H15A            4.7165125482       41.1351928852       -4.2791523832  MEMB      285             0.0000000000
     35397       285  PVCL2     H15B            4.9113762946       41.9079507490       -5.9509314502  MEMB      285             0.0000000000
     35398       285  PVCL2     CA16            6.4466608546       40.6071393195       -5.2886757231  MEMB      285             0.0000000000
     35399       285  PVCL2     H16A            7.1310085945       41.4736139043       -5.1653427609  MEMB      285             0.0000000000
     35400       285  PVCL2     H16B            6.7918004115       40.1572225377       -6.2440682335  MEMB      285             0.0000000000
     35401       285  PVCL2     CA17            6.7045558598       39.5847791871       -4.1624893841  MEMB      285             0.0000000000
     35402       285  PVCL2     H17A            7.4756802010       38.8606155956       -4.5020120471  MEMB      285             0.0000000000
     35403       285  PVCL2     H17B            5.8177355677       38.9518746546       -3.9449968137  MEMB      285             0.0000000000
     35404       285  PVCL2     CA18            7.2482130243       40.1203760784       -2.8384089346  MEMB      285             0.0000000000
     35405       285  PVCL2     H18A            6.6297810702       40.9668546821       -2.4705275636  MEMB      285             0.0000000000
     35406       285  PVCL2     H18B            8.3206105826       40.4064672275       -2.8877687221  MEMB      285             0.0000000000
     35407       285  PVCL2     H18C            7.1927949723       39.2588817943       -2.1390688828  MEMB      285             0.0000000000
     35408       285  PVCL2     CB3             9.2471444685       39.2831497975      -14.4667728350  MEMB      285             0.0000000000
     35409       285  PVCL2     H3D             9.2179528484       39.9693682933      -15.3400269711  MEMB      285             0.0000000000
     35410       285  PVCL2     H3E            10.1801388568       38.7067548897      -14.6445693038  MEMB      285             0.0000000000
     35411       285  PVCL2     CB4             9.1125264398       40.0382602096      -13.1794552100  MEMB      285             0.0000000000
     35412       285  PVCL2     H4D             8.2609924753       40.7479517660      -13.2539459702  MEMB      285             0.0000000000
     35413       285  PVCL2     H4E            10.0548952428       40.6050136925      -13.0211748079  MEMB      285             0.0000000000
     35414       285  PVCL2     CB5             8.8174896309       39.1023100830      -11.9787428939  MEMB      285             0.0000000000
     35415       285  PVCL2     H5D             9.2075704831       38.0721628459      -12.1234995812  MEMB      285             0.0000000000
     35416       285  PVCL2     H5E             7.7297195564       38.9381670200      -11.8233908985  MEMB      285             0.0000000000
     35417       285  PVCL2     CB6             9.3625246336       39.6345898677      -10.6567440229  MEMB      285             0.0000000000
     35418       285  PVCL2     H6D            10.2714605007       40.1906513379      -10.9713105590  MEMB      285             0.0000000000
     35419       285  PVCL2     H6E             9.6806340499       38.7877042766      -10.0118309575  MEMB      285             0.0000000000
     35420       285  PVCL2     CB7             8.4064086936       40.5019551790       -9.9000433262  MEMB      285             0.0000000000
     35421       285  PVCL2     H7D             7.4370558751       39.9593941073       -9.9174684744  MEMB      285             0.0000000000
     35422       285  PVCL2     H7E             8.3030813979       41.4596582258      -10.4536220506  MEMB      285             0.0000000000
     35423       285  PVCL2     CB8             8.8899688019       40.7481266024       -8.4755638123  MEMB      285             0.0000000000
     35424       285  PVCL2     H8D             9.1387887332       39.7553947622       -8.0432524004  MEMB      285             0.0000000000
     35425       285  PVCL2     H8E             8.0882309152       41.1805491460       -7.8395228443  MEMB      285             0.0000000000
     35426       285  PVCL2     CB9            10.0277949469       41.7463034875       -8.3421310623  MEMB      285             0.0000000000
     35427       285  PVCL2     H9D            10.0034631798       42.6929792737       -8.9231076664  MEMB      285             0.0000000000
     35428       285  PVCL2     H9E            10.8986116225       41.2507151785       -8.8221226418  MEMB      285             0.0000000000
     35429       285  PVCL2     CB10           10.5251018708       42.1486931444       -6.9935247617  MEMB      285             0.0000000000
     35430       285  PVCL2     H10D           11.5769514674       42.4583489552       -7.1725409849  MEMB      285             0.0000000000
     35431       285  PVCL2     H10E           10.5114094174       41.2558343140       -6.3325131120  MEMB      285             0.0000000000
     35432       285  PVCL2     CB11            9.7788058427       43.4098738937       -6.5032964566  MEMB      285             0.0000000000
     35433       285  PVCL2     H11D            8.7626955013       43.0600251779       -6.2214331654  MEMB      285             0.0000000000
     35434       285  PVCL2     H11E            9.7136472577       44.1610454847       -7.3192715904  MEMB      285             0.0000000000
     35435       285  PVCL2     CB12           10.4264660287       44.0783109206       -5.2881410411  MEMB      285             0.0000000000
     35436       285  PVCL2     H12D            9.8150661302       44.9505678578       -4.9724203650  MEMB      285             0.0000000000
     35437       285  PVCL2     H12E           11.4444709785       44.4089679868       -5.5858868523  MEMB      285             0.0000000000
     35438       285  PVCL2     CB13           10.5820279983       43.1660915363       -4.0944272013  MEMB      285             0.0000000000
     35439       285  PVCL2     H13D           11.4811825440       42.5673692386       -4.3539913702  MEMB      285             0.0000000000
     35440       285  PVCL2     H13E            9.7179076642       42.5031078569       -3.8751797370  MEMB      285             0.0000000000
     35441       285  PVCL2     CB14           10.7738431241       43.9797867982       -2.7856349783  MEMB      285             0.0000000000
     35442       285  PVCL2     H14D           10.0915765653       44.8564140617       -2.7667290952  MEMB      285             0.0000000000
     35443       285  PVCL2     H14E           11.7199000270       44.5547883786       -2.8787531398  MEMB      285             0.0000000000
     35444       285  PVCL2     CB15           10.4984890860       43.2732431476       -1.4176900320  MEMB      285             0.0000000000
     35445       285  PVCL2     H15D           11.1056458827       43.7669212832       -0.6290433741  MEMB      285             0.0000000000
     35446       285  PVCL2     H15E           10.7793964069       42.2134235563       -1.5971187318  MEMB      285             0.0000000000
     35447       285  PVCL2     CB16            8.9994588471       43.2723709478       -1.1541201888  MEMB      285             0.0000000000
     35448       285  PVCL2     H16D            8.8168696753       42.5767457913       -0.3073101137  MEMB      285             0.0000000000
     35449       285  PVCL2     H16E            8.4413112351       42.8800000881       -2.0309524906  MEMB      285             0.0000000000
     35450       285  PVCL2     H16F            8.6762762127       44.2871404436       -0.8377081662  MEMB      285             0.0000000000
     35451       285  PVCL2     CC3            12.0579412464       35.2223045186      -15.4031873804  MEMB      285             0.0000000000
     35452       285  PVCL2     H3R            11.7751027389       36.0624828659      -14.7335432446  MEMB      285             0.0000000000
     35453       285  PVCL2     H3S            13.0714283647       34.8559283488      -15.1331254635  MEMB      285             0.0000000000
     35454       285  PVCL2     CC4            11.0956660556       34.0326307910      -15.1996748827  MEMB      285             0.0000000000
     35455       285  PVCL2     H4R            11.5636799727       33.1392640567      -14.7336496606  MEMB      285             0.0000000000
     35456       285  PVCL2     H4S            10.7566556653       33.6542579336      -16.1877167026  MEMB      285             0.0000000000
     35457       285  PVCL2     CC5             9.9737614001       34.5314110136      -14.2279415895  MEMB      285             0.0000000000
     35458       285  PVCL2     H5R             9.6935048411       35.5543589887      -14.5586293149  MEMB      285             0.0000000000
     35459       285  PVCL2     H5S            10.3842010855       34.7247107201      -13.2137937797  MEMB      285             0.0000000000
     35460       285  PVCL2     CC6             8.6984916856       33.5849407107      -14.2200783710  MEMB      285             0.0000000000
     35461       285  PVCL2     H6R             8.8850451739       32.6137567975      -13.7137976361  MEMB      285             0.0000000000
     35462       285  PVCL2     H6S             8.4391482667       33.3787449021      -15.2805239967  MEMB      285             0.0000000000
     35463       285  PVCL2     CC7             7.4823407770       34.2714077698      -13.5510040503  MEMB      285             0.0000000000
     35464       285  PVCL2     H7R             6.5608603327       33.7370452765      -13.8666792506  MEMB      285             0.0000000000
     35465       285  PVCL2     H7S             7.4704438107       35.2542117857      -14.0689582635  MEMB      285             0.0000000000
     35466       285  PVCL2     CC8             7.5814531856       34.5834933376      -12.0321688965  MEMB      285             0.0000000000
     35467       285  PVCL2     H8R             6.5463357898       34.8625857542      -11.7406898066  MEMB      285             0.0000000000
     35468       285  PVCL2     H8S             8.3087069366       35.4163488011      -11.9236587471  MEMB      285             0.0000000000
     35469       285  PVCL2     CC9             8.0060737800       33.3551454846      -11.2245846246  MEMB      285             0.0000000000
     35470       285  PVCL2     H9R             8.9998834433       33.0703456417      -11.6314654485  MEMB      285             0.0000000000
     35471       285  PVCL2     H9S             7.2812322892       32.5271681460      -11.3774882451  MEMB      285             0.0000000000
     35472       285  PVCL2     CC10            8.0734477250       33.6259531417       -9.6779854723  MEMB      285             0.0000000000
     35473       285  PVCL2     H10R            8.6891567122       32.8005205909       -9.2609905326  MEMB      285             0.0000000000
     35474       285  PVCL2     H10S            7.0392001254       33.5905546386       -9.2737586080  MEMB      285             0.0000000000
     35475       285  PVCL2     CC11            8.9494997437       34.7806119504       -9.2602542158  MEMB      285             0.0000000000
     35476       285  PVCL2     H11R           10.0185713632       34.7013927345       -9.5068511766  MEMB      285             0.0000000000
     35477       285  PVCL2     CC12            8.6038064270       36.0150622040       -8.8548778573  MEMB      285             0.0000000000
     35478       285  PVCL2     H12R            9.4106634424       36.7230453038       -8.6145830281  MEMB      285             0.0000000000
     35479       285  PVCL2     CC13            7.1570034405       36.4860091402       -8.7611483826  MEMB      285             0.0000000000
     35480       285  PVCL2     H13R            6.4829978918       35.7191778697       -9.1993350569  MEMB      285             0.0000000000
     35481       285  PVCL2     H13S            7.0971548661       37.4952904472       -9.2216812091  MEMB      285             0.0000000000
     35482       285  PVCL2     CC14            6.7340687527       36.6511895181       -7.3247997675  MEMB      285             0.0000000000
     35483       285  PVCL2     H14R            5.7289732695       37.1232290516       -7.2889830727  MEMB      285             0.0000000000
     35484       285  PVCL2     H14S            7.4246265371       37.2959355072       -6.7402024424  MEMB      285             0.0000000000
     35485       285  PVCL2     CC15            6.4886184070       35.3050532875       -6.5510623702  MEMB      285             0.0000000000
     35486       285  PVCL2     H15R            7.4918870941       34.8798455544       -6.3343337405  MEMB      285             0.0000000000
     35487       285  PVCL2     H15S            5.9706832673       34.5889390477       -7.2242971230  MEMB      285             0.0000000000
     35488       285  PVCL2     CC16            5.7264844928       35.5590926067       -5.2643826962  MEMB      285             0.0000000000
     35489       285  PVCL2     H16R            4.6811313750       35.8566528972       -5.4946346761  MEMB      285             0.0000000000
     35490       285  PVCL2     H16S            6.1738800861       36.3937605408       -4.6834463099  MEMB      285             0.0000000000
     35491       285  PVCL2     CC17            5.8112139986       34.2826188528       -4.3558717371  MEMB      285             0.0000000000
     35492       285  PVCL2     H17R            6.8638300628       34.1029202826       -4.0492317325  MEMB      285             0.0000000000
     35493       285  PVCL2     H17S            5.6861504328       33.4425384721       -5.0720737101  MEMB      285             0.0000000000
     35494       285  PVCL2     CC18            4.9033498192       34.6018442365       -3.2464079583  MEMB      285             0.0000000000
     35495       285  PVCL2     H18R            3.8809864326       34.6983388695       -3.6704178125  MEMB      285             0.0000000000
     35496       285  PVCL2     H18S            5.1146101383       35.5749307350       -2.7536682720  MEMB      285             0.0000000000
     35497       285  PVCL2     H18T            5.0412000638       33.7890512302       -2.5016356082  MEMB      285             0.0000000000
     35498       285  PVCL2     CD3            13.6544954869       36.5207294692      -11.1508836268  MEMB      285             0.0000000000
     35499       285  PVCL2     H3X            14.5238636264       36.6587170961      -10.4730350958  MEMB      285             0.0000000000
     35500       285  PVCL2     H3Y            13.8570441221       35.6319146566      -11.7859457781  MEMB      285             0.0000000000
     35501       285  PVCL2     CD4            12.4099858852       36.3276854256      -10.2233492866  MEMB      285             0.0000000000
     35502       285  PVCL2     H4X            11.6874288960       35.7012294916      -10.7888444075  MEMB      285             0.0000000000
     35503       285  PVCL2     H4Y            11.9984797731       37.3051295406       -9.8923108164  MEMB      285             0.0000000000
     35504       285  PVCL2     CD5            12.7482460571       35.5985753141       -8.8567643829  MEMB      285             0.0000000000
     35505       285  PVCL2     H5X            13.2246305220       34.6203507082       -9.0813874312  MEMB      285             0.0000000000
     35506       285  PVCL2     H5Y            11.8132873902       35.4737210519       -8.2697512691  MEMB      285             0.0000000000
     35507       285  PVCL2     CD6            13.6059068614       36.5977833121       -8.0603754538  MEMB      285             0.0000000000
     35508       285  PVCL2     H6X            14.3864498555       37.1237176345       -8.6506869408  MEMB      285             0.0000000000
     35509       285  PVCL2     H6Y            14.2043312874       35.9563560160       -7.3786274126  MEMB      285             0.0000000000
     35510       285  PVCL2     CD7            12.8256471577       37.7316475664       -7.3228604891  MEMB      285             0.0000000000
     35511       285  PVCL2     H7X            12.2853367629       38.2600575566       -8.1372122724  MEMB      285             0.0000000000
     35512       285  PVCL2     H7Y            13.5286065600       38.5190454898       -6.9761990667  MEMB      285             0.0000000000
     35513       285  PVCL2     CD8            11.7589531424       37.2664154575       -6.2731719109  MEMB      285             0.0000000000
     35514       285  PVCL2     H8X            12.1586583842       36.3996581067       -5.7045870058  MEMB      285             0.0000000000
     35515       285  PVCL2     H8Y            10.8400482706       36.9271186953       -6.7973974899  MEMB      285             0.0000000000
     35516       285  PVCL2     CD9            11.1641128770       38.4420090089       -5.4898922335  MEMB      285             0.0000000000
     35517       285  PVCL2     H9X            10.7340839593       39.1948730016       -6.1845808737  MEMB      285             0.0000000000
     35518       285  PVCL2     H9Y            12.0283822420       38.8220782019       -4.9043103094  MEMB      285             0.0000000000
     35519       285  PVCL2     CD10           10.1432105518       38.0289430787       -4.3952962464  MEMB      285             0.0000000000
     35520       285  PVCL2     H10X            9.1195789259       37.7413033777       -4.7174179541  MEMB      285             0.0000000000
     35521       285  PVCL2     H10Y            9.9702910937       38.9326416261       -3.7726010319  MEMB      285             0.0000000000
     35522       285  PVCL2     CD11           10.6650810373       36.8717573738       -3.4518648825  MEMB      285             0.0000000000
     35523       285  PVCL2     H11X           10.6794568328       35.8558022556       -3.9012526526  MEMB      285             0.0000000000
     35524       285  PVCL2     H11Y            9.8682825840       36.7614112794       -2.6855373655  MEMB      285             0.0000000000
     35525       285  PVCL2     CD12           11.9624197313       37.1573890316       -2.7144580480  MEMB      285             0.0000000000
     35526       285  PVCL2     H12X           12.9446440793       37.0148030437       -3.2136846179  MEMB      285             0.0000000000
     35527       285  PVCL2     H12Y           11.9853500427       36.2936437733       -2.0160759706  MEMB      285             0.0000000000
     35528       285  PVCL2     CD13           12.0520686356       38.4746814436       -1.9844580390  MEMB      285             0.0000000000
     35529       285  PVCL2     H13X           11.4734023372       39.2354747458       -2.5507261838  MEMB      285             0.0000000000
     35530       285  PVCL2     H13Y           13.0966788878       38.8528415533       -1.9947120488  MEMB      285             0.0000000000
     35531       285  PVCL2     CD14           11.4472803196       38.3686797874       -0.5380848839  MEMB      285             0.0000000000
     35532       285  PVCL2     H14X           12.2538506906       37.8892165143        0.0567939610  MEMB      285             0.0000000000
     35533       285  PVCL2     H14Y           10.5456588922       37.7404975908       -0.7017515519  MEMB      285             0.0000000000
     35534       285  PVCL2     CD15           11.2590078682       39.6773722512        0.1034827020  MEMB      285             0.0000000000
     35535       285  PVCL2     H15X           10.5483107273       39.5499544358        0.9478728264  MEMB      285             0.0000000000
     35536       285  PVCL2     H15Y           10.8029015090       40.3629791342       -0.6423254580  MEMB      285             0.0000000000
     35537       285  PVCL2     CD16           12.6327240266       40.2237399132        0.6049140800  MEMB      285             0.0000000000
     35538       285  PVCL2     H16X           12.4066720722       41.1875261257        1.1092331673  MEMB      285             0.0000000000
     35539       285  PVCL2     H16Y           13.2783979648       40.2888815987       -0.2968541798  MEMB      285             0.0000000000
     35540       285  PVCL2     H16Z           13.1214501311       39.5477248797        1.3387201236  MEMB      285             0.0000000000
     35541       286  PMPE      N              44.2739466903        3.1725598157      -20.9691792611  MEMB      286             0.0000000000
     35542       286  PMPE      HN1            44.5648910330        2.1772526088      -21.0486458142  MEMB      286             0.0000000000
     35543       286  PMPE      HN2            44.3853092887        3.6840999440      -21.8678033155  MEMB      286             0.0000000000
     35544       286  PMPE      HN3            44.8555410188        3.6541303352      -20.2540303391  MEMB      286             0.0000000000
     35545       286  PMPE      C12            42.8060933532        3.1346869750      -20.5167995306  MEMB      286             0.0000000000
     35546       286  PMPE      H12A           42.2451158203        3.0799501600      -21.4742070052  MEMB      286             0.0000000000
     35547       286  PMPE      H12B           42.5765955247        4.0766761069      -19.9742977753  MEMB      286             0.0000000000
     35548       286  PMPE      C11            42.6341993463        1.9274008101      -19.5529855098  MEMB      286             0.0000000000
     35549       286  PMPE      H11A           43.3050113644        1.9446506849      -18.6675281812  MEMB      286             0.0000000000
     35550       286  PMPE      H11B           42.7468680753        0.9676294655      -20.1011331550  MEMB      286             0.0000000000
     35551       286  PMPE      P              40.8662209306        0.8056924297      -18.1409303930  MEMB      286             0.0000000000
     35552       286  PMPE      O13            41.5947031696        0.9727502415      -16.8730983805  MEMB      286             0.0000000000
     35553       286  PMPE      O14            41.0492511879       -0.3913138289      -18.9499560760  MEMB      286             0.0000000000
     35554       286  PMPE      O11            39.3402719134        0.9457237895      -17.9780214339  MEMB      286             0.0000000000
     35555       286  PMPE      O12            41.3064254349        2.0249108619      -19.0190294223  MEMB      286             0.0000000000
     35556       286  PMPE      C1             38.7528054993        2.1863931072      -18.3265701963  MEMB      286             0.0000000000
     35557       286  PMPE      HA             37.9849388919        2.0303752895      -19.1141997789  MEMB      286             0.0000000000
     35558       286  PMPE      HB             39.4435082205        3.0332289767      -18.5268695163  MEMB      286             0.0000000000
     35559       286  PMPE      C2             37.8859133668        2.7925196051      -17.1537671157  MEMB      286             0.0000000000
     35560       286  PMPE      HS             37.5786728247        3.8324578290      -17.3955376449  MEMB      286             0.0000000000
     35561       286  PMPE      O21            38.7196055005        2.9261669380      -15.9690058663  MEMB      286             0.0000000000
     35562       286  PMPE      C21            39.6604481944        3.9549229502      -16.0340062896  MEMB      286             0.0000000000
     35563       286  PMPE      O22            39.6812765657        4.7629511793      -16.9166216961  MEMB      286             0.0000000000
     35564       286  PMPE      C22            40.4864753429        3.9501636711      -14.7676569474  MEMB      286             0.0000000000
     35565       286  PMPE      H2R            40.9967560773        4.9343417596      -14.6946629921  MEMB      286             0.0000000000
     35566       286  PMPE      H2S            41.2028548988        3.1016477960      -14.8014512641  MEMB      286             0.0000000000
     35567       286  PMPE      C3             36.6237186103        1.8651620772      -16.7492347642  MEMB      286             0.0000000000
     35568       286  PMPE      HX             36.1489745445        1.4884343898      -17.6803712250  MEMB      286             0.0000000000
     35569       286  PMPE      HY             35.9522551787        2.3472000092      -16.0068755360  MEMB      286             0.0000000000
     35570       286  PMPE      O31            37.1319635557        0.6470331571      -16.2501567311  MEMB      286             0.0000000000
     35571       286  PMPE      C31            37.1319370048        0.3771140940      -14.9018138085  MEMB      286             0.0000000000
     35572       286  PMPE      O32            36.8958854453        1.1712429425      -14.0352097183  MEMB      286             0.0000000000
     35573       286  PMPE      C32            37.7030956932       -1.0969109069      -14.5716939199  MEMB      286             0.0000000000
     35574       286  PMPE      H2X            37.4860789863       -1.7737404707      -15.4255829792  MEMB      286             0.0000000000
     35575       286  PMPE      H2Y            37.1820853353       -1.4575426960      -13.6591076476  MEMB      286             0.0000000000
     35576       286  PMPE      C23            39.5219598141        3.7572237882      -13.5534121033  MEMB      286             0.0000000000
     35577       286  PMPE      H3R            39.0529103686        2.7525033313      -13.6230557272  MEMB      286             0.0000000000
     35578       286  PMPE      H3S            38.7499676928        4.5557562779      -13.5270443567  MEMB      286             0.0000000000
     35579       286  PMPE      C24            40.2354400846        3.9471481383      -12.1922662262  MEMB      286             0.0000000000
     35580       286  PMPE      H4R            40.6913439000        4.9515332974      -12.3252450894  MEMB      286             0.0000000000
     35581       286  PMPE      H4S            41.0785187062        3.2251960714      -12.1440530303  MEMB      286             0.0000000000
     35582       286  PMPE      C25            39.3499574136        3.8344086289      -10.9248613912  MEMB      286             0.0000000000
     35583       286  PMPE      H5R            38.9632831393        2.7963926835      -11.0104591140  MEMB      286             0.0000000000
     35584       286  PMPE      H5S            38.5328443945        4.5728500110      -11.0709828253  MEMB      286             0.0000000000
     35585       286  PMPE      C26            40.0128162723        4.1486242746       -9.5717281199  MEMB      286             0.0000000000
     35586       286  PMPE      H6R            40.4814141945        3.1918291829       -9.2566406795  MEMB      286             0.0000000000
     35587       286  PMPE      H6S            39.2777586874        4.3840762984       -8.7726198349  MEMB      286             0.0000000000
     35588       286  PMPE      C27            40.8997939556        5.3647111537       -9.6166942834  MEMB      286             0.0000000000
     35589       286  PMPE      H7R            40.2743187812        6.2338100684       -9.9129522450  MEMB      286             0.0000000000
     35590       286  PMPE      H7S            41.7239250819        5.1315775340      -10.3243503712  MEMB      286             0.0000000000
     35591       286  PMPE      C28            41.4973829444        5.6224316150       -8.2163258812  MEMB      286             0.0000000000
     35592       286  PMPE      H8R            41.8508987664        4.6002338027       -7.9624384573  MEMB      286             0.0000000000
     35593       286  PMPE      H8S            40.7428688396        6.0465840984       -7.5198177898  MEMB      286             0.0000000000
     35594       286  PMPE      C29            42.6768502689        6.5642787304       -8.3875624945  MEMB      286             0.0000000000
     35595       286  PMPE      H9R            42.5019208011        7.4017795098       -9.0963026886  MEMB      286             0.0000000000
     35596       286  PMPE      C217           44.0000928336        5.9004294919       -8.5520849042  MEMB      286             0.0000000000
     35597       286  PMPE      H17R           44.7759050361        6.4150759214       -9.1053874372  MEMB      286             0.0000000000
     35598       286  PMPE      H17S           43.8868461183        4.8289003298       -8.4430460291  MEMB      286             0.0000000000
     35599       286  PMPE      C210           43.7962488998        6.6885822753       -7.3318238718  MEMB      286             0.0000000000
     35600       286  PMPE      H10R           44.3977279269        7.6222505604       -7.3034197040  MEMB      286             0.0000000000
     35601       286  PMPE      C211           43.7327025964        5.8765918678       -6.1019724053  MEMB      286             0.0000000000
     35602       286  PMPE      H11R           44.6796804658        6.0946466293       -5.5634499551  MEMB      286             0.0000000000
     35603       286  PMPE      H11S           43.7718414107        4.7814507655       -6.2848785786  MEMB      286             0.0000000000
     35604       286  PMPE      C212           42.4471044181        6.0805234529       -5.2777161066  MEMB      286             0.0000000000
     35605       286  PMPE      H12R           41.4821356507        5.7411627753       -5.7112947440  MEMB      286             0.0000000000
     35606       286  PMPE      H12S           42.4978625305        7.1785989943       -5.1165494440  MEMB      286             0.0000000000
     35607       286  PMPE      C213           42.5613176549        5.4267418045       -3.9261978543  MEMB      286             0.0000000000
     35608       286  PMPE      H13R           43.3843470515        5.8528917731       -3.3135476284  MEMB      286             0.0000000000
     35609       286  PMPE      H13S           42.7613255342        4.3459581811       -4.0881376570  MEMB      286             0.0000000000
     35610       286  PMPE      C214           41.2876533183        5.3585955795       -3.1234185350  MEMB      286             0.0000000000
     35611       286  PMPE      H14R           40.4236837799        5.1070640783       -3.7750386708  MEMB      286             0.0000000000
     35612       286  PMPE      H14S           41.0300596741        6.3804816912       -2.7716855482  MEMB      286             0.0000000000
     35613       286  PMPE      C215           41.4354399503        4.4727530339       -1.8890187542  MEMB      286             0.0000000000
     35614       286  PMPE      H15R           42.1982665196        3.6862165549       -2.0728042539  MEMB      286             0.0000000000
     35615       286  PMPE      H15S           40.4125077755        4.0600916976       -1.7561984208  MEMB      286             0.0000000000
     35616       286  PMPE      C216           41.8520012704        5.2610109892       -0.7149492159  MEMB      286             0.0000000000
     35617       286  PMPE      H16R           42.7983137841        5.8024096568       -0.9287260505  MEMB      286             0.0000000000
     35618       286  PMPE      H16S           41.0803724568        6.0349090438       -0.5149682499  MEMB      286             0.0000000000
     35619       286  PMPE      H16T           41.9524105338        4.7576300414        0.2703675183  MEMB      286             0.0000000000
     35620       286  PMPE      C33            39.2409764625       -1.0157792917      -14.3914239850  MEMB      286             0.0000000000
     35621       286  PMPE      H3X            39.7565815358       -0.5409045516      -15.2533791651  MEMB      286             0.0000000000
     35622       286  PMPE      H3Y            39.5734466807       -2.0757045100      -14.3729049413  MEMB      286             0.0000000000
     35623       286  PMPE      C34            39.7539384978       -0.3950756324      -13.0610523496  MEMB      286             0.0000000000
     35624       286  PMPE      H4X            39.3601590376       -0.9201166943      -12.1646200800  MEMB      286             0.0000000000
     35625       286  PMPE      H4Y            39.3709034241        0.6473425307      -13.0299157576  MEMB      286             0.0000000000
     35626       286  PMPE      C35            41.2862570636       -0.4474216537      -12.9228591562  MEMB      286             0.0000000000
     35627       286  PMPE      H5X            41.6304522969        0.1177853341      -13.8152668660  MEMB      286             0.0000000000
     35628       286  PMPE      H5Y            41.7277257239       -1.4485417302      -13.1156934651  MEMB      286             0.0000000000
     35629       286  PMPE      C36            41.8173190939        0.1079470817      -11.6415854935  MEMB      286             0.0000000000
     35630       286  PMPE      H6X            41.5458483141       -0.6374248717      -10.8637388110  MEMB      286             0.0000000000
     35631       286  PMPE      H6Y            41.4360644452        1.1328294784      -11.4451625814  MEMB      286             0.0000000000
     35632       286  PMPE      C37            43.2622179434        0.3452354599      -11.4374500215  MEMB      286             0.0000000000
     35633       286  PMPE      H7X            43.6626610420        1.2540391945      -11.9354885399  MEMB      286             0.0000000000
     35634       286  PMPE      H7Y            43.7071436719       -0.5421826573      -11.9363003167  MEMB      286             0.0000000000
     35635       286  PMPE      C38            43.7962613425        0.2587366795       -9.9681492837  MEMB      286             0.0000000000
     35636       286  PMPE      H8X            44.8914466262        0.0750813341       -9.9340781995  MEMB      286             0.0000000000
     35637       286  PMPE      H8Y            43.3455352497       -0.6782934858       -9.5768159713  MEMB      286             0.0000000000
     35638       286  PMPE      C39            43.3459254541        1.5435490813       -9.1453819736  MEMB      286             0.0000000000
     35639       286  PMPE      H9X            42.3033035992        1.7625808951       -9.4604779057  MEMB      286             0.0000000000
     35640       286  PMPE      H9Y            43.9938190140        2.3870157146       -9.4665030704  MEMB      286             0.0000000000
     35641       286  PMPE      C310           43.3017805821        1.3305319225       -7.6344552869  MEMB      286             0.0000000000
     35642       286  PMPE      H10X           43.3319869087        2.3127728713       -7.1161786731  MEMB      286             0.0000000000
     35643       286  PMPE      H10Y           44.1706579268        0.7562773681       -7.2476674585  MEMB      286             0.0000000000
     35644       286  PMPE      C311           41.9323286072        0.6925649490       -7.2096519416  MEMB      286             0.0000000000
     35645       286  PMPE      H11X           42.0676407859       -0.4065690318       -7.1206785225  MEMB      286             0.0000000000
     35646       286  PMPE      H11Y           41.1511388352        1.0010067546       -7.9369257892  MEMB      286             0.0000000000
     35647       286  PMPE      C312           41.3024751604        1.1375327066       -5.8881165996  MEMB      286             0.0000000000
     35648       286  PMPE      H12X           40.2042350460        1.0101261434       -5.7787671358  MEMB      286             0.0000000000
     35649       286  PMPE      H12Y           41.5337937877        2.2225757858       -5.8290030453  MEMB      286             0.0000000000
     35650       286  PMPE      C313           41.8340788580        0.4132835198       -4.7011914778  MEMB      286             0.0000000000
     35651       286  PMPE      H13X           42.9250747667        0.6230985645       -4.7063419103  MEMB      286             0.0000000000
     35652       286  PMPE      H13Y           41.7515634091       -0.6858497606       -4.8405397533  MEMB      286             0.0000000000
     35653       286  PMPE      C314           41.2118289996        0.9365365724       -3.3969378437  MEMB      286             0.0000000000
     35654       286  PMPE      H14X           41.4805423275        2.0037534517       -3.2447463795  MEMB      286             0.0000000000
     35655       286  PMPE      H14Y           41.6036965664        0.3960407778       -2.5088913765  MEMB      286             0.0000000000
     35656       286  PMPE      C315           39.6621758963        0.7853764849       -3.3837040204  MEMB      286             0.0000000000
     35657       286  PMPE      H15X           39.4912713099       -0.2920892467       -3.5938948481  MEMB      286             0.0000000000
     35658       286  PMPE      H15Y           39.2694500481        1.5019651639       -4.1364245324  MEMB      286             0.0000000000
     35659       286  PMPE      C316           38.9621571312        0.9943265366       -1.9749736924  MEMB      286             0.0000000000
     35660       286  PMPE      H16X           38.2335074262        0.2512132592       -1.5861646411  MEMB      286             0.0000000000
     35661       286  PMPE      H16Y           38.4502780562        1.9803259567       -1.9646793680  MEMB      286             0.0000000000
     35662       286  PMPE      H16Z           39.7237809196        1.0912197578       -1.1719422436  MEMB      286             0.0000000000
     35663       287  PMPE      N             -39.4788758678       -3.7384295823      -17.2175975019  MEMB      287             0.0000000000
     35664       287  PMPE      HN1           -39.9763817758       -4.5415685043      -16.7827924315  MEMB      287             0.0000000000
     35665       287  PMPE      HN2           -38.5112896892       -4.1093348867      -17.3059513085  MEMB      287             0.0000000000
     35666       287  PMPE      HN3           -39.6326804617       -2.9378263297      -16.5718588931  MEMB      287             0.0000000000
     35667       287  PMPE      C12           -40.0807376025       -3.3789627950      -18.5677119282  MEMB      287             0.0000000000
     35668       287  PMPE      H12A          -39.5857333010       -2.4493486087      -18.9214196910  MEMB      287             0.0000000000
     35669       287  PMPE      H12B          -41.1301228610       -3.1310064335      -18.3000756624  MEMB      287             0.0000000000
     35670       287  PMPE      C11           -40.0873814138       -4.5564701975      -19.4675553842  MEMB      287             0.0000000000
     35671       287  PMPE      H11A          -39.0447082983       -4.9081640372      -19.3143717400  MEMB      287             0.0000000000
     35672       287  PMPE      H11B          -40.3442583855       -4.2732638852      -20.5106897863  MEMB      287             0.0000000000
     35673       287  PMPE      P             -42.5672307296       -5.5505406213      -19.4491738365  MEMB      287             0.0000000000
     35674       287  PMPE      O13           -43.0487201872       -6.9154282727      -19.4911559288  MEMB      287             0.0000000000
     35675       287  PMPE      O14           -42.7768187797       -4.6570728601      -20.6096539427  MEMB      287             0.0000000000
     35676       287  PMPE      O11           -43.2467398182       -4.9089076206      -18.2192178688  MEMB      287             0.0000000000
     35677       287  PMPE      O12           -41.0448955995       -5.6123041337      -18.9779336095  MEMB      287             0.0000000000
     35678       287  PMPE      C1            -44.3243193949       -3.9903865498      -18.2103215390  MEMB      287             0.0000000000
     35679       287  PMPE      HA            -45.3108970648       -4.4964847267      -18.2799648437  MEMB      287             0.0000000000
     35680       287  PMPE      HB            -44.2691138883       -3.1969295585      -18.9860143727  MEMB      287             0.0000000000
     35681       287  PMPE      C2            -44.3120736893       -3.3805490041      -16.7839530680  MEMB      287             0.0000000000
     35682       287  PMPE      HS            -45.0550664085       -2.5582961801      -16.8625847941  MEMB      287             0.0000000000
     35683       287  PMPE      O21           -42.9804974160       -2.7310347450      -16.5119563226  MEMB      287             0.0000000000
     35684       287  PMPE      C21           -43.0251645858       -1.7068462775      -15.5961721283  MEMB      287             0.0000000000
     35685       287  PMPE      O22           -44.0464074805       -1.3201106837      -15.0399194767  MEMB      287             0.0000000000
     35686       287  PMPE      C22           -41.6335049520       -1.1572006827      -15.3825143847  MEMB      287             0.0000000000
     35687       287  PMPE      H2R           -41.3845583494       -0.2849143587      -16.0239684888  MEMB      287             0.0000000000
     35688       287  PMPE      H2S           -40.9227319288       -1.9338300656      -15.7374363761  MEMB      287             0.0000000000
     35689       287  PMPE      C3            -44.7067018939       -4.3858397095      -15.6871454396  MEMB      287             0.0000000000
     35690       287  PMPE      HX            -45.5967086441       -4.9143437163      -16.0907451905  MEMB      287             0.0000000000
     35691       287  PMPE      HY            -45.0844888239       -3.7169073229      -14.8845698851  MEMB      287             0.0000000000
     35692       287  PMPE      O31           -43.6034004675       -5.2491858923      -15.1968486997  MEMB      287             0.0000000000
     35693       287  PMPE      C31           -43.9592243425       -6.1655147116      -14.3402366185  MEMB      287             0.0000000000
     35694       287  PMPE      O32           -45.1124025200       -6.5296489509      -14.2078429385  MEMB      287             0.0000000000
     35695       287  PMPE      C32           -42.6846511823       -6.7098055334      -13.5992728683  MEMB      287             0.0000000000
     35696       287  PMPE      H2X           -41.8558641879       -5.9764823799      -13.6976098043  MEMB      287             0.0000000000
     35697       287  PMPE      H2Y           -42.4306210597       -7.7325513037      -13.9510978118  MEMB      287             0.0000000000
     35698       287  PMPE      C23           -41.1080609251       -0.8575526521      -13.9383009815  MEMB      287             0.0000000000
     35699       287  PMPE      H3R           -41.7902568226       -0.1294111473      -13.4496908994  MEMB      287             0.0000000000
     35700       287  PMPE      H3S           -40.0581647690       -0.4945050849      -13.9536465879  MEMB      287             0.0000000000
     35701       287  PMPE      C24           -41.1020726511       -2.0855038692      -12.9597058566  MEMB      287             0.0000000000
     35702       287  PMPE      H4R           -40.6322390030       -2.9173530025      -13.5268079226  MEMB      287             0.0000000000
     35703       287  PMPE      H4S           -42.1034658695       -2.4709968313      -12.6717341542  MEMB      287             0.0000000000
     35704       287  PMPE      C25           -40.1664296015       -1.7962522739      -11.7164124091  MEMB      287             0.0000000000
     35705       287  PMPE      H5R           -40.6141054318       -1.0740782872      -11.0006108032  MEMB      287             0.0000000000
     35706       287  PMPE      H5S           -39.2533538186       -1.3091049958      -12.1205176511  MEMB      287             0.0000000000
     35707       287  PMPE      C26           -39.8538070100       -3.1280600376      -11.0548231221  MEMB      287             0.0000000000
     35708       287  PMPE      H6R           -39.5014308521       -3.7247018328      -11.9232528996  MEMB      287             0.0000000000
     35709       287  PMPE      H6S           -40.8359859274       -3.4729285593      -10.6666073298  MEMB      287             0.0000000000
     35710       287  PMPE      C27           -38.8828286395       -2.9082171423       -9.9258507620  MEMB      287             0.0000000000
     35711       287  PMPE      H7R           -39.5083973094       -2.1873952788       -9.3571666776  MEMB      287             0.0000000000
     35712       287  PMPE      H7S           -37.9914691079       -2.3522677449      -10.2874015892  MEMB      287             0.0000000000
     35713       287  PMPE      C28           -38.4454768011       -4.0825297199       -9.0615103213  MEMB      287             0.0000000000
     35714       287  PMPE      H8R           -39.3112488680       -4.5057740036       -8.5086772878  MEMB      287             0.0000000000
     35715       287  PMPE      H8S           -37.6314385444       -3.7412222741       -8.3868460274  MEMB      287             0.0000000000
     35716       287  PMPE      C29           -37.6892517612       -5.1984032564       -9.8233408922  MEMB      287             0.0000000000
     35717       287  PMPE      H9R           -36.6825636009       -4.8919659408      -10.1797064712  MEMB      287             0.0000000000
     35718       287  PMPE      C217          -38.4419146174       -6.3880206126      -10.3679381708  MEMB      287             0.0000000000
     35719       287  PMPE      H17R          -37.9900257551       -6.5978377791      -11.3295315066  MEMB      287             0.0000000000
     35720       287  PMPE      H17S          -39.4717656099       -6.0594832835      -10.3019143819  MEMB      287             0.0000000000
     35721       287  PMPE      C210          -37.6331743785       -6.5341948423       -9.0838142512  MEMB      287             0.0000000000
     35722       287  PMPE      H10R          -36.6748831840       -7.0899990177       -9.1679606766  MEMB      287             0.0000000000
     35723       287  PMPE      C211          -38.3327470743       -6.7308326460       -7.7109189859  MEMB      287             0.0000000000
     35724       287  PMPE      H11R          -38.4208470095       -7.8382425572       -7.6966578214  MEMB      287             0.0000000000
     35725       287  PMPE      H11S          -39.3326740259       -6.2553519867       -7.6193501836  MEMB      287             0.0000000000
     35726       287  PMPE      C212          -37.5256164627       -6.3864262301       -6.4765218312  MEMB      287             0.0000000000
     35727       287  PMPE      H12R          -37.5689527800       -5.2825076042       -6.3590222223  MEMB      287             0.0000000000
     35728       287  PMPE      H12S          -36.4531265917       -6.6645342219       -6.5586355072  MEMB      287             0.0000000000
     35729       287  PMPE      C213          -37.9436733293       -7.0057978355       -5.1892859160  MEMB      287             0.0000000000
     35730       287  PMPE      H13R          -37.3757162374       -6.4880252169       -4.3870028675  MEMB      287             0.0000000000
     35731       287  PMPE      H13S          -37.6705898864       -8.0824887839       -5.2112548455  MEMB      287             0.0000000000
     35732       287  PMPE      C214          -39.5010076968       -7.1530341561       -4.9574614263  MEMB      287             0.0000000000
     35733       287  PMPE      H14R          -39.9118707840       -7.7244251639       -5.8171273289  MEMB      287             0.0000000000
     35734       287  PMPE      H14S          -40.0645580458       -6.1966769165       -5.0034273971  MEMB      287             0.0000000000
     35735       287  PMPE      C215          -39.8108275002       -7.9428022010       -3.6943414237  MEMB      287             0.0000000000
     35736       287  PMPE      H15R          -39.3716206200       -8.9518337493       -3.8468990145  MEMB      287             0.0000000000
     35737       287  PMPE      H15S          -40.9012378229       -8.0716580353       -3.5248640185  MEMB      287             0.0000000000
     35738       287  PMPE      C216          -39.1716151596       -7.3665061874       -2.4328076915  MEMB      287             0.0000000000
     35739       287  PMPE      H16R          -39.9279231988       -7.3933263130       -1.6194207952  MEMB      287             0.0000000000
     35740       287  PMPE      H16S          -38.2665850176       -7.9859931082       -2.2553895826  MEMB      287             0.0000000000
     35741       287  PMPE      H16T          -38.9203158859       -6.2934249158       -2.5730446257  MEMB      287             0.0000000000
     35742       287  PMPE      C33           -43.0717135857       -6.6887345831      -12.1047744585  MEMB      287             0.0000000000
     35743       287  PMPE      H3X           -42.2417533879       -7.2905414665      -11.6766204331  MEMB      287             0.0000000000
     35744       287  PMPE      H3Y           -43.9693680652       -7.2810797252      -11.8260909752  MEMB      287             0.0000000000
     35745       287  PMPE      C34           -43.1848368387       -5.2784247160      -11.4640012830  MEMB      287             0.0000000000
     35746       287  PMPE      H4X           -44.1242274840       -4.8876921438      -11.9103128096  MEMB      287             0.0000000000
     35747       287  PMPE      H4Y           -42.2807253539       -4.7026057634      -11.7561243059  MEMB      287             0.0000000000
     35748       287  PMPE      C35           -43.3690913584       -5.1127576987       -9.9233557547  MEMB      287             0.0000000000
     35749       287  PMPE      H5X           -42.4267205129       -5.4858665978       -9.4683308333  MEMB      287             0.0000000000
     35750       287  PMPE      H5Y           -44.2096499039       -5.6889130407       -9.4808321893  MEMB      287             0.0000000000
     35751       287  PMPE      C36           -43.5384130849       -3.6162124470       -9.4877625576  MEMB      287             0.0000000000
     35752       287  PMPE      H6X           -44.5395078393       -3.1724743706       -9.6754511745  MEMB      287             0.0000000000
     35753       287  PMPE      H6Y           -42.7403221967       -3.0630494821      -10.0275612403  MEMB      287             0.0000000000
     35754       287  PMPE      C37           -43.3455744607       -3.4304705630       -8.0281639203  MEMB      287             0.0000000000
     35755       287  PMPE      H7X           -43.3124065355       -2.3440354585       -7.7982084861  MEMB      287             0.0000000000
     35756       287  PMPE      H7Y           -42.3687446658       -3.9002271128       -7.7843332698  MEMB      287             0.0000000000
     35757       287  PMPE      C38           -44.3423723769       -4.2471406745       -7.1606805094  MEMB      287             0.0000000000
     35758       287  PMPE      H8X           -44.1783141924       -5.3354753600       -7.3121177881  MEMB      287             0.0000000000
     35759       287  PMPE      H8Y           -45.3686812326       -4.0787430247       -7.5513891173  MEMB      287             0.0000000000
     35760       287  PMPE      C39           -44.2718372244       -3.9911382219       -5.6566101616  MEMB      287             0.0000000000
     35761       287  PMPE      H9X           -45.2643686158       -4.2149999945       -5.2104167721  MEMB      287             0.0000000000
     35762       287  PMPE      H9Y           -43.9727801587       -2.9469518007       -5.4230273358  MEMB      287             0.0000000000
     35763       287  PMPE      C310          -43.1911683589       -4.7115825445       -4.8739539769  MEMB      287             0.0000000000
     35764       287  PMPE      H10X          -42.1482800166       -4.3695766341       -5.0463984012  MEMB      287             0.0000000000
     35765       287  PMPE      H10Y          -43.2261142835       -5.8163189327       -4.9864595609  MEMB      287             0.0000000000
     35766       287  PMPE      C311          -43.4725828750       -4.5350892025       -3.4447485082  MEMB      287             0.0000000000
     35767       287  PMPE      H11X          -44.4045024325       -5.0077836602       -3.0673799224  MEMB      287             0.0000000000
     35768       287  PMPE      H11Y          -43.5602866463       -3.4407165084       -3.2745220206  MEMB      287             0.0000000000
     35769       287  PMPE      C312          -42.2352897645       -5.0197629260       -2.6148333876  MEMB      287             0.0000000000
     35770       287  PMPE      H12X          -41.3673909424       -4.4518586350       -3.0130261646  MEMB      287             0.0000000000
     35771       287  PMPE      H12Y          -41.9731786224       -6.0862907391       -2.7825748378  MEMB      287             0.0000000000
     35772       287  PMPE      C313          -42.2740860834       -4.7181958930       -1.1189181091  MEMB      287             0.0000000000
     35773       287  PMPE      H13X          -42.5197234478       -3.6353311719       -1.0816731712  MEMB      287             0.0000000000
     35774       287  PMPE      H13Y          -41.3276722447       -5.1055829174       -0.6846920190  MEMB      287             0.0000000000
     35775       287  PMPE      C314          -43.4406735142       -5.3771860717       -0.3261527572  MEMB      287             0.0000000000
     35776       287  PMPE      H14X          -43.5183404768       -6.4121223570       -0.7226314656  MEMB      287             0.0000000000
     35777       287  PMPE      H14Y          -44.4088027465       -4.9077401445       -0.6030409880  MEMB      287             0.0000000000
     35778       287  PMPE      C315          -43.2822113923       -5.4720833421        1.2027037508  MEMB      287             0.0000000000
     35779       287  PMPE      H15X          -43.3956000972       -4.4335717072        1.5808001517  MEMB      287             0.0000000000
     35780       287  PMPE      H15Y          -42.3339186058       -5.9893528415        1.4625003869  MEMB      287             0.0000000000
     35781       287  PMPE      C316          -44.4226858982       -6.2831031720        1.8082551778  MEMB      287             0.0000000000
     35782       287  PMPE      H16X          -45.3807823025       -5.7495294119        1.6302878228  MEMB      287             0.0000000000
     35783       287  PMPE      H16Y          -44.4370016725       -6.5002350231        2.8977369499  MEMB      287             0.0000000000
     35784       287  PMPE      H16Z          -44.5175749241       -7.2998614864        1.3706257419  MEMB      287             0.0000000000
     35785       288  PMPE      N             -24.8165223360       36.1116303957      -21.5620332070  MEMB      288             0.0000000000
     35786       288  PMPE      HN1           -23.8648941706       36.4126588035      -21.2698247973  MEMB      288             0.0000000000
     35787       288  PMPE      HN2           -24.8062725139       35.0943416211      -21.7779462669  MEMB      288             0.0000000000
     35788       288  PMPE      HN3           -25.1473745956       36.5918583621      -22.4231474849  MEMB      288             0.0000000000
     35789       288  PMPE      C12           -25.8193210575       36.4692577605      -20.3987248427  MEMB      288             0.0000000000
     35790       288  PMPE      H12A          -26.7587833759       36.0334231971      -20.8009432522  MEMB      288             0.0000000000
     35791       288  PMPE      H12B          -25.9226989046       37.5745974557      -20.4418319209  MEMB      288             0.0000000000
     35792       288  PMPE      C11           -25.3737845802       35.9043711036      -19.0509629714  MEMB      288             0.0000000000
     35793       288  PMPE      H11A          -26.1540023428       36.1201932516      -18.2900410930  MEMB      288             0.0000000000
     35794       288  PMPE      H11B          -24.4412149596       36.4186473208      -18.7344903952  MEMB      288             0.0000000000
     35795       288  PMPE      P             -24.1986409941       33.7050008109      -18.2443152475  MEMB      288             0.0000000000
     35796       288  PMPE      O13           -22.7692825344       34.0191766964      -18.4887471939  MEMB      288             0.0000000000
     35797       288  PMPE      O14           -24.6304302246       32.2968656074      -18.2712723706  MEMB      288             0.0000000000
     35798       288  PMPE      O11           -24.5146653406       34.3313498166      -16.8213281342  MEMB      288             0.0000000000
     35799       288  PMPE      O12           -25.1785497299       34.4897694097      -19.1626160321  MEMB      288             0.0000000000
     35800       288  PMPE      C1            -25.8832610614       34.1783761911      -16.3444887783  MEMB      288             0.0000000000
     35801       288  PMPE      HA            -26.5731035828       33.7336685173      -17.0932700424  MEMB      288             0.0000000000
     35802       288  PMPE      HB            -26.2746254688       35.1946121626      -16.1244449138  MEMB      288             0.0000000000
     35803       288  PMPE      C2            -25.9040030234       33.3624573416      -15.0266687318  MEMB      288             0.0000000000
     35804       288  PMPE      HS            -26.9443363994       33.4719341330      -14.6524463444  MEMB      288             0.0000000000
     35805       288  PMPE      O21           -24.9750340977       34.0504195933      -14.1653102488  MEMB      288             0.0000000000
     35806       288  PMPE      C21           -25.1805183375       35.2648422349      -13.6485719323  MEMB      288             0.0000000000
     35807       288  PMPE      O22           -26.2424567955       35.9347821959      -13.7308145833  MEMB      288             0.0000000000
     35808       288  PMPE      C22           -23.8646850660       35.8094370397      -13.1386554636  MEMB      288             0.0000000000
     35809       288  PMPE      H2R           -24.0373175937       36.8527035856      -12.7979007033  MEMB      288             0.0000000000
     35810       288  PMPE      H2S           -23.2334693825       35.7564931927      -14.0513906213  MEMB      288             0.0000000000
     35811       288  PMPE      C3            -25.5156215112       31.8606708535      -15.0652053768  MEMB      288             0.0000000000
     35812       288  PMPE      HX            -24.7493753040       31.6976441423      -15.8529932961  MEMB      288             0.0000000000
     35813       288  PMPE      HY            -26.4049884991       31.2442915956      -15.3170466028  MEMB      288             0.0000000000
     35814       288  PMPE      O31           -24.9610578332       31.4368660758      -13.8065851928  MEMB      288             0.0000000000
     35815       288  PMPE      C31           -25.7794357779       31.1073691370      -12.8297166693  MEMB      288             0.0000000000
     35816       288  PMPE      O32           -26.9878114407       31.0356624546      -12.8766164497  MEMB      288             0.0000000000
     35817       288  PMPE      C32           -24.9400112571       30.9264509324      -11.5960497892  MEMB      288             0.0000000000
     35818       288  PMPE      H2X           -24.2024964439       31.7566421038      -11.5617667005  MEMB      288             0.0000000000
     35819       288  PMPE      H2Y           -24.4193460430       29.9455396997      -11.5637704735  MEMB      288             0.0000000000
     35820       288  PMPE      C23           -23.2574918399       34.8611035666      -12.0593100904  MEMB      288             0.0000000000
     35821       288  PMPE      H3R           -22.2486661785       35.2193613825      -11.7622528859  MEMB      288             0.0000000000
     35822       288  PMPE      H3S           -23.2374403269       33.7826915105      -12.3256679166  MEMB      288             0.0000000000
     35823       288  PMPE      C24           -24.2160435233       34.8564420132      -10.8273244530  MEMB      288             0.0000000000
     35824       288  PMPE      H4R           -23.6784108415       34.1851693972      -10.1239996685  MEMB      288             0.0000000000
     35825       288  PMPE      H4S           -25.1743676643       34.3328969879      -11.0318633723  MEMB      288             0.0000000000
     35826       288  PMPE      C25           -24.6119722928       36.2061923151      -10.1739384657  MEMB      288             0.0000000000
     35827       288  PMPE      H5R           -25.3772830671       36.7686009813      -10.7504081395  MEMB      288             0.0000000000
     35828       288  PMPE      H5S           -23.6617491240       36.7802235271      -10.2173578477  MEMB      288             0.0000000000
     35829       288  PMPE      C26           -25.0273201541       36.0250989802       -8.7066219138  MEMB      288             0.0000000000
     35830       288  PMPE      H6R           -25.0507914093       37.0776779837       -8.3518721354  MEMB      288             0.0000000000
     35831       288  PMPE      H6S           -24.3010436302       35.6150473434       -7.9726592214  MEMB      288             0.0000000000
     35832       288  PMPE      C27           -26.3786362139       35.3857135946       -8.5783410588  MEMB      288             0.0000000000
     35833       288  PMPE      H7R           -26.3479787090       34.3865456282       -9.0631546422  MEMB      288             0.0000000000
     35834       288  PMPE      H7S           -27.0499592451       36.1303682434       -9.0570219523  MEMB      288             0.0000000000
     35835       288  PMPE      C28           -26.8938277697       35.2737961267       -7.0817459730  MEMB      288             0.0000000000
     35836       288  PMPE      H8R           -26.0672476063       34.6502842054       -6.6788572692  MEMB      288             0.0000000000
     35837       288  PMPE      H8S           -27.8364290403       34.6915653067       -7.1643968431  MEMB      288             0.0000000000
     35838       288  PMPE      C29           -27.2062877720       36.6277988028       -6.4806914327  MEMB      288             0.0000000000
     35839       288  PMPE      H9R           -27.5091881440       37.3622119204       -7.2573575520  MEMB      288             0.0000000000
     35840       288  PMPE      C217          -25.8908950720       37.1991039979       -5.7902307622  MEMB      288             0.0000000000
     35841       288  PMPE      H17R          -25.7290665066       38.2374884553       -6.0518765202  MEMB      288             0.0000000000
     35842       288  PMPE      H17S          -25.1468419013       36.4122028550       -5.7980117982  MEMB      288             0.0000000000
     35843       288  PMPE      C210          -27.1842705944       36.8921927069       -5.0175498307  MEMB      288             0.0000000000
     35844       288  PMPE      H10R          -27.6729898782       37.8003704751       -4.6044065994  MEMB      288             0.0000000000
     35845       288  PMPE      C211          -27.5031818273       35.5996772124       -4.1638972876  MEMB      288             0.0000000000
     35846       288  PMPE      H11R          -26.7099207813       34.8514220361       -4.3764354802  MEMB      288             0.0000000000
     35847       288  PMPE      H11S          -28.3785961735       35.0660486238       -4.5919303361  MEMB      288             0.0000000000
     35848       288  PMPE      C212          -27.6244637652       35.9260169058       -2.6250264484  MEMB      288             0.0000000000
     35849       288  PMPE      H12R          -28.6446304862       36.3658882669       -2.6347434965  MEMB      288             0.0000000000
     35850       288  PMPE      H12S          -26.9120596917       36.6917948367       -2.2503444019  MEMB      288             0.0000000000
     35851       288  PMPE      C213          -27.5004781406       34.6869237679       -1.6596911016  MEMB      288             0.0000000000
     35852       288  PMPE      H13R          -28.2865584100       33.9781261729       -1.9973368929  MEMB      288             0.0000000000
     35853       288  PMPE      H13S          -27.7127292671       35.1631859318       -0.6786488150  MEMB      288             0.0000000000
     35854       288  PMPE      C214          -26.1398793271       34.0893130271       -1.4057243030  MEMB      288             0.0000000000
     35855       288  PMPE      H14R          -25.4891804018       34.9154022019       -1.0472717401  MEMB      288             0.0000000000
     35856       288  PMPE      H14S          -25.7837190867       33.6535618114       -2.3636342987  MEMB      288             0.0000000000
     35857       288  PMPE      C215          -26.0749143898       32.9754701273       -0.2416031150  MEMB      288             0.0000000000
     35858       288  PMPE      H15R          -26.7503638993       32.1048941199       -0.3836812120  MEMB      288             0.0000000000
     35859       288  PMPE      H15S          -26.3674762630       33.6407083204        0.5987469679  MEMB      288             0.0000000000
     35860       288  PMPE      C216          -24.6096907029       32.4634061203       -0.0582402677  MEMB      288             0.0000000000
     35861       288  PMPE      H16R          -24.3199229125       31.7818544315       -0.8863960496  MEMB      288             0.0000000000
     35862       288  PMPE      H16S          -23.8446318695       33.2592731677        0.0666684109  MEMB      288             0.0000000000
     35863       288  PMPE      H16T          -24.6508442328       31.8470186289        0.8651744872  MEMB      288             0.0000000000
     35864       288  PMPE      C33           -25.8501499688       31.0745736148      -10.3064950854  MEMB      288             0.0000000000
     35865       288  PMPE      H3X           -26.5781354311       30.2366134949      -10.3531906708  MEMB      288             0.0000000000
     35866       288  PMPE      H3Y           -26.5343873221       31.9497289995      -10.3220942703  MEMB      288             0.0000000000
     35867       288  PMPE      C34           -24.9604344744       30.9624836162       -8.9947071840  MEMB      288             0.0000000000
     35868       288  PMPE      H4X           -24.3150502617       31.8666028780       -8.9755100498  MEMB      288             0.0000000000
     35869       288  PMPE      H4Y           -24.3266114277       30.0501449894       -8.9796211999  MEMB      288             0.0000000000
     35870       288  PMPE      C35           -25.7407894234       31.1390388405       -7.7029632413  MEMB      288             0.0000000000
     35871       288  PMPE      H5X           -26.6043691774       30.4400760974       -7.7045722694  MEMB      288             0.0000000000
     35872       288  PMPE      H5Y           -26.2010313262       32.1449645415       -7.5999497183  MEMB      288             0.0000000000
     35873       288  PMPE      C36           -25.0145765230       30.8223030506       -6.3270390319  MEMB      288             0.0000000000
     35874       288  PMPE      H6X           -24.3299315000       29.9886467935       -6.5927443614  MEMB      288             0.0000000000
     35875       288  PMPE      H6Y           -25.8883928917       30.3816057767       -5.8011570071  MEMB      288             0.0000000000
     35876       288  PMPE      C37           -24.5784691308       32.0739647967       -5.5303316727  MEMB      288             0.0000000000
     35877       288  PMPE      H7X           -25.3309581628       32.3358428444       -4.7560572891  MEMB      288             0.0000000000
     35878       288  PMPE      H7Y           -24.5235027879       33.0062542348       -6.1321097268  MEMB      288             0.0000000000
     35879       288  PMPE      C38           -23.2163753924       31.9841771654       -4.7835557585  MEMB      288             0.0000000000
     35880       288  PMPE      H8X           -22.4019168197       32.0578505800       -5.5355866564  MEMB      288             0.0000000000
     35881       288  PMPE      H8Y           -23.1248912322       31.0507394608       -4.1880348021  MEMB      288             0.0000000000
     35882       288  PMPE      C39           -23.0073555651       33.2125979134       -3.8501492587  MEMB      288             0.0000000000
     35883       288  PMPE      H9X           -22.0613416287       32.9268693698       -3.3424705734  MEMB      288             0.0000000000
     35884       288  PMPE      H9Y           -23.8421407256       33.2340356621       -3.1173494120  MEMB      288             0.0000000000
     35885       288  PMPE      C310          -22.7433258553       34.5857827656       -4.5465969960  MEMB      288             0.0000000000
     35886       288  PMPE      H10X          -23.5438795553       34.8682974893       -5.2632701018  MEMB      288             0.0000000000
     35887       288  PMPE      H10Y          -21.7888325392       34.5577243169       -5.1144661888  MEMB      288             0.0000000000
     35888       288  PMPE      C311          -22.6635210932       35.7211014722       -3.4025454778  MEMB      288             0.0000000000
     35889       288  PMPE      H11X          -22.0418788424       35.3547162882       -2.5577709559  MEMB      288             0.0000000000
     35890       288  PMPE      H11Y          -23.6868437733       35.9244639363       -3.0207402092  MEMB      288             0.0000000000
     35891       288  PMPE      C312          -22.0299981756       37.0591172440       -3.9508482725  MEMB      288             0.0000000000
     35892       288  PMPE      H12X          -22.7007346574       37.3865049122       -4.7738012343  MEMB      288             0.0000000000
     35893       288  PMPE      H12Y          -21.0244754905       36.9100147390       -4.3991941713  MEMB      288             0.0000000000
     35894       288  PMPE      C313          -21.9431835805       38.0701848112       -2.7866148084  MEMB      288             0.0000000000
     35895       288  PMPE      H13X          -21.5536051137       39.0716444432       -3.0687997185  MEMB      288             0.0000000000
     35896       288  PMPE      H13Y          -21.1738511588       37.6273512986       -2.1185232956  MEMB      288             0.0000000000
     35897       288  PMPE      C314          -23.1801690427       38.3724629262       -1.8507657301  MEMB      288             0.0000000000
     35898       288  PMPE      H14X          -24.1040435893       38.3445442387       -2.4672056714  MEMB      288             0.0000000000
     35899       288  PMPE      H14Y          -23.1421864156       39.4316150863       -1.5174861609  MEMB      288             0.0000000000
     35900       288  PMPE      C315          -23.3226402836       37.5020643243       -0.6183416670  MEMB      288             0.0000000000
     35901       288  PMPE      H15X          -22.3552851739       37.5068934340       -0.0719706643  MEMB      288             0.0000000000
     35902       288  PMPE      H15Y          -23.6889741249       36.4843086548       -0.8719031341  MEMB      288             0.0000000000
     35903       288  PMPE      C316          -24.4453576497       38.1019290924        0.2681848820  MEMB      288             0.0000000000
     35904       288  PMPE      H16X          -25.3820191138       38.2270637159       -0.3160470073  MEMB      288             0.0000000000
     35905       288  PMPE      H16Y          -24.1096277475       39.0638341362        0.7112925482  MEMB      288             0.0000000000
     35906       288  PMPE      H16Z          -24.6097481412       37.4012459161        1.1145531888  MEMB      288             0.0000000000
     35907       289  PYPG      C13           -38.9436833393       19.0176898357      -19.2651078808  MEMB      289             0.0000000000
     35908       289  PYPG      H13A          -38.1461906557       18.8281524130      -18.5151732399  MEMB      289             0.0000000000
     35909       289  PYPG      H13B          -38.5929222477       18.4524770954      -20.1549517149  MEMB      289             0.0000000000
     35910       289  PYPG      OC3           -38.8855278615       20.4388352739      -19.5701599826  MEMB      289             0.0000000000
     35911       289  PYPG      HO3           -39.6189192794       20.8650394635      -19.1206188957  MEMB      289             0.0000000000
     35912       289  PYPG      C12           -40.2596490271       18.5348646974      -18.6582447420  MEMB      289             0.0000000000
     35913       289  PYPG      H12A          -41.0415340843       18.6261764184      -19.4476096556  MEMB      289             0.0000000000
     35914       289  PYPG      OC2           -40.6355591684       19.3753346927      -17.5663003100  MEMB      289             0.0000000000
     35915       289  PYPG      HO2           -41.4021804851       18.9011486125      -17.1762283188  MEMB      289             0.0000000000
     35916       289  PYPG      C11           -40.3747791962       17.0145091425      -18.1361198226  MEMB      289             0.0000000000
     35917       289  PYPG      H11A          -41.4005896943       16.8844233134      -17.7297803609  MEMB      289             0.0000000000
     35918       289  PYPG      H11B          -39.7349587467       16.8040162855      -17.2525793940  MEMB      289             0.0000000000
     35919       289  PYPG      P             -38.6652554697       15.3129296373      -19.3862873950  MEMB      289             0.0000000000
     35920       289  PYPG      O13           -38.4193571549       15.2883458027      -20.8747625928  MEMB      289             0.0000000000
     35921       289  PYPG      O14           -38.7855294474       13.9973956957      -18.6842530050  MEMB      289             0.0000000000
     35922       289  PYPG      O11           -37.5419488669       16.2340085571      -18.6854820862  MEMB      289             0.0000000000
     35923       289  PYPG      O12           -40.0140414659       16.0954736651      -19.1732821418  MEMB      289             0.0000000000
     35924       289  PYPG      C1            -36.3981862036       15.4889730382      -18.2418694500  MEMB      289             0.0000000000
     35925       289  PYPG      HA            -35.5434264741       15.7846847674      -18.8870527836  MEMB      289             0.0000000000
     35926       289  PYPG      HB            -36.4102368597       14.3990882142      -18.4571054915  MEMB      289             0.0000000000
     35927       289  PYPG      C2            -36.0839185255       15.7979885928      -16.7042462831  MEMB      289             0.0000000000
     35928       289  PYPG      HS            -35.2900701860       15.1327989497      -16.3021905931  MEMB      289             0.0000000000
     35929       289  PYPG      O21           -37.2560041463       15.6109795486      -15.9049851843  MEMB      289             0.0000000000
     35930       289  PYPG      C21           -37.6339338012       14.3293958287      -15.7696370663  MEMB      289             0.0000000000
     35931       289  PYPG      O22           -37.1357986810       13.3554096190      -16.3322505965  MEMB      289             0.0000000000
     35932       289  PYPG      C22           -38.6646940666       14.1859701413      -14.6351872252  MEMB      289             0.0000000000
     35933       289  PYPG      H2R           -38.4253714238       13.2500215862      -14.0865109162  MEMB      289             0.0000000000
     35934       289  PYPG      H2S           -39.6392965074       14.2545099904      -15.1641232020  MEMB      289             0.0000000000
     35935       289  PYPG      C3            -35.5159970109       17.1390963590      -16.3591448958  MEMB      289             0.0000000000
     35936       289  PYPG      HX            -34.7723993028       17.3767860440      -17.1496428241  MEMB      289             0.0000000000
     35937       289  PYPG      HY            -35.0061163223       17.1211910903      -15.3722193062  MEMB      289             0.0000000000
     35938       289  PYPG      O31           -36.4680672731       18.2432942308      -16.3683346453  MEMB      289             0.0000000000
     35939       289  PYPG      C31           -36.8008870376       18.7444485737      -15.1564425294  MEMB      289             0.0000000000
     35940       289  PYPG      O32           -36.3408934373       18.4053057012      -14.0227744374  MEMB      289             0.0000000000
     35941       289  PYPG      C32           -37.8107480432       19.9202764605      -15.3641877871  MEMB      289             0.0000000000
     35942       289  PYPG      H2X           -37.2414632641       20.8531868781      -15.1644023441  MEMB      289             0.0000000000
     35943       289  PYPG      H2Y           -38.2004471849       20.0156473875      -16.4002187003  MEMB      289             0.0000000000
     35944       289  PYPG      C23           -38.6029819739       15.4056755882      -13.6704730538  MEMB      289             0.0000000000
     35945       289  PYPG      H3R           -39.0346580439       16.3034365815      -14.1624096319  MEMB      289             0.0000000000
     35946       289  PYPG      H3S           -37.5618663263       15.6109460060      -13.3414389060  MEMB      289             0.0000000000
     35947       289  PYPG      C24           -39.4560521024       15.1414253539      -12.4221183245  MEMB      289             0.0000000000
     35948       289  PYPG      H4R           -39.1532764603       14.1749678844      -11.9653822791  MEMB      289             0.0000000000
     35949       289  PYPG      H4S           -40.5264554449       15.0248478713      -12.6959198569  MEMB      289             0.0000000000
     35950       289  PYPG      C25           -39.2933730174       16.3454719212      -11.4283621671  MEMB      289             0.0000000000
     35951       289  PYPG      H5R           -39.3622414419       17.2881271650      -12.0122962670  MEMB      289             0.0000000000
     35952       289  PYPG      H5S           -38.2534273896       16.2994746823      -11.0401374053  MEMB      289             0.0000000000
     35953       289  PYPG      C26           -40.1298456486       16.2326889711      -10.1602024351  MEMB      289             0.0000000000
     35954       289  PYPG      H6R           -41.2011645668       16.3310103470      -10.4375645005  MEMB      289             0.0000000000
     35955       289  PYPG      H6S           -39.8932100547       17.0748637415       -9.4753183594  MEMB      289             0.0000000000
     35956       289  PYPG      C27           -39.9719893326       14.8904641235       -9.3910460052  MEMB      289             0.0000000000
     35957       289  PYPG      H7R           -38.9247350337       14.6421786850       -9.1154848047  MEMB      289             0.0000000000
     35958       289  PYPG      H7S           -40.2968833239       14.0968153525      -10.0973648449  MEMB      289             0.0000000000
     35959       289  PYPG      C28           -40.8144088660       14.8966427831       -8.1244331303  MEMB      289             0.0000000000
     35960       289  PYPG      H8R           -40.5354216372       15.7363773909       -7.4526196447  MEMB      289             0.0000000000
     35961       289  PYPG      H8S           -40.4970563518       13.9571155491       -7.6235369866  MEMB      289             0.0000000000
     35962       289  PYPG      C29           -42.2739758243       14.8672736401       -8.4586551630  MEMB      289             0.0000000000
     35963       289  PYPG      H9R           -42.5526464529       14.2326587080       -9.3128246241  MEMB      289             0.0000000000
     35964       289  PYPG      C210          -43.1861246512       15.7774054609       -8.0752025707  MEMB      289             0.0000000000
     35965       289  PYPG      H10R          -44.2295327109       15.6307197434       -8.3910869074  MEMB      289             0.0000000000
     35966       289  PYPG      C211          -42.9197440303       17.0036355998       -7.2390457500  MEMB      289             0.0000000000
     35967       289  PYPG      H11R          -43.5641248155       17.8217999753       -7.6259586720  MEMB      289             0.0000000000
     35968       289  PYPG      H11S          -41.8679860615       17.3546581545       -7.3091147638  MEMB      289             0.0000000000
     35969       289  PYPG      C212          -43.1033264449       16.7483634359       -5.6825288543  MEMB      289             0.0000000000
     35970       289  PYPG      H12R          -42.8790908845       17.7563228700       -5.2725812412  MEMB      289             0.0000000000
     35971       289  PYPG      H12S          -42.2272999425       16.1269131190       -5.3984543955  MEMB      289             0.0000000000
     35972       289  PYPG      C213          -44.3346455677       16.0344151415       -5.1420419532  MEMB      289             0.0000000000
     35973       289  PYPG      H13R          -44.5058174778       15.0466936025       -5.6210281430  MEMB      289             0.0000000000
     35974       289  PYPG      H13S          -45.2465148500       16.6293302535       -5.3631566147  MEMB      289             0.0000000000
     35975       289  PYPG      C214          -44.1123321288       15.5843655900       -3.6820327398  MEMB      289             0.0000000000
     35976       289  PYPG      H14R          -45.0184395094       15.0471676962       -3.3288913920  MEMB      289             0.0000000000
     35977       289  PYPG      H14S          -43.3400471933       14.8118989232       -3.4790742163  MEMB      289             0.0000000000
     35978       289  PYPG      C215          -43.8242200056       16.7617067436       -2.7342020242  MEMB      289             0.0000000000
     35979       289  PYPG      H15R          -42.9187171152       17.3564631439       -2.9804748466  MEMB      289             0.0000000000
     35980       289  PYPG      H15S          -43.7170081654       16.2896289167       -1.7342179518  MEMB      289             0.0000000000
     35981       289  PYPG      C216          -44.9540872437       17.7722042042       -2.7692029227  MEMB      289             0.0000000000
     35982       289  PYPG      H16R          -44.6578714604       18.6388567607       -2.1403229876  MEMB      289             0.0000000000
     35983       289  PYPG      H16S          -45.9619620743       17.3827461535       -2.5106858057  MEMB      289             0.0000000000
     35984       289  PYPG      H16T          -45.1763722363       18.1779827491       -3.7792802172  MEMB      289             0.0000000000
     35985       289  PYPG      C33           -38.9088120390       19.7682214931      -14.3295453937  MEMB      289             0.0000000000
     35986       289  PYPG      H3X           -39.0820558879       18.6829629812      -14.1666911359  MEMB      289             0.0000000000
     35987       289  PYPG      H3Y           -39.7946519675       20.3525812518      -14.6583796706  MEMB      289             0.0000000000
     35988       289  PYPG      C34           -38.5456284234       20.3416004277      -12.9229559379  MEMB      289             0.0000000000
     35989       289  PYPG      H4X           -38.4034242253       21.4409581402      -12.9971953971  MEMB      289             0.0000000000
     35990       289  PYPG      H4Y           -37.5743645843       19.9069823384      -12.6034649766  MEMB      289             0.0000000000
     35991       289  PYPG      C35           -39.6421321568       20.2381421617      -11.8777835952  MEMB      289             0.0000000000
     35992       289  PYPG      H5X           -40.0654145081       19.2115732505      -11.8416011249  MEMB      289             0.0000000000
     35993       289  PYPG      H5Y           -40.4606691663       20.9775521065      -12.0104150562  MEMB      289             0.0000000000
     35994       289  PYPG      C36           -39.1737848382       20.6568319697      -10.4764253193  MEMB      289             0.0000000000
     35995       289  PYPG      H6X           -38.7647423097       21.6857094399      -10.3846847831  MEMB      289             0.0000000000
     35996       289  PYPG      H6Y           -38.3554517695       19.9606717301      -10.1935599699  MEMB      289             0.0000000000
     35997       289  PYPG      C37           -40.1597215093       20.4240430943       -9.2606049063  MEMB      289             0.0000000000
     35998       289  PYPG      H7X           -41.0685478002       21.0025941254       -9.5319623907  MEMB      289             0.0000000000
     35999       289  PYPG      H7Y           -40.4832137936       19.3627180974       -9.2034821506  MEMB      289             0.0000000000
     36000       289  PYPG      C38           -39.6446090705       20.6490091752       -7.8620639462  MEMB      289             0.0000000000
     36001       289  PYPG      H8X           -40.5227569021       20.7499820653       -7.1890252728  MEMB      289             0.0000000000
     36002       289  PYPG      H8Y           -39.0306096584       21.5742395245       -7.8263521428  MEMB      289             0.0000000000
     36003       289  PYPG      C39           -38.7583045438       19.4410567948       -7.3416988734  MEMB      289             0.0000000000
     36004       289  PYPG      H9X           -37.8329596442       19.3821639967       -7.9537361691  MEMB      289             0.0000000000
     36005       289  PYPG      H9Y           -39.2006183964       18.4379085246       -7.1617723050  MEMB      289             0.0000000000
     36006       289  PYPG      C310          -38.1510799824       19.8140671678       -5.9981823919  MEMB      289             0.0000000000
     36007       289  PYPG      H10X          -37.6768393702       20.8168046064       -6.0609073423  MEMB      289             0.0000000000
     36008       289  PYPG      H10Y          -37.3140623456       19.0992654310       -5.8472496353  MEMB      289             0.0000000000
     36009       289  PYPG      C311          -39.1585113502       19.6566624109       -4.8823273618  MEMB      289             0.0000000000
     36010       289  PYPG      H11X          -39.6502141422       18.6606219142       -4.9036017373  MEMB      289             0.0000000000
     36011       289  PYPG      H11Y          -39.8864942572       20.4853094149       -5.0153913081  MEMB      289             0.0000000000
     36012       289  PYPG      C312          -38.5541324985       19.8113132411       -3.4693817237  MEMB      289             0.0000000000
     36013       289  PYPG      H12X          -37.7223980194       19.1213256588       -3.2115917010  MEMB      289             0.0000000000
     36014       289  PYPG      H12Y          -38.0991962043       20.8186800442       -3.3572847360  MEMB      289             0.0000000000
     36015       289  PYPG      C313          -39.6564686027       19.6091496853       -2.3812641332  MEMB      289             0.0000000000
     36016       289  PYPG      H13X          -39.5931106670       20.5639325695       -1.8167338281  MEMB      289             0.0000000000
     36017       289  PYPG      H13Y          -40.6563737786       19.5889543795       -2.8651061323  MEMB      289             0.0000000000
     36018       289  PYPG      C314          -39.3621504014       18.4767377904       -1.3513236927  MEMB      289             0.0000000000
     36019       289  PYPG      H14X          -38.3536910467       18.6173419587       -0.9068441893  MEMB      289             0.0000000000
     36020       289  PYPG      H14Y          -40.0377537669       18.5173512336       -0.4702839831  MEMB      289             0.0000000000
     36021       289  PYPG      C315          -39.2955403370       17.2167657743       -2.1680817763  MEMB      289             0.0000000000
     36022       289  PYPG      H15X          -40.2488718168       16.9443871915       -2.6693705755  MEMB      289             0.0000000000
     36023       289  PYPG      H15Y          -38.5330158570       17.3357588669       -2.9672809677  MEMB      289             0.0000000000
     36024       289  PYPG      C316          -38.8174686868       16.0707540199       -1.2872061305  MEMB      289             0.0000000000
     36025       289  PYPG      H16X          -37.8112525950       16.3505437856       -0.9083026803  MEMB      289             0.0000000000
     36026       289  PYPG      H16Y          -38.7105108448       15.1080624343       -1.8313636403  MEMB      289             0.0000000000
     36027       289  PYPG      H16Z          -39.5636484689       16.0537934848       -0.4642546619  MEMB      289             0.0000000000
     36028       290  OYPE      N              37.6008500253       24.5675975543      -21.1720922741  MEMB      290             0.0000000000
     36029       290  OYPE      HN1            36.5677636146       24.6075748356      -21.2849387491  MEMB      290             0.0000000000
     36030       290  OYPE      HN2            37.8928165792       25.3868666501      -20.6018699983  MEMB      290             0.0000000000
     36031       290  OYPE      HN3            37.9578779982       24.8043745864      -22.1197566087  MEMB      290             0.0000000000
     36032       290  OYPE      C12            38.0938462438       23.3398699151      -20.4896212782  MEMB      290             0.0000000000
     36033       290  OYPE      H12A           39.1752295085       23.5906622295      -20.4445184175  MEMB      290             0.0000000000
     36034       290  OYPE      H12B           37.8850477182       22.3999517443      -21.0439479397  MEMB      290             0.0000000000
     36035       290  OYPE      C11            37.5787413722       23.3978728232      -19.0866387991  MEMB      290             0.0000000000
     36036       290  OYPE      H11A           38.0618126689       24.2441833905      -18.5530457244  MEMB      290             0.0000000000
     36037       290  OYPE      H11B           38.1699956047       22.5270324653      -18.7311437873  MEMB      290             0.0000000000
     36038       290  OYPE      P              35.1352130604       24.0181447707      -18.2836739506  MEMB      290             0.0000000000
     36039       290  OYPE      O13            33.7817297764       23.5836467929      -18.7223664995  MEMB      290             0.0000000000
     36040       290  OYPE      O14            35.5477800604       25.4160966172      -18.5592835931  MEMB      290             0.0000000000
     36041       290  OYPE      O11            35.4627655789       23.5560512631      -16.7789034291  MEMB      290             0.0000000000
     36042       290  OYPE      O12            36.1946762817       23.0936258989      -18.9074201746  MEMB      290             0.0000000000
     36043       290  OYPE      C1             34.8370888692       24.3251748526      -15.7238110554  MEMB      290             0.0000000000
     36044       290  OYPE      HA             34.5405256466       23.5308406686      -15.0058943237  MEMB      290             0.0000000000
     36045       290  OYPE      HB             33.9036267246       24.8417698296      -16.0338096273  MEMB      290             0.0000000000
     36046       290  OYPE      C2             35.7992507807       25.2942558016      -15.0024188441  MEMB      290             0.0000000000
     36047       290  OYPE      HS             36.2454427350       26.0613588030      -15.6708398387  MEMB      290             0.0000000000
     36048       290  OYPE      O21            36.8456642883       24.5962113926      -14.3101486297  MEMB      290             0.0000000000
     36049       290  OYPE      C21            37.8904580409       25.3492776456      -13.8463174196  MEMB      290             0.0000000000
     36050       290  OYPE      O22            38.0425306935       26.5037791051      -14.1306376800  MEMB      290             0.0000000000
     36051       290  OYPE      C22            38.8655024869       24.4485514044      -13.0493075963  MEMB      290             0.0000000000
     36052       290  OYPE      H2R            39.7297641975       24.1566956545      -13.6834943475  MEMB      290             0.0000000000
     36053       290  OYPE      H2S            38.3334180867       23.4763456278      -12.9716985907  MEMB      290             0.0000000000
     36054       290  OYPE      C3             34.8888223546       26.0594644571      -14.0115870066  MEMB      290             0.0000000000
     36055       290  OYPE      HX             34.0331810873       26.5935944530      -14.4773166204  MEMB      290             0.0000000000
     36056       290  OYPE      HY             35.5480326570       26.8600669953      -13.6130918021  MEMB      290             0.0000000000
     36057       290  OYPE      O31            34.4726616242       25.1615570563      -12.9461988532  MEMB      290             0.0000000000
     36058       290  OYPE      C31            35.0110875639       25.2517780388      -11.7019178589  MEMB      290             0.0000000000
     36059       290  OYPE      O32            35.9498638436       25.9672730385      -11.4026566718  MEMB      290             0.0000000000
     36060       290  OYPE      C32            34.3982188695       24.1061194608      -10.8277791290  MEMB      290             0.0000000000
     36061       290  OYPE      H2X            33.3054289623       24.0667026576      -11.0241917319  MEMB      290             0.0000000000
     36062       290  OYPE      H2Y            34.8521687752       23.1033815360      -10.9786666884  MEMB      290             0.0000000000
     36063       290  OYPE      C23            39.1730516900       24.9709284431      -11.6468358967  MEMB      290             0.0000000000
     36064       290  OYPE      H3R            38.2063664098       25.2507853424      -11.1761757728  MEMB      290             0.0000000000
     36065       290  OYPE      H3S            39.6635725744       25.9557695466      -11.8011023572  MEMB      290             0.0000000000
     36066       290  OYPE      C24            40.0671577627       24.1033541883      -10.7041998850  MEMB      290             0.0000000000
     36067       290  OYPE      H4R            40.7723323129       23.7114724218      -11.4680575262  MEMB      290             0.0000000000
     36068       290  OYPE      H4S            39.5411123171       23.2604396500      -10.2071160261  MEMB      290             0.0000000000
     36069       290  OYPE      C25            40.7946548434       24.9970088013       -9.6750949439  MEMB      290             0.0000000000
     36070       290  OYPE      H5R            41.5876987266       25.5340265711      -10.2381353439  MEMB      290             0.0000000000
     36071       290  OYPE      H5S            41.3766604773       24.3375988397       -8.9962959995  MEMB      290             0.0000000000
     36072       290  OYPE      C26            39.8528084136       25.9677570948       -9.0009405229  MEMB      290             0.0000000000
     36073       290  OYPE      H6R            39.5499038065       26.7065154300       -9.7734724430  MEMB      290             0.0000000000
     36074       290  OYPE      H6S            40.4587502201       26.4713912417       -8.2176730621  MEMB      290             0.0000000000
     36075       290  OYPE      C27            38.6264056216       25.4951814157       -8.1667011598  MEMB      290             0.0000000000
     36076       290  OYPE      H7R            38.8619880226       24.6454529360       -7.4908428985  MEMB      290             0.0000000000
     36077       290  OYPE      H7S            37.7863695967       25.1482609237       -8.8056893905  MEMB      290             0.0000000000
     36078       290  OYPE      C28            38.0590695584       26.6133655013       -7.3201321520  MEMB      290             0.0000000000
     36079       290  OYPE      H8R            38.9097158594       27.1353805983       -6.8320520010  MEMB      290             0.0000000000
     36080       290  OYPE      H8S            37.4553534800       26.1914218723       -6.4883797224  MEMB      290             0.0000000000
     36081       290  OYPE      C29            37.3192373041       27.7901729094       -7.9741611688  MEMB      290             0.0000000000
     36082       290  OYPE      H9R            37.4460190915       27.9752722944       -9.0510386097  MEMB      290             0.0000000000
     36083       290  OYPE      C210           36.5729023885       28.6832665376       -7.2967584447  MEMB      290             0.0000000000
     36084       290  OYPE      H10R           36.0502196704       29.4710252211       -7.8591097114  MEMB      290             0.0000000000
     36085       290  OYPE      C211           36.3027823096       28.7767109455       -5.8188989261  MEMB      290             0.0000000000
     36086       290  OYPE      H11R           36.3846562074       29.8409810983       -5.5107648968  MEMB      290             0.0000000000
     36087       290  OYPE      H11S           37.1300679276       28.2465681672       -5.3003731063  MEMB      290             0.0000000000
     36088       290  OYPE      C212           34.8751453811       28.2111979037       -5.4215744209  MEMB      290             0.0000000000
     36089       290  OYPE      H12R           34.8206355443       27.1738140894       -5.8155092378  MEMB      290             0.0000000000
     36090       290  OYPE      H12S           34.1384553743       28.8481501082       -5.9562710219  MEMB      290             0.0000000000
     36091       290  OYPE      C213           34.5915972034       28.2691099167       -3.9236567702  MEMB      290             0.0000000000
     36092       290  OYPE      H13R           33.5588403528       27.8872795961       -3.7755353687  MEMB      290             0.0000000000
     36093       290  OYPE      H13S           34.7291581925       29.3084894515       -3.5561125425  MEMB      290             0.0000000000
     36094       290  OYPE      C214           35.4797937234       27.3374822521       -2.9865586422  MEMB      290             0.0000000000
     36095       290  OYPE      H14R           36.5618153377       27.5440814333       -3.1310133557  MEMB      290             0.0000000000
     36096       290  OYPE      H14S           35.2121645980       26.2745725349       -3.1679922798  MEMB      290             0.0000000000
     36097       290  OYPE      C215           35.2169159349       27.5970588792       -1.4753672013  MEMB      290             0.0000000000
     36098       290  OYPE      H15R           34.1360110316       27.5987870756       -1.2185348049  MEMB      290             0.0000000000
     36099       290  OYPE      H15S           35.5226319103       28.6560753658       -1.3362876910  MEMB      290             0.0000000000
     36100       290  OYPE      C216           35.8605757817       26.6799182249       -0.4039327976  MEMB      290             0.0000000000
     36101       290  OYPE      H16R           36.1912910736       27.1892084043        0.5264277014  MEMB      290             0.0000000000
     36102       290  OYPE      H16S           36.7782305955       26.3035612059       -0.9045183471  MEMB      290             0.0000000000
     36103       290  OYPE      H16T           35.1850019086       25.8401731698       -0.1342119467  MEMB      290             0.0000000000
     36104       290  OYPE      C33            34.6540564350       24.3521796426       -9.2825325397  MEMB      290             0.0000000000
     36105       290  OYPE      H3X            34.1251247439       25.2798826264       -8.9760706486  MEMB      290             0.0000000000
     36106       290  OYPE      H3Y            35.7252475726       24.5398011392       -9.0552243847  MEMB      290             0.0000000000
     36107       290  OYPE      C34            34.1659209599       23.2615298264       -8.3307449331  MEMB      290             0.0000000000
     36108       290  OYPE      H4X            34.1097886739       23.6357814168       -7.2861853577  MEMB      290             0.0000000000
     36109       290  OYPE      H4Y            33.0778553227       23.2250209167       -8.5523334327  MEMB      290             0.0000000000
     36110       290  OYPE      C35            34.7172894812       21.8413392948       -8.4793931138  MEMB      290             0.0000000000
     36111       290  OYPE      H5X            35.1975564542       21.8365494318       -9.4812125119  MEMB      290             0.0000000000
     36112       290  OYPE      H5Y            33.9101277003       21.0791168567       -8.5221478063  MEMB      290             0.0000000000
     36113       290  OYPE      C36            35.6623736914       21.2664016972       -7.5066724099  MEMB      290             0.0000000000
     36114       290  OYPE      H6X            35.3522045810       21.2257121972       -6.4406228785  MEMB      290             0.0000000000
     36115       290  OYPE      H6Y            36.1213724259       20.2812158868       -7.7369982502  MEMB      290             0.0000000000
     36116       290  OYPE      C37            36.8776577427       22.2573232677       -7.3113850965  MEMB      290             0.0000000000
     36117       290  OYPE      H7X            37.3247452031       22.4666778893       -8.3066763959  MEMB      290             0.0000000000
     36118       290  OYPE      H7Y            36.5340221935       23.2090386506       -6.8526116187  MEMB      290             0.0000000000
     36119       290  OYPE      C38            37.9951945740       21.7599906423       -6.4170455698  MEMB      290             0.0000000000
     36120       290  OYPE      H8X            38.4936536267       20.9254256499       -6.9549686350  MEMB      290             0.0000000000
     36121       290  OYPE      H8Y            38.8353480233       22.4805427700       -6.3207780971  MEMB      290             0.0000000000
     36122       290  OYPE      C39            37.7067058980       21.3758881345       -4.9967199299  MEMB      290             0.0000000000
     36123       290  OYPE      H9X            37.2558663404       20.3728716139       -5.0232028409  MEMB      290             0.0000000000
     36124       290  OYPE      C310           37.7918828632       22.1260079658       -3.8826173500  MEMB      290             0.0000000000
     36125       290  OYPE      H10X           37.3169345551       21.7759800713       -2.9542289859  MEMB      290             0.0000000000
     36126       290  OYPE      C311           38.2070968362       23.5994081408       -3.8736743951  MEMB      290             0.0000000000
     36127       290  OYPE      H11X           39.0212367280       23.8497259632       -4.5870040710  MEMB      290             0.0000000000
     36128       290  OYPE      H11Y           37.3755555389       24.1668977724       -4.3435853817  MEMB      290             0.0000000000
     36129       290  OYPE      C312           38.4894576688       24.3108282877       -2.5733870961  MEMB      290             0.0000000000
     36130       290  OYPE      H12X           37.5966345462       24.2258775092       -1.9176651761  MEMB      290             0.0000000000
     36131       290  OYPE      H12Y           38.5589146073       25.4040712327       -2.7586348013  MEMB      290             0.0000000000
     36132       290  OYPE      C313           39.8481611919       24.0444560740       -1.9203615605  MEMB      290             0.0000000000
     36133       290  OYPE      H13X           40.5876427033       23.6923146998       -2.6710178640  MEMB      290             0.0000000000
     36134       290  OYPE      H13Y           40.3682075703       24.9490347005       -1.5387715323  MEMB      290             0.0000000000
     36135       290  OYPE      C314           39.8517684905       23.0278940888       -0.7294667323  MEMB      290             0.0000000000
     36136       290  OYPE      H14X           40.8192186368       22.9943479683       -0.1842732982  MEMB      290             0.0000000000
     36137       290  OYPE      H14Y           39.7061909482       22.0158962606       -1.1641938567  MEMB      290             0.0000000000
     36138       290  OYPE      C315           38.8335381630       23.3584716106        0.3897498223  MEMB      290             0.0000000000
     36139       290  OYPE      H15X           37.7959500729       23.2917326420       -0.0017596911  MEMB      290             0.0000000000
     36140       290  OYPE      H15Y           38.9744746401       24.3811681406        0.8002973189  MEMB      290             0.0000000000
     36141       290  OYPE      C316           38.9582129173       22.3855281580        1.5327506089  MEMB      290             0.0000000000
     36142       290  OYPE      H16X           39.9730290815       22.5893129324        1.9364099698  MEMB      290             0.0000000000
     36143       290  OYPE      H16Y           38.8777960260       21.3534604462        1.1294020137  MEMB      290             0.0000000000
     36144       290  OYPE      C317           38.0965393380       22.5903475381        2.8129131878  MEMB      290             0.0000000000
     36145       290  OYPE      H17X           38.3699142229       23.5565092612        3.2884312527  MEMB      290             0.0000000000
     36146       290  OYPE      H17Y           38.2187901579       21.6915948683        3.4544880799  MEMB      290             0.0000000000
     36147       290  OYPE      C318           36.5286705453       22.7103919035        2.4314199665  MEMB      290             0.0000000000
     36148       290  OYPE      H18X           35.8857969456       22.7482604788        3.3367375617  MEMB      290             0.0000000000
     36149       290  OYPE      H18Y           36.3714993318       23.6298056098        1.8278501901  MEMB      290             0.0000000000
     36150       290  OYPE      H18Z           36.2515510325       21.8628990774        1.7686354663  MEMB      290             0.0000000000
     36151       291  PMPE      N             -15.2162417902      -40.2615055086      -20.3607157881  MEMB      291             0.0000000000
     36152       291  PMPE      HN1           -15.0225630517      -40.3386167648      -19.3418230420  MEMB      291             0.0000000000
     36153       291  PMPE      HN2           -15.2596440585      -41.1928524513      -20.8214859009  MEMB      291             0.0000000000
     36154       291  PMPE      HN3           -14.4044891971      -39.7708379106      -20.7872168535  MEMB      291             0.0000000000
     36155       291  PMPE      C12           -16.5618971479      -39.6327730750      -20.8288687909  MEMB      291             0.0000000000
     36156       291  PMPE      H12A          -16.5396959786      -39.7302292066      -21.9353633598  MEMB      291             0.0000000000
     36157       291  PMPE      H12B          -16.5152304977      -38.5531989911      -20.5706769826  MEMB      291             0.0000000000
     36158       291  PMPE      C11           -17.8114080666      -40.3267264386      -20.1593969490  MEMB      291             0.0000000000
     36159       291  PMPE      H11A          -17.6319912100      -41.3944512756      -20.4085839511  MEMB      291             0.0000000000
     36160       291  PMPE      H11B          -18.7029427146      -39.8457843590      -20.6156662329  MEMB      291             0.0000000000
     36161       291  PMPE      P             -18.7090626303      -39.0646880615      -18.0842459845  MEMB      291             0.0000000000
     36162       291  PMPE      O13           -18.9547375675      -38.0181347320      -19.0994935835  MEMB      291             0.0000000000
     36163       291  PMPE      O14           -18.1095612900      -38.5501788898      -16.8672033344  MEMB      291             0.0000000000
     36164       291  PMPE      O11           -20.0306830766      -39.9450337687      -17.8770481750  MEMB      291             0.0000000000
     36165       291  PMPE      O12           -17.7532484372      -40.1488883352      -18.7230273960  MEMB      291             0.0000000000
     36166       291  PMPE      C1            -20.0697036946      -41.1584541010      -17.1244686169  MEMB      291             0.0000000000
     36167       291  PMPE      HA            -19.4144097866      -41.0983681606      -16.2293146505  MEMB      291             0.0000000000
     36168       291  PMPE      HB            -19.7433731363      -42.0383612261      -17.7191054296  MEMB      291             0.0000000000
     36169       291  PMPE      C2            -21.4783206202      -41.6893849341      -16.7316730307  MEMB      291             0.0000000000
     36170       291  PMPE      HS            -21.9793867615      -41.9168842704      -17.6968143836  MEMB      291             0.0000000000
     36171       291  PMPE      O21           -22.1541809293      -40.7650170127      -15.8731812253  MEMB      291             0.0000000000
     36172       291  PMPE      C21           -22.7830759480      -39.6395728482      -16.4873029558  MEMB      291             0.0000000000
     36173       291  PMPE      O22           -22.5891644058      -39.3403409592      -17.6286639415  MEMB      291             0.0000000000
     36174       291  PMPE      C22           -23.5295737439      -38.8780389652      -15.5171083914  MEMB      291             0.0000000000
     36175       291  PMPE      H2R           -23.8195664802      -39.5973937799      -14.7216501641  MEMB      291             0.0000000000
     36176       291  PMPE      H2S           -24.4020034779      -38.3549483663      -15.9638332965  MEMB      291             0.0000000000
     36177       291  PMPE      C3            -21.4130091821      -43.0080910562      -15.9418416969  MEMB      291             0.0000000000
     36178       291  PMPE      HX            -21.2348285517      -43.7228202240      -16.7735477906  MEMB      291             0.0000000000
     36179       291  PMPE      HY            -22.3962157564      -43.2132952080      -15.4669554116  MEMB      291             0.0000000000
     36180       291  PMPE      O31           -20.4246159384      -43.0956845484      -14.9114448589  MEMB      291             0.0000000000
     36181       291  PMPE      C31           -20.7353276145      -42.8883626371      -13.6561119116  MEMB      291             0.0000000000
     36182       291  PMPE      O32           -21.8166083374      -42.6196430637      -13.1636484425  MEMB      291             0.0000000000
     36183       291  PMPE      C32           -19.4465502097      -42.9739464026      -12.8686060234  MEMB      291             0.0000000000
     36184       291  PMPE      H2X           -18.8717855352      -42.1277252125      -13.3020532076  MEMB      291             0.0000000000
     36185       291  PMPE      H2Y           -18.9446456975      -43.9194734372      -13.1659140583  MEMB      291             0.0000000000
     36186       291  PMPE      C23           -22.5428409969      -37.8000033621      -14.9275918261  MEMB      291             0.0000000000
     36187       291  PMPE      H3R           -23.0420634050      -37.2225107024      -14.1203744674  MEMB      291             0.0000000000
     36188       291  PMPE      H3S           -22.3279364032      -37.0113894773      -15.6800712199  MEMB      291             0.0000000000
     36189       291  PMPE      C24           -21.1913970845      -38.3548553735      -14.4487866962  MEMB      291             0.0000000000
     36190       291  PMPE      H4R           -20.6751126614      -38.5746931739      -15.4076623802  MEMB      291             0.0000000000
     36191       291  PMPE      H4S           -21.3084343093      -39.3225664031      -13.9157210332  MEMB      291             0.0000000000
     36192       291  PMPE      C25           -20.4512687176      -37.4205069798      -13.5145255292  MEMB      291             0.0000000000
     36193       291  PMPE      H5R           -21.1351132814      -37.2626845773      -12.6532652038  MEMB      291             0.0000000000
     36194       291  PMPE      H5S           -20.2101163239      -36.4506181501      -13.9997907226  MEMB      291             0.0000000000
     36195       291  PMPE      C26           -19.0540235070      -37.9919233668      -12.9321244046  MEMB      291             0.0000000000
     36196       291  PMPE      H6R           -18.3616982788      -38.3039133490      -13.7430925233  MEMB      291             0.0000000000
     36197       291  PMPE      H6S           -19.3390929032      -38.9122653467      -12.3789272237  MEMB      291             0.0000000000
     36198       291  PMPE      C27           -18.3882878680      -36.9833512222      -11.9615995388  MEMB      291             0.0000000000
     36199       291  PMPE      H7R           -18.1484551487      -36.0316189224      -12.4821827358  MEMB      291             0.0000000000
     36200       291  PMPE      H7S           -17.4431774217      -37.5061122526      -11.7011999122  MEMB      291             0.0000000000
     36201       291  PMPE      C28           -19.2455548839      -36.7528973273      -10.7328763365  MEMB      291             0.0000000000
     36202       291  PMPE      H8R           -20.1869783476      -36.2390931562      -11.0227866235  MEMB      291             0.0000000000
     36203       291  PMPE      H8S           -18.7050471504      -35.9708379347      -10.1579370339  MEMB      291             0.0000000000
     36204       291  PMPE      C29           -19.3724661945      -37.8714538190       -9.7099181026  MEMB      291             0.0000000000
     36205       291  PMPE      H9R           -19.9013515421      -38.7227647608      -10.1893671371  MEMB      291             0.0000000000
     36206       291  PMPE      C217          -19.9628952327      -37.4366504490       -8.3597908946  MEMB      291             0.0000000000
     36207       291  PMPE      H17R          -20.7896070728      -38.1102740178       -8.1709308257  MEMB      291             0.0000000000
     36208       291  PMPE      H17S          -19.8926931035      -36.3681833854       -8.1974977307  MEMB      291             0.0000000000
     36209       291  PMPE      C210          -18.5571745076      -38.0514371167       -8.4545803251  MEMB      291             0.0000000000
     36210       291  PMPE      H10R          -18.3932393146      -39.0899089031       -8.0953834339  MEMB      291             0.0000000000
     36211       291  PMPE      C211          -17.3980997855      -37.0977295872       -8.0634170109  MEMB      291             0.0000000000
     36212       291  PMPE      H11R          -17.8317631930      -36.0843834721       -8.2026520945  MEMB      291             0.0000000000
     36213       291  PMPE      H11S          -16.6433814257      -37.2296575859       -8.8679760325  MEMB      291             0.0000000000
     36214       291  PMPE      C212          -16.8580760678      -37.2799123013       -6.6300501037  MEMB      291             0.0000000000
     36215       291  PMPE      H12R          -15.9405439648      -36.6582269910       -6.7072738291  MEMB      291             0.0000000000
     36216       291  PMPE      H12S          -16.5152802765      -38.3286520245       -6.4998318744  MEMB      291             0.0000000000
     36217       291  PMPE      C213          -17.8593695087      -36.8902436980       -5.5459879204  MEMB      291             0.0000000000
     36218       291  PMPE      H13R          -18.8500201482      -37.3679268792       -5.7033126178  MEMB      291             0.0000000000
     36219       291  PMPE      H13S          -17.8985336226      -35.7996707400       -5.7544048161  MEMB      291             0.0000000000
     36220       291  PMPE      C214          -17.2700032596      -37.1925776333       -4.2224728592  MEMB      291             0.0000000000
     36221       291  PMPE      H14R          -16.6033117862      -36.3439167148       -3.9586206389  MEMB      291             0.0000000000
     36222       291  PMPE      H14S          -16.5994807371      -38.0744756733       -4.3059972354  MEMB      291             0.0000000000
     36223       291  PMPE      C215          -18.3389314907      -37.7526148328       -3.2556664220  MEMB      291             0.0000000000
     36224       291  PMPE      H15R          -17.8198065916      -38.1363073969       -2.3514489511  MEMB      291             0.0000000000
     36225       291  PMPE      H15S          -19.1248873404      -38.5030600217       -3.4868075934  MEMB      291             0.0000000000
     36226       291  PMPE      C216          -19.0806297332      -36.5185454440       -2.6271077300  MEMB      291             0.0000000000
     36227       291  PMPE      H16R          -18.4123132039      -35.7228910815       -2.2339055539  MEMB      291             0.0000000000
     36228       291  PMPE      H16S          -19.6008682475      -35.9400118894       -3.4201844200  MEMB      291             0.0000000000
     36229       291  PMPE      H16T          -19.8778109139      -36.8448434142       -1.9254276554  MEMB      291             0.0000000000
     36230       291  PMPE      C33           -19.6403097019      -42.5740409866      -11.3812713985  MEMB      291             0.0000000000
     36231       291  PMPE      H3X           -20.1266628341      -43.4086979209      -10.8325188867  MEMB      291             0.0000000000
     36232       291  PMPE      H3Y           -20.2820701833      -41.6705350985      -11.3029023810  MEMB      291             0.0000000000
     36233       291  PMPE      C34           -18.2699975811      -42.3209816194      -10.7865454983  MEMB      291             0.0000000000
     36234       291  PMPE      H4X           -17.7792997503      -41.5931730473      -11.4675963878  MEMB      291             0.0000000000
     36235       291  PMPE      H4Y           -17.7385492236      -43.2935542034      -10.7091749283  MEMB      291             0.0000000000
     36236       291  PMPE      C35           -18.3403001786      -41.5781065281       -9.4145316084  MEMB      291             0.0000000000
     36237       291  PMPE      H5X           -18.7121592584      -40.5971825538       -9.7803595358  MEMB      291             0.0000000000
     36238       291  PMPE      H5Y           -17.3415207613      -41.4725279207       -8.9395436804  MEMB      291             0.0000000000
     36239       291  PMPE      C36           -19.3491012657      -42.2114487822       -8.3342831104  MEMB      291             0.0000000000
     36240       291  PMPE      H6X           -18.9995436636      -43.2659523637       -8.3466531825  MEMB      291             0.0000000000
     36241       291  PMPE      H6Y           -20.3646663025      -42.0772065662       -8.7643152404  MEMB      291             0.0000000000
     36242       291  PMPE      C37           -19.3032243784      -41.5821960437       -6.9272411827  MEMB      291             0.0000000000
     36243       291  PMPE      H7X           -19.9820559041      -41.9973678287       -6.1519075970  MEMB      291             0.0000000000
     36244       291  PMPE      H7Y           -19.7091423757      -40.5505105602       -6.8552904361  MEMB      291             0.0000000000
     36245       291  PMPE      C38           -17.9163027483      -41.4689987210       -6.2260481472  MEMB      291             0.0000000000
     36246       291  PMPE      H8X           -17.2392576925      -40.8345414762       -6.8371092462  MEMB      291             0.0000000000
     36247       291  PMPE      H8Y           -17.4881626674      -42.4920918623       -6.2916048655  MEMB      291             0.0000000000
     36248       291  PMPE      C39           -18.0487704960      -40.9252703838       -4.7668226497  MEMB      291             0.0000000000
     36249       291  PMPE      H9X           -18.9046668242      -41.4185856320       -4.2584901847  MEMB      291             0.0000000000
     36250       291  PMPE      H9Y           -18.1835370260      -39.8227568797       -4.7418658769  MEMB      291             0.0000000000
     36251       291  PMPE      C310          -16.8420609929      -41.0131604729       -3.8674794366  MEMB      291             0.0000000000
     36252       291  PMPE      H10X          -17.1175180749      -40.4621236920       -2.9429243076  MEMB      291             0.0000000000
     36253       291  PMPE      H10Y          -15.9958975622      -40.4501430367       -4.3161890853  MEMB      291             0.0000000000
     36254       291  PMPE      C311          -16.2978719593      -42.4453803992       -3.6111270798  MEMB      291             0.0000000000
     36255       291  PMPE      H11X          -15.6095332212      -42.3583150201       -2.7434112417  MEMB      291             0.0000000000
     36256       291  PMPE      H11Y          -15.6394754378      -42.8341464577       -4.4171642845  MEMB      291             0.0000000000
     36257       291  PMPE      C312          -17.3233770549      -43.5535149068       -3.2190803911  MEMB      291             0.0000000000
     36258       291  PMPE      H12X          -16.7705035965      -44.5098930748       -3.1007910089  MEMB      291             0.0000000000
     36259       291  PMPE      H12Y          -18.0135910027      -43.6681197360       -4.0820931099  MEMB      291             0.0000000000
     36260       291  PMPE      C313          -18.2087274837      -43.2078361474       -1.9834926422  MEMB      291             0.0000000000
     36261       291  PMPE      H13X          -18.9500473920      -44.0107394485       -1.7832125801  MEMB      291             0.0000000000
     36262       291  PMPE      H13Y          -18.8203297159      -42.3680140085       -2.3771452845  MEMB      291             0.0000000000
     36263       291  PMPE      C314          -17.4928424497      -43.1127127033       -0.6491466973  MEMB      291             0.0000000000
     36264       291  PMPE      H14X          -16.6442526332      -42.4012748179       -0.7389919876  MEMB      291             0.0000000000
     36265       291  PMPE      H14Y          -17.1273958615      -44.1093128577       -0.3211864023  MEMB      291             0.0000000000
     36266       291  PMPE      C315          -18.2734093702      -42.5867756394        0.5941101992  MEMB      291             0.0000000000
     36267       291  PMPE      H15X          -17.5718979658      -42.4266143989        1.4406028665  MEMB      291             0.0000000000
     36268       291  PMPE      H15Y          -19.0727406053      -43.3477938751        0.7215538555  MEMB      291             0.0000000000
     36269       291  PMPE      C316          -18.9972675346      -41.2636359400        0.2962413220  MEMB      291             0.0000000000
     36270       291  PMPE      H16X          -19.8780352859      -41.4877480826       -0.3427761988  MEMB      291             0.0000000000
     36271       291  PMPE      H16Y          -18.2622271902      -40.6583215424       -0.2761502388  MEMB      291             0.0000000000
     36272       291  PMPE      H16Z          -19.4110125689      -40.7105596367        1.1664382705  MEMB      291             0.0000000000
     36273       292  QMPE      N              23.8973298329      -33.4488933613      -17.1486038823  MEMB      292             0.0000000000
     36274       292  QMPE      HN1            22.9904998200      -33.7679400989      -17.5454266706  MEMB      292             0.0000000000
     36275       292  QMPE      HN2            24.3387599447      -34.0978318167      -16.4662416260  MEMB      292             0.0000000000
     36276       292  QMPE      HN3            23.8561726477      -32.5800775732      -16.5784587788  MEMB      292             0.0000000000
     36277       292  QMPE      C12            24.6786789046      -33.2932661841      -18.3864849001  MEMB      292             0.0000000000
     36278       292  QMPE      H12A           25.5915343471      -32.6900604857      -18.1937187251  MEMB      292             0.0000000000
     36279       292  QMPE      H12B           24.1218075728      -32.9368137837      -19.2793213711  MEMB      292             0.0000000000
     36280       292  QMPE      C11            25.1345673964      -34.7603201775      -18.8170090333  MEMB      292             0.0000000000
     36281       292  QMPE      H11A           25.7399328374      -35.1999894426      -17.9957023961  MEMB      292             0.0000000000
     36282       292  QMPE      H11B           25.7818553880      -34.7663151556      -19.7199505389  MEMB      292             0.0000000000
     36283       292  QMPE      P              24.4841678907      -37.1583984328      -19.6045737466  MEMB      292             0.0000000000
     36284       292  QMPE      O13            25.7982634171      -37.6627646621      -19.0442363243  MEMB      292             0.0000000000
     36285       292  QMPE      O14            24.2803114596      -37.1718729634      -21.0973421051  MEMB      292             0.0000000000
     36286       292  QMPE      O11            23.3773027309      -37.9614491179      -18.8776582892  MEMB      292             0.0000000000
     36287       292  QMPE      O12            24.0977055378      -35.7036335223      -19.0240917058  MEMB      292             0.0000000000
     36288       292  QMPE      C1             23.0643954612      -39.2806232679      -19.2861120894  MEMB      292             0.0000000000
     36289       292  QMPE      HA             23.9932053115      -39.7559213126      -19.6678515481  MEMB      292             0.0000000000
     36290       292  QMPE      HB             22.3015803034      -39.3137422335      -20.0931667235  MEMB      292             0.0000000000
     36291       292  QMPE      C2             22.6456081500      -40.1237645698      -17.9424637827  MEMB      292             0.0000000000
     36292       292  QMPE      HS             22.1662240895      -41.0779849275      -18.2490170853  MEMB      292             0.0000000000
     36293       292  QMPE      O21            21.8165333917      -39.3482606365      -17.0097350427  MEMB      292             0.0000000000
     36294       292  QMPE      C21            20.6089225010      -39.0057010852      -17.4169004724  MEMB      292             0.0000000000
     36295       292  QMPE      O22            20.0640415559      -39.3062057583      -18.4402879558  MEMB      292             0.0000000000
     36296       292  QMPE      C22            20.0541343225      -38.0206818415      -16.4058101557  MEMB      292             0.0000000000
     36297       292  QMPE      H2R            19.5745286678      -37.1737503604      -16.9415399001  MEMB      292             0.0000000000
     36298       292  QMPE      H2S            20.8788235103      -37.6858149569      -15.7409244811  MEMB      292             0.0000000000
     36299       292  QMPE      C3             23.9362867254      -40.4834378410      -17.1710183359  MEMB      292             0.0000000000
     36300       292  QMPE      HX             24.5040424993      -41.2436732601      -17.7489600229  MEMB      292             0.0000000000
     36301       292  QMPE      HY             23.5670553128      -41.0496324369      -16.2893083064  MEMB      292             0.0000000000
     36302       292  QMPE      O31            24.5967839764      -39.2610947281      -16.7999054323  MEMB      292             0.0000000000
     36303       292  QMPE      C31            24.6392475396      -38.8784081582      -15.5303995034  MEMB      292             0.0000000000
     36304       292  QMPE      O32            24.4175651226      -39.5650668103      -14.5525501882  MEMB      292             0.0000000000
     36305       292  QMPE      C32            25.1027028833      -37.4155205580      -15.5455789533  MEMB      292             0.0000000000
     36306       292  QMPE      H2X            25.9658233248      -37.2783360134      -14.8596312683  MEMB      292             0.0000000000
     36307       292  QMPE      H2Y            25.3788368451      -37.1191701034      -16.5801065068  MEMB      292             0.0000000000
     36308       292  QMPE      C23            18.9010480370      -38.6494604234      -15.5738848327  MEMB      292             0.0000000000
     36309       292  QMPE      H3R            19.3185695430      -39.6285381050      -15.2554447730  MEMB      292             0.0000000000
     36310       292  QMPE      H3S            18.0117513679      -38.8047975348      -16.2214511942  MEMB      292             0.0000000000
     36311       292  QMPE      C24            18.6176525062      -37.7864811133      -14.3418498183  MEMB      292             0.0000000000
     36312       292  QMPE      H4R            17.6182390549      -38.2097052392      -14.1044149635  MEMB      292             0.0000000000
     36313       292  QMPE      H4S            18.4910164731      -36.7168825177      -14.6143254270  MEMB      292             0.0000000000
     36314       292  QMPE      C25            19.5787817622      -38.0197498743      -13.2184802021  MEMB      292             0.0000000000
     36315       292  QMPE      H5R            19.7674037485      -37.0646067590      -12.6832752447  MEMB      292             0.0000000000
     36316       292  QMPE      H5S            20.5449070737      -38.5074841213      -13.4695538597  MEMB      292             0.0000000000
     36317       292  QMPE      C26            19.0616213821      -38.9528629947      -12.0377601410  MEMB      292             0.0000000000
     36318       292  QMPE      H6R            18.7912581667      -39.9728449391      -12.3854119823  MEMB      292             0.0000000000
     36319       292  QMPE      H6S            18.1215497096      -38.4879648360      -11.6710780903  MEMB      292             0.0000000000
     36320       292  QMPE      C27            20.0516105405      -39.1686342448      -10.9357359737  MEMB      292             0.0000000000
     36321       292  QMPE      H7R            20.6010152653      -38.2390564636      -10.6742772785  MEMB      292             0.0000000000
     36322       292  QMPE      H7S            20.7436919921      -39.9372556399      -11.3414029371  MEMB      292             0.0000000000
     36323       292  QMPE      C28            19.4218959349      -39.5214302927       -9.6446758416  MEMB      292             0.0000000000
     36324       292  QMPE      H8R            18.7529103460      -40.4070761050       -9.6937717617  MEMB      292             0.0000000000
     36325       292  QMPE      H8S            18.8248882931      -38.6409911496       -9.3241608101  MEMB      292             0.0000000000
     36326       292  QMPE      C29            20.5486564886      -39.6537289792       -8.5292903232  MEMB      292             0.0000000000
     36327       292  QMPE      H9R            21.2029537425      -38.7936204903       -8.2715507998  MEMB      292             0.0000000000
     36328       292  QMPE      C217           21.3250940661      -40.9464700012       -8.4157385979  MEMB      292             0.0000000000
     36329       292  QMPE      H17R           20.9498734726      -41.7314600613       -9.0606329522  MEMB      292             0.0000000000
     36330       292  QMPE      H17S           22.3460328042      -40.7215529206       -8.1329218007  MEMB      292             0.0000000000
     36331       292  QMPE      C210           20.4707736557      -40.5128908691       -7.2178426258  MEMB      292             0.0000000000
     36332       292  QMPE      H10R           21.1403276617      -40.1276099603       -6.4193587220  MEMB      292             0.0000000000
     36333       292  QMPE      C211           19.2482935241      -41.2744122588       -6.8268593113  MEMB      292             0.0000000000
     36334       292  QMPE      H11R           18.6694951913      -41.4820404321       -7.7521722456  MEMB      292             0.0000000000
     36335       292  QMPE      H11S           19.5479953753      -42.2950903399       -6.5063659060  MEMB      292             0.0000000000
     36336       292  QMPE      C212           18.4292000165      -40.4595472317       -5.8514726252  MEMB      292             0.0000000000
     36337       292  QMPE      H12R           17.4541264426      -40.9626955553       -5.6771331497  MEMB      292             0.0000000000
     36338       292  QMPE      H12S           18.0412780301      -39.4659712033       -6.1623497360  MEMB      292             0.0000000000
     36339       292  QMPE      C213           19.1051381843      -40.1896732214       -4.5638112529  MEMB      292             0.0000000000
     36340       292  QMPE      H13R           18.4508755365      -39.4537208304       -4.0493834425  MEMB      292             0.0000000000
     36341       292  QMPE      H13S           20.0323230766      -39.5816698408       -4.6343850900  MEMB      292             0.0000000000
     36342       292  QMPE      C214           19.3632634929      -41.3207726825       -3.5420426174  MEMB      292             0.0000000000
     36343       292  QMPE      H14R           19.4945968952      -40.9409898289       -2.5062631646  MEMB      292             0.0000000000
     36344       292  QMPE      H14S           20.2046795068      -41.9652810790       -3.8751317561  MEMB      292             0.0000000000
     36345       292  QMPE      C215           18.1498014204      -42.3052049863       -3.4248535982  MEMB      292             0.0000000000
     36346       292  QMPE      H15R           18.1641498237      -42.9305723967       -4.3430214976  MEMB      292             0.0000000000
     36347       292  QMPE      H15S           17.2389957654      -41.6708591467       -3.4734242572  MEMB      292             0.0000000000
     36348       292  QMPE      C216           18.0475721900      -43.1438127921       -2.1506381306  MEMB      292             0.0000000000
     36349       292  QMPE      H16R           17.1245877268      -43.7417298506       -2.3084861314  MEMB      292             0.0000000000
     36350       292  QMPE      H16S           17.9407852655      -42.4152162322       -1.3187331950  MEMB      292             0.0000000000
     36351       292  QMPE      H16T           18.9900909885      -43.7318553097       -2.1370256148  MEMB      292             0.0000000000
     36352       292  QMPE      C33            23.9679266871      -36.5544702800      -15.1359919402  MEMB      292             0.0000000000
     36353       292  QMPE      H3X            23.0004042909      -36.8766643967      -15.5769141764  MEMB      292             0.0000000000
     36354       292  QMPE      H3Y            24.1333150028      -35.5354134225      -15.5464682851  MEMB      292             0.0000000000
     36355       292  QMPE      C34            23.8519881026      -36.3517927628      -13.6301196206  MEMB      292             0.0000000000
     36356       292  QMPE      H4X            24.8144760699      -35.9987118373      -13.2020171510  MEMB      292             0.0000000000
     36357       292  QMPE      H4Y            23.5345335282      -37.2336400383      -13.0335554094  MEMB      292             0.0000000000
     36358       292  QMPE      C35            22.7950153865      -35.2812768316      -13.2629622900  MEMB      292             0.0000000000
     36359       292  QMPE      H5X            22.1039186384      -35.3076560488      -14.1324508199  MEMB      292             0.0000000000
     36360       292  QMPE      H5Y            23.3496691853      -34.3186605742      -13.2700492700  MEMB      292             0.0000000000
     36361       292  QMPE      C36            22.1800565277      -35.2464004706      -11.8968874344  MEMB      292             0.0000000000
     36362       292  QMPE      H6X            21.6639109618      -36.2207576778      -11.7607163887  MEMB      292             0.0000000000
     36363       292  QMPE      H6Y            21.4989377453      -34.3838612853      -11.7343321445  MEMB      292             0.0000000000
     36364       292  QMPE      C37            23.1709084178      -35.0694663103      -10.6736731508  MEMB      292             0.0000000000
     36365       292  QMPE      H7X            24.1081512665      -35.5973446025      -10.9515972704  MEMB      292             0.0000000000
     36366       292  QMPE      H7Y            23.5652071893      -34.0411108065      -10.5276104656  MEMB      292             0.0000000000
     36367       292  QMPE      C38            22.6821242133      -35.6126789748       -9.2879073527  MEMB      292             0.0000000000
     36368       292  QMPE      H8X            22.2321955595      -36.6147526101       -9.4544410601  MEMB      292             0.0000000000
     36369       292  QMPE      H8Y            23.6036141549      -35.7808172918       -8.6904911613  MEMB      292             0.0000000000
     36370       292  QMPE      C39            21.5435996693      -34.8012592078       -8.6833093512  MEMB      292             0.0000000000
     36371       292  QMPE      H9X            20.7642979967      -34.7513825476       -9.4735761966  MEMB      292             0.0000000000
     36372       292  QMPE      H9Y            22.0260668222      -33.8341228032       -8.4260280488  MEMB      292             0.0000000000
     36373       292  QMPE      C310           20.8820175403      -35.3470045369       -7.4211557758  MEMB      292             0.0000000000
     36374       292  QMPE      H10X           20.2300233711      -36.1815922031       -7.7568463509  MEMB      292             0.0000000000
     36375       292  QMPE      H10Y           20.1963449322      -34.6387465754       -6.9087650498  MEMB      292             0.0000000000
     36376       292  QMPE      C311           21.8558941263      -35.9829270369       -6.4115835754  MEMB      292             0.0000000000
     36377       292  QMPE      H11X           22.6119971444      -35.1698459767       -6.3724871380  MEMB      292             0.0000000000
     36378       292  QMPE      H11Y           22.3135087883      -36.8742646322       -6.8916123907  MEMB      292             0.0000000000
     36379       292  QMPE      C312           21.1804215339      -36.1783550047       -5.0339876685  MEMB      292             0.0000000000
     36380       292  QMPE      H12X           21.8225242964      -36.8730595856       -4.4513979216  MEMB      292             0.0000000000
     36381       292  QMPE      H12Y           20.1455027690      -36.5755655009       -5.1080674279  MEMB      292             0.0000000000
     36382       292  QMPE      C313           20.9880344647      -34.9023456305       -4.1528616770  MEMB      292             0.0000000000
     36383       292  QMPE      H13X           21.8719658190      -34.2333363218       -4.2264288091  MEMB      292             0.0000000000
     36384       292  QMPE      H13Y           20.1059878124      -34.3243367134       -4.5024616731  MEMB      292             0.0000000000
     36385       292  QMPE      C314           20.9006808309      -35.2622329218       -2.7155042602  MEMB      292             0.0000000000
     36386       292  QMPE      H14X           20.7065342119      -34.3439971236       -2.1209699552  MEMB      292             0.0000000000
     36387       292  QMPE      H14Y           21.8580209594      -35.7458477959       -2.4257853118  MEMB      292             0.0000000000
     36388       292  QMPE      C315           19.8325538322      -36.2654223259       -2.3668174802  MEMB      292             0.0000000000
     36389       292  QMPE      H15X           20.0531445672      -36.8393874053       -1.4414922587  MEMB      292             0.0000000000
     36390       292  QMPE      H15Y           18.8447139764      -35.7724768275       -2.2423264163  MEMB      292             0.0000000000
     36391       292  QMPE      H15Z           19.6193598641      -37.0132338336       -3.1603207850  MEMB      292             0.0000000000
     36392       293  POPE      N             -45.2228414542        9.2472563839      -20.6187454052  MEMB      293             0.0000000000
     36393       293  POPE      HN1           -45.2763427935        9.0911806112      -19.5919163025  MEMB      293             0.0000000000
     36394       293  POPE      HN2           -45.9979632925        9.7942961910      -21.0448130552  MEMB      293             0.0000000000
     36395       293  POPE      HN3           -45.1500744917        8.3840345908      -21.1942045698  MEMB      293             0.0000000000
     36396       293  POPE      C12           -44.0182248329       10.1696349572      -20.8312898035  MEMB      293             0.0000000000
     36397       293  POPE      H12A          -44.2708141469       11.2449895081      -20.7124104767  MEMB      293             0.0000000000
     36398       293  POPE      H12B          -43.4534557695        9.9070582453      -21.7512955594  MEMB      293             0.0000000000
     36399       293  POPE      C11           -42.9712612551        9.9933878834      -19.6743099386  MEMB      293             0.0000000000
     36400       293  POPE      H11A          -43.3146100307       10.5465365539      -18.7740548840  MEMB      293             0.0000000000
     36401       293  POPE      H11B          -42.0733406704       10.5781034291      -19.9678526749  MEMB      293             0.0000000000
     36402       293  POPE      P             -41.6557787574        8.2634788126      -18.1639670984  MEMB      293             0.0000000000
     36403       293  POPE      O13           -40.2866277396        8.8020549189      -18.4919630652  MEMB      293             0.0000000000
     36404       293  POPE      O14           -41.8192756784        6.8107200879      -17.9201543953  MEMB      293             0.0000000000
     36405       293  POPE      O11           -42.2481482648        9.1048253979      -16.9875388551  MEMB      293             0.0000000000
     36406       293  POPE      O12           -42.6821868955        8.6690678743      -19.3120314358  MEMB      293             0.0000000000
     36407       293  POPE      C1            -43.4158086141        8.7472724298      -16.3665216431  MEMB      293             0.0000000000
     36408       293  POPE      HA            -43.4223712476        7.7122875924      -15.9626847190  MEMB      293             0.0000000000
     36409       293  POPE      HB            -44.1655037070        8.8440524686      -17.1807156418  MEMB      293             0.0000000000
     36410       293  POPE      C2            -43.7695696214        9.7057974907      -15.1864675038  MEMB      293             0.0000000000
     36411       293  POPE      HS            -43.9427118778       10.7274680348      -15.5871317229  MEMB      293             0.0000000000
     36412       293  POPE      O21           -42.6794753557        9.8123900383      -14.3016466932  MEMB      293             0.0000000000
     36413       293  POPE      C21           -41.8562034848       10.7308908642      -14.3566948100  MEMB      293             0.0000000000
     36414       293  POPE      O22           -41.7882422250       11.6882456839      -15.1300368708  MEMB      293             0.0000000000
     36415       293  POPE      C22           -40.7226386771       10.5061435906      -13.3179245295  MEMB      293             0.0000000000
     36416       293  POPE      H2R           -41.0340423217        9.6689592015      -12.6572653140  MEMB      293             0.0000000000
     36417       293  POPE      H2S           -40.7194620899       11.4042500389      -12.6639252374  MEMB      293             0.0000000000
     36418       293  POPE      C3            -45.0835120338        9.2789714565      -14.4686016839  MEMB      293             0.0000000000
     36419       293  POPE      HX            -45.9230033819        9.3772387269      -15.1896556154  MEMB      293             0.0000000000
     36420       293  POPE      HY            -45.3371446245       10.0057018337      -13.6674434181  MEMB      293             0.0000000000
     36421       293  POPE      O31           -45.0227949432        7.9601279932      -13.7721438175  MEMB      293             0.0000000000
     36422       293  POPE      C31           -45.4680656373        6.8605182988      -14.3459567602  MEMB      293             0.0000000000
     36423       293  POPE      O32           -46.1383294313        6.8054082047      -15.3669236658  MEMB      293             0.0000000000
     36424       293  POPE      C32           -45.0293820987        5.6299527488      -13.4901886275  MEMB      293             0.0000000000
     36425       293  POPE      H2X           -44.0509176346        5.8401254601      -13.0077410282  MEMB      293             0.0000000000
     36426       293  POPE      H2Y           -44.8596218533        4.6768397889      -14.0352375240  MEMB      293             0.0000000000
     36427       293  POPE      C23           -39.3864225142       10.1027737817      -14.0321900516  MEMB      293             0.0000000000
     36428       293  POPE      H3R           -38.5785369041        9.9858769098      -13.2785474043  MEMB      293             0.0000000000
     36429       293  POPE      H3S           -39.0977959548       10.9817426433      -14.6473561503  MEMB      293             0.0000000000
     36430       293  POPE      C24           -39.4531371440        8.8176489908      -14.9286890206  MEMB      293             0.0000000000
     36431       293  POPE      H4R           -38.4307962763        8.5788569301      -15.2921704209  MEMB      293             0.0000000000
     36432       293  POPE      H4S           -39.9756158209        9.0391720335      -15.8838144655  MEMB      293             0.0000000000
     36433       293  POPE      C25           -39.9504682992        7.5214374336      -14.2892440746  MEMB      293             0.0000000000
     36434       293  POPE      H5R           -40.0501432827        6.7491885743      -15.0817193539  MEMB      293             0.0000000000
     36435       293  POPE      H5S           -40.9139694337        7.6020043397      -13.7419821744  MEMB      293             0.0000000000
     36436       293  POPE      C26           -39.0637580112        6.9364513188      -13.1320814876  MEMB      293             0.0000000000
     36437       293  POPE      H6R           -38.7115830240        7.7865144134      -12.5094366467  MEMB      293             0.0000000000
     36438       293  POPE      H6S           -38.1472856617        6.4771188559      -13.5603488202  MEMB      293             0.0000000000
     36439       293  POPE      C27           -39.5788258636        5.7396460752      -12.3667773393  MEMB      293             0.0000000000
     36440       293  POPE      H7R           -38.8099438356        5.2877103899      -11.7042855418  MEMB      293             0.0000000000
     36441       293  POPE      H7S           -39.8409399771        4.9573823272      -13.1108743002  MEMB      293             0.0000000000
     36442       293  POPE      C28           -40.7866602156        6.0341255052      -11.4138041109  MEMB      293             0.0000000000
     36443       293  POPE      H8R           -41.2916571852        5.0820647992      -11.1438421637  MEMB      293             0.0000000000
     36444       293  POPE      H8S           -41.5220870269        6.6236426573      -12.0019687459  MEMB      293             0.0000000000
     36445       293  POPE      C29           -40.2714058636        6.6557310168      -10.1343217491  MEMB      293             0.0000000000
     36446       293  POPE      H91           -39.3645932838        6.1720151445       -9.7422635920  MEMB      293             0.0000000000
     36447       293  POPE      C210          -40.7219000290        7.7840317975       -9.4983133353  MEMB      293             0.0000000000
     36448       293  POPE      H101          -40.3875561259        8.0492007746       -8.4844595092  MEMB      293             0.0000000000
     36449       293  POPE      C211          -41.9038905379        8.6939922139       -9.9201617405  MEMB      293             0.0000000000
     36450       293  POPE      H11R          -42.2480502145        8.5721120474      -10.9694569683  MEMB      293             0.0000000000
     36451       293  POPE      H11S          -41.6215926355        9.7680349486       -9.9527341553  MEMB      293             0.0000000000
     36452       293  POPE      C212          -43.1620343980        8.5974031145       -9.0747115688  MEMB      293             0.0000000000
     36453       293  POPE      H12R          -43.6270655273        7.6006521636       -9.2314105378  MEMB      293             0.0000000000
     36454       293  POPE      H12S          -43.8868869331        9.2789864725       -9.5690324482  MEMB      293             0.0000000000
     36455       293  POPE      C213          -43.2841483405        8.9028590684       -7.6089342076  MEMB      293             0.0000000000
     36456       293  POPE      H13R          -44.3634334412        8.7765848414       -7.3775914887  MEMB      293             0.0000000000
     36457       293  POPE      H13S          -43.0938444969        9.9692420963       -7.3620891904  MEMB      293             0.0000000000
     36458       293  POPE      C214          -42.5477549349        7.9939251590       -6.6967608043  MEMB      293             0.0000000000
     36459       293  POPE      H14R          -41.5899186836        8.5305942703       -6.5268872411  MEMB      293             0.0000000000
     36460       293  POPE      H14S          -42.3235519583        6.9849076963       -7.1041153569  MEMB      293             0.0000000000
     36461       293  POPE      C215          -43.0578191677        7.7060010423       -5.3119079075  MEMB      293             0.0000000000
     36462       293  POPE      H15R          -43.1336982070        8.7124432523       -4.8475400555  MEMB      293             0.0000000000
     36463       293  POPE      H15S          -42.2680108696        7.2053021521       -4.7120539894  MEMB      293             0.0000000000
     36464       293  POPE      C216          -44.5191147988        7.1612634428       -5.1424627880  MEMB      293             0.0000000000
     36465       293  POPE      H16R          -44.4631146639        6.1194321084       -5.5242643098  MEMB      293             0.0000000000
     36466       293  POPE      H16S          -45.2173802088        7.6514228894       -5.8541439098  MEMB      293             0.0000000000
     36467       293  POPE      C217          -45.1665434526        7.0689294210       -3.7110807620  MEMB      293             0.0000000000
     36468       293  POPE      H17R          -46.0914132030        6.4665914706       -3.8380693091  MEMB      293             0.0000000000
     36469       293  POPE      H17S          -45.4519262894        8.1098367228       -3.4476621860  MEMB      293             0.0000000000
     36470       293  POPE      C218          -44.3017794979        6.4844922980       -2.6023551954  MEMB      293             0.0000000000
     36471       293  POPE      H18R          -43.3424124422        7.0433519822       -2.5622105978  MEMB      293             0.0000000000
     36472       293  POPE      H18S          -43.9678983675        5.4682989192       -2.9026800943  MEMB      293             0.0000000000
     36473       293  POPE      H18T          -44.7782465851        6.4153740314       -1.6010946896  MEMB      293             0.0000000000
     36474       293  POPE      C33           -46.0999188895        5.3196776988      -12.4929970662  MEMB      293             0.0000000000
     36475       293  POPE      H3X           -47.0106777225        4.9573214444      -13.0160049966  MEMB      293             0.0000000000
     36476       293  POPE      H3Y           -46.3529068992        6.2674496162      -11.9714163564  MEMB      293             0.0000000000
     36477       293  POPE      C34           -45.9033166088        4.3079891154      -11.4669122221  MEMB      293             0.0000000000
     36478       293  POPE      H4X           -45.9419514229        3.3011865635      -11.9350758533  MEMB      293             0.0000000000
     36479       293  POPE      H4Y           -46.8105878176        4.1416099739      -10.8476397897  MEMB      293             0.0000000000
     36480       293  POPE      C35           -44.7239356169        4.6313568765      -10.5232019520  MEMB      293             0.0000000000
     36481       293  POPE      H5X           -44.8642014077        5.6908345632      -10.2196337569  MEMB      293             0.0000000000
     36482       293  POPE      H5Y           -43.7230453119        4.4956972912      -10.9859497040  MEMB      293             0.0000000000
     36483       293  POPE      C36           -44.8216169049        3.6430227436       -9.2705248567  MEMB      293             0.0000000000
     36484       293  POPE      H6X           -45.0422599717        2.6543612410       -9.7267987374  MEMB      293             0.0000000000
     36485       293  POPE      H6Y           -45.6872946546        4.0634712249       -8.7154155780  MEMB      293             0.0000000000
     36486       293  POPE      C37           -43.6379494080        3.6923604745       -8.3153668586  MEMB      293             0.0000000000
     36487       293  POPE      H7X           -43.9838960117        3.1346642662       -7.4189193613  MEMB      293             0.0000000000
     36488       293  POPE      H7Y           -43.5801664289        4.6844692372       -7.8186748794  MEMB      293             0.0000000000
     36489       293  POPE      C38           -42.2480478487        3.2243951005       -8.7392744074  MEMB      293             0.0000000000
     36490       293  POPE      H8X           -41.8996401494        3.5583683707       -9.7399713403  MEMB      293             0.0000000000
     36491       293  POPE      H8Y           -42.2694076435        2.1233951928       -8.5920873812  MEMB      293             0.0000000000
     36492       293  POPE      C39           -41.2647135671        3.8264164450       -7.8254248950  MEMB      293             0.0000000000
     36493       293  POPE      H9X           -41.4827710589        4.9152718925       -7.8595641991  MEMB      293             0.0000000000
     36494       293  POPE      H9Y           -40.2796463635        3.6675191783       -8.3140092747  MEMB      293             0.0000000000
     36495       293  POPE      C310          -41.2485450221        3.1954802465       -6.4862393661  MEMB      293             0.0000000000
     36496       293  POPE      H10X          -41.0478728046        2.1075673093       -6.5886965611  MEMB      293             0.0000000000
     36497       293  POPE      H10Y          -42.2603054565        3.3478029132       -6.0532733402  MEMB      293             0.0000000000
     36498       293  POPE      C311          -40.2679585597        3.7074217984       -5.5103459384  MEMB      293             0.0000000000
     36499       293  POPE      H11X          -39.2738625658        3.8469826569       -5.9863890827  MEMB      293             0.0000000000
     36500       293  POPE      H11Y          -40.2468290363        2.9341382146       -4.7129085991  MEMB      293             0.0000000000
     36501       293  POPE      C312          -40.6326491960        4.9138595505       -4.6394760560  MEMB      293             0.0000000000
     36502       293  POPE      H12X          -41.4880507638        4.6221090177       -3.9933402658  MEMB      293             0.0000000000
     36503       293  POPE      H12Y          -40.9651261818        5.6905711839       -5.3609316964  MEMB      293             0.0000000000
     36504       293  POPE      C313          -39.3856677769        5.4931210618       -3.9956004755  MEMB      293             0.0000000000
     36505       293  POPE      H13X          -38.5326483137        5.5994463763       -4.6994282135  MEMB      293             0.0000000000
     36506       293  POPE      H13Y          -38.9977024769        4.9188886954       -3.1272330212  MEMB      293             0.0000000000
     36507       293  POPE      C314          -39.6246635192        6.9471364070       -3.4471864148  MEMB      293             0.0000000000
     36508       293  POPE      H14X          -40.4929631946        6.9988043841       -2.7560230176  MEMB      293             0.0000000000
     36509       293  POPE      H14Y          -39.9520081020        7.6569811743       -4.2366718075  MEMB      293             0.0000000000
     36510       293  POPE      C315          -38.2805400693        7.5360420041       -2.8992227452  MEMB      293             0.0000000000
     36511       293  POPE      H15X          -37.6235725245        8.0231370937       -3.6511885043  MEMB      293             0.0000000000
     36512       293  POPE      H15Y          -37.7319629971        6.6411163924       -2.5352275279  MEMB      293             0.0000000000
     36513       293  POPE      C316          -38.3580917452        8.3998232173       -1.6384376686  MEMB      293             0.0000000000
     36514       293  POPE      H16X          -38.6953517040        7.8115628160       -0.7583663710  MEMB      293             0.0000000000
     36515       293  POPE      H16Y          -38.9723350282        9.3225470793       -1.7133188793  MEMB      293             0.0000000000
     36516       293  POPE      H16Z          -37.2751032837        8.6248115166       -1.5343359174  MEMB      293             0.0000000000
     36517       294  PMPG      C13            40.2868924355       13.7944202979      -17.6905909655  MEMB      294             0.0000000000
     36518       294  PMPG      H13A           40.5598463094       12.9748183322      -18.3892108552  MEMB      294             0.0000000000
     36519       294  PMPG      H13B           40.1785784460       13.3896187572      -16.6616473602  MEMB      294             0.0000000000
     36520       294  PMPG      OC3            39.0490282623       14.3540312757      -18.0690868511  MEMB      294             0.0000000000
     36521       294  PMPG      HO3            39.2130565116       14.7838812283      -18.9116566056  MEMB      294             0.0000000000
     36522       294  PMPG      C12            41.4128618612       14.9356476576      -17.6294977481  MEMB      294             0.0000000000
     36523       294  PMPG      H12A           42.3754841831       14.4374638562      -17.3688251461  MEMB      294             0.0000000000
     36524       294  PMPG      OC2            41.1077496484       15.8730375436      -16.5959370923  MEMB      294             0.0000000000
     36525       294  PMPG      HO2            41.7715177993       16.5828455124      -16.7384198262  MEMB      294             0.0000000000
     36526       294  PMPG      C11            41.6526469031       15.7220047594      -18.9943680516  MEMB      294             0.0000000000
     36527       294  PMPG      H11A           41.6211557003       15.0743551493      -19.8965206317  MEMB      294             0.0000000000
     36528       294  PMPG      H11B           42.6907134424       16.1171027065      -19.0195953299  MEMB      294             0.0000000000
     36529       294  PMPG      P              41.1465122051       17.8643158337      -20.2487622928  MEMB      294             0.0000000000
     36530       294  PMPG      O13            41.4226792133       17.3012885868      -21.5740128427  MEMB      294             0.0000000000
     36531       294  PMPG      O14            42.2197393430       18.6534735267      -19.5740753747  MEMB      294             0.0000000000
     36532       294  PMPG      O11            39.8448647714       18.7286160232      -20.3591631192  MEMB      294             0.0000000000
     36533       294  PMPG      O12            40.7041743532       16.6989344947      -19.2645056497  MEMB      294             0.0000000000
     36534       294  PMPG      C1             38.7769649990       18.8671954628      -19.3795394024  MEMB      294             0.0000000000
     36535       294  PMPG      HA             38.2140800558       17.9254691391      -19.2045151603  MEMB      294             0.0000000000
     36536       294  PMPG      HB             38.1041840508       19.6541043061      -19.7826041039  MEMB      294             0.0000000000
     36537       294  PMPG      C2             39.3051459978       19.6382010222      -18.1006623757  MEMB      294             0.0000000000
     36538       294  PMPG      HS             39.7106886221       20.6249502294      -18.4107945549  MEMB      294             0.0000000000
     36539       294  PMPG      O21            40.3192525440       18.9374090312      -17.3702218913  MEMB      294             0.0000000000
     36540       294  PMPG      C21            41.0600773350       19.5507018563      -16.5595236662  MEMB      294             0.0000000000
     36541       294  PMPG      O22            41.0747920191       20.7573234897      -16.3088125258  MEMB      294             0.0000000000
     36542       294  PMPG      C22            42.0268794466       18.4758631432      -16.0699852890  MEMB      294             0.0000000000
     36543       294  PMPG      H2R            42.4175777139       17.9974050386      -16.9934318789  MEMB      294             0.0000000000
     36544       294  PMPG      H2S            41.4832308355       17.7535831507      -15.4241687811  MEMB      294             0.0000000000
     36545       294  PMPG      C3             38.0599439314       19.9910150129      -17.2160148658  MEMB      294             0.0000000000
     36546       294  PMPG      HX             37.3321879119       20.6133947552      -17.7793406407  MEMB      294             0.0000000000
     36547       294  PMPG      HY             38.3875029306       20.6331079752      -16.3705902170  MEMB      294             0.0000000000
     36548       294  PMPG      O31            37.4925632425       18.7495140106      -16.8609273782  MEMB      294             0.0000000000
     36549       294  PMPG      C31            37.6831324949       18.3594084696      -15.6021828507  MEMB      294             0.0000000000
     36550       294  PMPG      O32            38.1634785499       19.0226841128      -14.7085633371  MEMB      294             0.0000000000
     36551       294  PMPG      C32            37.4362502342       16.8345947154      -15.5043073044  MEMB      294             0.0000000000
     36552       294  PMPG      H2X            38.0693529065       16.2987279091      -16.2434613956  MEMB      294             0.0000000000
     36553       294  PMPG      H2Y            36.3575916151       16.6669653995      -15.7109872882  MEMB      294             0.0000000000
     36554       294  PMPG      C23            43.1018851011       18.9479957839      -15.1345834498  MEMB      294             0.0000000000
     36555       294  PMPG      H3R            42.6379681233       19.1949157587      -14.1557410984  MEMB      294             0.0000000000
     36556       294  PMPG      H3S            43.5898488548       19.7885573596      -15.6727923672  MEMB      294             0.0000000000
     36557       294  PMPG      C24            44.2289428558       17.9075375041      -14.9534277206  MEMB      294             0.0000000000
     36558       294  PMPG      H4R            45.1530703970       18.4019762615      -14.5848635456  MEMB      294             0.0000000000
     36559       294  PMPG      H4S            44.4403620942       17.5124526588      -15.9700550502  MEMB      294             0.0000000000
     36560       294  PMPG      C25            43.9179404781       16.7844242805      -13.9525017159  MEMB      294             0.0000000000
     36561       294  PMPG      H5R            44.8413236640       16.1666209534      -13.9544046611  MEMB      294             0.0000000000
     36562       294  PMPG      H5S            43.0457597512       16.2578883909      -14.3956512535  MEMB      294             0.0000000000
     36563       294  PMPG      C26            43.4776314656       17.1965238252      -12.5220417582  MEMB      294             0.0000000000
     36564       294  PMPG      H6R            42.3941653739       17.4369609210      -12.5731527193  MEMB      294             0.0000000000
     36565       294  PMPG      H6S            43.9304617599       18.1971087895      -12.3544243976  MEMB      294             0.0000000000
     36566       294  PMPG      C27            43.7326630055       16.1071393255      -11.4626464273  MEMB      294             0.0000000000
     36567       294  PMPG      H7R            44.8194424695       15.8764871710      -11.4570778448  MEMB      294             0.0000000000
     36568       294  PMPG      H7S            43.1530627907       15.2651666619      -11.8979243829  MEMB      294             0.0000000000
     36569       294  PMPG      C28            43.1283114863       16.4075509711      -10.0317790166  MEMB      294             0.0000000000
     36570       294  PMPG      H8R            43.6158571134       15.6489667090       -9.3828028187  MEMB      294             0.0000000000
     36571       294  PMPG      H8S            42.0236750704       16.3421654226      -10.1308962652  MEMB      294             0.0000000000
     36572       294  PMPG      C29            43.5749756942       17.7531328259       -9.4098477234  MEMB      294             0.0000000000
     36573       294  PMPG      H9R            44.6528377035       17.9787105369       -9.2627118829  MEMB      294             0.0000000000
     36574       294  PMPG      C217           42.6307898392       18.8928533113       -9.5083724517  MEMB      294             0.0000000000
     36575       294  PMPG      H17R           43.0990976819       19.8617008404       -9.6304827044  MEMB      294             0.0000000000
     36576       294  PMPG      H17S           41.5950389712       18.7570734475       -9.7941570858  MEMB      294             0.0000000000
     36577       294  PMPG      C210           42.8923779333       18.3065363164       -8.1048783084  MEMB      294             0.0000000000
     36578       294  PMPG      H10R           43.5815366478       18.8782047644       -7.4471728406  MEMB      294             0.0000000000
     36579       294  PMPG      C211           41.7085986486       17.4433856371       -7.5464060598  MEMB      294             0.0000000000
     36580       294  PMPG      H11R           41.0489288311       16.9635551959       -8.3006737443  MEMB      294             0.0000000000
     36581       294  PMPG      H11S           42.0102570883       16.5707549987       -6.9284750236  MEMB      294             0.0000000000
     36582       294  PMPG      C212           40.9765421018       18.3608985168       -6.5484873902  MEMB      294             0.0000000000
     36583       294  PMPG      H12R           40.2415937977       18.9653349303       -7.1219223118  MEMB      294             0.0000000000
     36584       294  PMPG      H12S           41.8031191680       18.9369198588       -6.0802020124  MEMB      294             0.0000000000
     36585       294  PMPG      C213           40.4252286785       17.4941611913       -5.3872967452  MEMB      294             0.0000000000
     36586       294  PMPG      H13R           41.2859604523       17.3993519313       -4.6912561949  MEMB      294             0.0000000000
     36587       294  PMPG      H13S           40.2483301893       16.4466615936       -5.7125239557  MEMB      294             0.0000000000
     36588       294  PMPG      C214           39.3000736254       18.2738708689       -4.5562139697  MEMB      294             0.0000000000
     36589       294  PMPG      H14R           38.3874220731       18.5813023905       -5.1101766836  MEMB      294             0.0000000000
     36590       294  PMPG      H14S           39.8446295514       19.1284007762       -4.1006283600  MEMB      294             0.0000000000
     36591       294  PMPG      C215           38.6651266630       17.5223302995       -3.3379741282  MEMB      294             0.0000000000
     36592       294  PMPG      H15R           39.4281951643       17.2844325866       -2.5663190478  MEMB      294             0.0000000000
     36593       294  PMPG      H15S           38.3883232844       16.4882006053       -3.6350879155  MEMB      294             0.0000000000
     36594       294  PMPG      C216           37.6139485059       18.2572449705       -2.5931386789  MEMB      294             0.0000000000
     36595       294  PMPG      H16R           37.3813602504       17.6115339610       -1.7194797418  MEMB      294             0.0000000000
     36596       294  PMPG      H16S           36.7825350571       18.2406737590       -3.3298877322  MEMB      294             0.0000000000
     36597       294  PMPG      H16T           37.8826778123       19.3096767485       -2.3597018853  MEMB      294             0.0000000000
     36598       294  PMPG      C33            37.8791599562       16.2320511407      -14.1095783139  MEMB      294             0.0000000000
     36599       294  PMPG      H3X            37.5758612242       15.1782927402      -14.2882512082  MEMB      294             0.0000000000
     36600       294  PMPG      H3Y            37.1849003842       16.6125246231      -13.3301139383  MEMB      294             0.0000000000
     36601       294  PMPG      C34            39.3349555635       16.3241325532      -13.6725562536  MEMB      294             0.0000000000
     36602       294  PMPG      H4X            39.8509250455       17.2110256483      -14.0986044777  MEMB      294             0.0000000000
     36603       294  PMPG      H4Y            39.9130605489       15.4728966586      -14.0914987951  MEMB      294             0.0000000000
     36604       294  PMPG      C35            39.3717608713       16.3414610627      -12.1813974015  MEMB      294             0.0000000000
     36605       294  PMPG      H5X            38.8113070766       17.2421403180      -11.8512620705  MEMB      294             0.0000000000
     36606       294  PMPG      H5Y            40.4410622980       16.4252338706      -11.8917471536  MEMB      294             0.0000000000
     36607       294  PMPG      C36            38.9201315121       15.1047191321      -11.4196646144  MEMB      294             0.0000000000
     36608       294  PMPG      H6X            38.8129780351       14.3256658466      -12.2044672660  MEMB      294             0.0000000000
     36609       294  PMPG      H6Y            37.9108626430       15.3891996978      -11.0525572424  MEMB      294             0.0000000000
     36610       294  PMPG      C37            39.9089263660       14.5898527553      -10.3638051713  MEMB      294             0.0000000000
     36611       294  PMPG      H7X            40.2065113985       15.3920707988       -9.6551367372  MEMB      294             0.0000000000
     36612       294  PMPG      H7Y            40.8313425731       14.3314948219      -10.9265842710  MEMB      294             0.0000000000
     36613       294  PMPG      C38            39.2962344518       13.5111085466       -9.5058653114  MEMB      294             0.0000000000
     36614       294  PMPG      H8X            39.1648197313       12.5886919950      -10.1110096025  MEMB      294             0.0000000000
     36615       294  PMPG      H8Y            38.2339290328       13.7990808092       -9.3545380457  MEMB      294             0.0000000000
     36616       294  PMPG      C39            40.1507440342       13.2512164646       -8.2979253491  MEMB      294             0.0000000000
     36617       294  PMPG      H9X            40.5211787554       14.2512653062       -7.9864750158  MEMB      294             0.0000000000
     36618       294  PMPG      H9Y            41.0790289521       12.7701062044       -8.6736127274  MEMB      294             0.0000000000
     36619       294  PMPG      C310           39.4695595885       12.5684605961       -7.0976575995  MEMB      294             0.0000000000
     36620       294  PMPG      H10X           39.0406209313       11.5800905717       -7.3686871931  MEMB      294             0.0000000000
     36621       294  PMPG      H10Y           38.6272437257       13.2636091782       -6.8937125962  MEMB      294             0.0000000000
     36622       294  PMPG      C311           40.2352338542       12.5070282445       -5.8028352017  MEMB      294             0.0000000000
     36623       294  PMPG      H11X           40.4224906059       13.5868239742       -5.6203595321  MEMB      294             0.0000000000
     36624       294  PMPG      H11Y           41.2719768115       12.1174582546       -5.8907007109  MEMB      294             0.0000000000
     36625       294  PMPG      C312           39.5716783861       11.8581323774       -4.5780883277  MEMB      294             0.0000000000
     36626       294  PMPG      H12X           40.1179712734       10.9407885227       -4.2708978206  MEMB      294             0.0000000000
     36627       294  PMPG      H12Y           38.5605115987       11.5973943418       -4.9574009462  MEMB      294             0.0000000000
     36628       294  PMPG      C313           39.4078498999       12.9676992975       -3.4815296243  MEMB      294             0.0000000000
     36629       294  PMPG      H13X           38.6854200774       12.5022188440       -2.7774382468  MEMB      294             0.0000000000
     36630       294  PMPG      H13Y           39.0783179179       13.9015255945       -3.9852142442  MEMB      294             0.0000000000
     36631       294  PMPG      C314           40.6953900765       13.2838505386       -2.6985922306  MEMB      294             0.0000000000
     36632       294  PMPG      H14X           41.4191071533       13.9326737665       -3.2367219927  MEMB      294             0.0000000000
     36633       294  PMPG      H14Y           41.2668448142       12.3499357396       -2.5100087855  MEMB      294             0.0000000000
     36634       294  PMPG      C315           40.4215604527       14.0615420242       -1.3778145060  MEMB      294             0.0000000000
     36635       294  PMPG      H15X           39.8306765845       13.4043855743       -0.7045232050  MEMB      294             0.0000000000
     36636       294  PMPG      H15Y           39.6882789764       14.8504071535       -1.6504154040  MEMB      294             0.0000000000
     36637       294  PMPG      C316           41.7083301967       14.7137191764       -0.7546304681  MEMB      294             0.0000000000
     36638       294  PMPG      H16X           41.4658285062       15.5596047794       -0.0764024515  MEMB      294             0.0000000000
     36639       294  PMPG      H16Y           42.2265503289       15.2501544395       -1.5780405420  MEMB      294             0.0000000000
     36640       294  PMPG      H16Z           42.2955047513       13.8581025169       -0.3578079040  MEMB      294             0.0000000000
     36641       295  PMPE      N              39.4365884659      -23.8488717845      -21.4994650588  MEMB      295             0.0000000000
     36642       295  PMPE      HN1            40.0144575856      -23.6801065016      -22.3475131731  MEMB      295             0.0000000000
     36643       295  PMPE      HN2            40.0928800571      -24.3402866251      -20.8596268982  MEMB      295             0.0000000000
     36644       295  PMPE      HN3            38.5988787889      -24.4277977101      -21.7108586380  MEMB      295             0.0000000000
     36645       295  PMPE      C12            39.1609734345      -22.5945833024      -20.7262527887  MEMB      295             0.0000000000
     36646       295  PMPE      H12A           38.6292526680      -21.9646993174      -21.4711287102  MEMB      295             0.0000000000
     36647       295  PMPE      H12B           40.0674634925      -22.1179313968      -20.2956721569  MEMB      295             0.0000000000
     36648       295  PMPE      C11            38.1392910088      -22.6592323075      -19.5156505498  MEMB      295             0.0000000000
     36649       295  PMPE      H11A           38.5123603509      -23.0931338998      -18.5633535075  MEMB      295             0.0000000000
     36650       295  PMPE      H11B           37.2977216780      -23.2331790000      -19.9591225034  MEMB      295             0.0000000000
     36651       295  PMPE      P              38.3794320674      -20.3887478738      -18.0732279281  MEMB      295             0.0000000000
     36652       295  PMPE      O13            37.8582790611      -19.0319187874      -18.2677007339  MEMB      295             0.0000000000
     36653       295  PMPE      O14            39.8995599872      -20.5414162211      -18.0380955514  MEMB      295             0.0000000000
     36654       295  PMPE      O11            37.7365073654      -20.8805757607      -16.6917479693  MEMB      295             0.0000000000
     36655       295  PMPE      O12            37.8428678140      -21.2973131644      -19.1878594199  MEMB      295             0.0000000000
     36656       295  PMPE      C1             36.3749965071      -21.2940445266      -16.7976699462  MEMB      295             0.0000000000
     36657       295  PMPE      HA             36.2133777466      -22.0781644485      -17.5679662562  MEMB      295             0.0000000000
     36658       295  PMPE      HB             35.6817586538      -20.4376823228      -16.9404494577  MEMB      295             0.0000000000
     36659       295  PMPE      C2             35.9331946776      -21.9091366456      -15.4834274871  MEMB      295             0.0000000000
     36660       295  PMPE      HS             34.8651760659      -22.2135285367      -15.5150923476  MEMB      295             0.0000000000
     36661       295  PMPE      O21            36.1904533320      -21.1335800566      -14.2822574259  MEMB      295             0.0000000000
     36662       295  PMPE      C21            35.1268614419      -20.3361482890      -13.8798778598  MEMB      295             0.0000000000
     36663       295  PMPE      O22            34.1324857289      -20.1977829976      -14.5474702655  MEMB      295             0.0000000000
     36664       295  PMPE      C22            35.4218156562      -19.6186359670      -12.5187518693  MEMB      295             0.0000000000
     36665       295  PMPE      H2R            35.7143205531      -18.5723499960      -12.7512331304  MEMB      295             0.0000000000
     36666       295  PMPE      H2S            36.2277720007      -20.1476435973      -11.9665685454  MEMB      295             0.0000000000
     36667       295  PMPE      C3             36.5849698262      -23.3076390867      -15.1735080389  MEMB      295             0.0000000000
     36668       295  PMPE      HX             36.3321173899      -23.9193108339      -16.0658333100  MEMB      295             0.0000000000
     36669       295  PMPE      HY             36.0256138541      -23.8512728086      -14.3823669165  MEMB      295             0.0000000000
     36670       295  PMPE      O31            38.0024307447      -23.2214165461      -14.9827434438  MEMB      295             0.0000000000
     36671       295  PMPE      C31            38.5280686264      -23.2333046568      -13.7294632896  MEMB      295             0.0000000000
     36672       295  PMPE      O32            37.8737898957      -23.1745918215      -12.7309378358  MEMB      295             0.0000000000
     36673       295  PMPE      C32            40.0672628863      -23.3404420560      -13.8345840660  MEMB      295             0.0000000000
     36674       295  PMPE      H2X            40.3700747877      -24.3076597410      -14.2896836117  MEMB      295             0.0000000000
     36675       295  PMPE      H2Y            40.5291263935      -23.2494987317      -12.8282381788  MEMB      295             0.0000000000
     36676       295  PMPE      C23            34.1803299232      -19.6777841656      -11.6579080187  MEMB      295             0.0000000000
     36677       295  PMPE      H3R            34.1150475985      -20.5737684099      -11.0042480262  MEMB      295             0.0000000000
     36678       295  PMPE      H3S            33.2357231915      -19.7619823271      -12.2366560367  MEMB      295             0.0000000000
     36679       295  PMPE      C24            34.0479632442      -18.4253582849      -10.7283768169  MEMB      295             0.0000000000
     36680       295  PMPE      H4R            33.0866109630      -18.5943001877      -10.1977346867  MEMB      295             0.0000000000
     36681       295  PMPE      H4S            33.9403404724      -17.5274636965      -11.3737635434  MEMB      295             0.0000000000
     36682       295  PMPE      C25            35.3286955824      -18.2084801098       -9.9441936946  MEMB      295             0.0000000000
     36683       295  PMPE      H5R            35.0923205807      -17.3168495791       -9.3249666256  MEMB      295             0.0000000000
     36684       295  PMPE      H5S            36.1772130603      -17.9855177893      -10.6258300293  MEMB      295             0.0000000000
     36685       295  PMPE      C26            35.9087872132      -19.3769404159       -9.0989400897  MEMB      295             0.0000000000
     36686       295  PMPE      H6R            36.8397380883      -19.1133161008       -8.5529052394  MEMB      295             0.0000000000
     36687       295  PMPE      H6S            36.0800825697      -20.1808129813       -9.8464471111  MEMB      295             0.0000000000
     36688       295  PMPE      C27            34.9099553864      -19.9861820867       -8.0666187425  MEMB      295             0.0000000000
     36689       295  PMPE      H7R            35.1987271654      -21.0152520580       -7.7633914207  MEMB      295             0.0000000000
     36690       295  PMPE      H7S            33.9118745018      -19.9531732520       -8.5535130683  MEMB      295             0.0000000000
     36691       295  PMPE      C28            34.7264737274      -19.2339130745       -6.7068125169  MEMB      295             0.0000000000
     36692       295  PMPE      H8R            34.4208957036      -18.1805969912       -6.8842057417  MEMB      295             0.0000000000
     36693       295  PMPE      H8S            35.7008567856      -19.1138525648       -6.1867309981  MEMB      295             0.0000000000
     36694       295  PMPE      C29            33.7521679368      -20.0470121010       -5.8165097206  MEMB      295             0.0000000000
     36695       295  PMPE      H9R            34.1154743000      -21.0151193515       -5.4101871434  MEMB      295             0.0000000000
     36696       295  PMPE      C217           32.2979324705      -19.9503629516       -6.0401224628  MEMB      295             0.0000000000
     36697       295  PMPE      H17R           31.9664330118      -20.9808895293       -6.0083069634  MEMB      295             0.0000000000
     36698       295  PMPE      H17S           31.8717420742      -19.1606724417       -6.6464554238  MEMB      295             0.0000000000
     36699       295  PMPE      C210           32.8384288598      -19.3504952425       -4.7671989753  MEMB      295             0.0000000000
     36700       295  PMPE      H10R           32.7036747884      -20.0170887822       -3.8886691565  MEMB      295             0.0000000000
     36701       295  PMPE      C211           32.6949376881      -17.8118503554       -4.6877404006  MEMB      295             0.0000000000
     36702       295  PMPE      H11R           31.7573429704      -17.4372768526       -4.2241342324  MEMB      295             0.0000000000
     36703       295  PMPE      H11S           32.7605476327      -17.4855741334       -5.7477212943  MEMB      295             0.0000000000
     36704       295  PMPE      C212           33.8721347570      -17.0932924566       -3.8882069098  MEMB      295             0.0000000000
     36705       295  PMPE      H12R           33.4862703397      -16.0525707119       -3.8399652090  MEMB      295             0.0000000000
     36706       295  PMPE      H12S           34.8567207413      -17.2055410427       -4.3905135057  MEMB      295             0.0000000000
     36707       295  PMPE      C213           33.9872781577      -17.4194210559       -2.3512149363  MEMB      295             0.0000000000
     36708       295  PMPE      H13R           34.8724767409      -16.7953282084       -2.1037229236  MEMB      295             0.0000000000
     36709       295  PMPE      H13S           34.2367440509      -18.5020420853       -2.3556446636  MEMB      295             0.0000000000
     36710       295  PMPE      C214           32.7737694168      -17.1024025687       -1.4312630556  MEMB      295             0.0000000000
     36711       295  PMPE      H14R           31.8364561306      -17.4586746606       -1.9096296518  MEMB      295             0.0000000000
     36712       295  PMPE      H14S           32.7632230315      -16.0017216488       -1.2805567811  MEMB      295             0.0000000000
     36713       295  PMPE      C215           32.7594520276      -17.7085688031       -0.0023614349  MEMB      295             0.0000000000
     36714       295  PMPE      H15R           32.1813310174      -16.9939468420        0.6216694997  MEMB      295             0.0000000000
     36715       295  PMPE      H15S           33.7955485827      -17.7040308278        0.3986425112  MEMB      295             0.0000000000
     36716       295  PMPE      C216           32.1975544124      -19.1113129285        0.0708182314  MEMB      295             0.0000000000
     36717       295  PMPE      H16R           32.7808327676      -19.8290384362       -0.5447938072  MEMB      295             0.0000000000
     36718       295  PMPE      H16S           32.2292038555      -19.4151210103        1.1390031733  MEMB      295             0.0000000000
     36719       295  PMPE      H16T           31.1476017511      -19.1938238516       -0.2828936423  MEMB      295             0.0000000000
     36720       295  PMPE      C33            40.6243565772      -22.2290891532      -14.7845308766  MEMB      295             0.0000000000
     36721       295  PMPE      H3X            40.1524366236      -22.2367591130      -15.7902911876  MEMB      295             0.0000000000
     36722       295  PMPE      H3Y            41.7121935962      -22.4301135250      -14.8871021446  MEMB      295             0.0000000000
     36723       295  PMPE      C34            40.2282506243      -20.7974221474      -14.2375873457  MEMB      295             0.0000000000
     36724       295  PMPE      H4X            39.3243725019      -20.8915136650      -13.5984691739  MEMB      295             0.0000000000
     36725       295  PMPE      H4Y            39.9469586367      -20.1040475444      -15.0588226737  MEMB      295             0.0000000000
     36726       295  PMPE      C35            41.3544784318      -20.1625903968      -13.4254744232  MEMB      295             0.0000000000
     36727       295  PMPE      H5X            42.1976964894      -19.9628787266      -14.1207580992  MEMB      295             0.0000000000
     36728       295  PMPE      H5Y            41.6736344420      -20.7484192338      -12.5370687783  MEMB      295             0.0000000000
     36729       295  PMPE      C36            41.1454676894      -18.7320743190      -12.8241457808  MEMB      295             0.0000000000
     36730       295  PMPE      H6X            40.8249574331      -18.0549708891      -13.6445876143  MEMB      295             0.0000000000
     36731       295  PMPE      H6Y            42.1279485809      -18.3118530311      -12.5200624571  MEMB      295             0.0000000000
     36732       295  PMPE      C37            40.0992745115      -18.5179642193      -11.6617108667  MEMB      295             0.0000000000
     36733       295  PMPE      H7X            39.0403602969      -18.6410056969      -11.9745721836  MEMB      295             0.0000000000
     36734       295  PMPE      H7Y            40.2663002233      -17.5724173089      -11.1028155110  MEMB      295             0.0000000000
     36735       295  PMPE      C38            40.1333114644      -19.6875340615      -10.6484588981  MEMB      295             0.0000000000
     36736       295  PMPE      H8X            39.8255911896      -20.6325868397      -11.1449510805  MEMB      295             0.0000000000
     36737       295  PMPE      H8Y            39.2702635966      -19.4819087151       -9.9797373476  MEMB      295             0.0000000000
     36738       295  PMPE      C39            41.4005688177      -19.8686218170       -9.8238874504  MEMB      295             0.0000000000
     36739       295  PMPE      H9X            41.3089444160      -19.0776650719       -9.0490878923  MEMB      295             0.0000000000
     36740       295  PMPE      H9Y            42.3307991101      -19.5541449125      -10.3435962210  MEMB      295             0.0000000000
     36741       295  PMPE      C310           41.5543382119      -21.2589648474       -9.1896589938  MEMB      295             0.0000000000
     36742       295  PMPE      H10X           42.5372514839      -21.4226171655       -8.6983132708  MEMB      295             0.0000000000
     36743       295  PMPE      H10Y           41.6707563026      -21.9203898367      -10.0746925500  MEMB      295             0.0000000000
     36744       295  PMPE      C311           40.3511518456      -21.7966698159       -8.3951714619  MEMB      295             0.0000000000
     36745       295  PMPE      H11X           40.7457482920      -22.6582692484       -7.8152914788  MEMB      295             0.0000000000
     36746       295  PMPE      H11Y           39.5892272246      -22.1357476035       -9.1292138032  MEMB      295             0.0000000000
     36747       295  PMPE      C312           39.6231514632      -20.9068778107       -7.3155977252  MEMB      295             0.0000000000
     36748       295  PMPE      H12X           38.9891150194      -20.1811205471       -7.8684044461  MEMB      295             0.0000000000
     36749       295  PMPE      H12Y           40.4814193280      -20.4801274893       -6.7538316105  MEMB      295             0.0000000000
     36750       295  PMPE      C313           38.7584837499      -21.7282174617       -6.3988033906  MEMB      295             0.0000000000
     36751       295  PMPE      H13X           39.3317773957      -22.6639307457       -6.2253223330  MEMB      295             0.0000000000
     36752       295  PMPE      H13Y           37.7494279520      -21.8820932918       -6.8374941798  MEMB      295             0.0000000000
     36753       295  PMPE      C314           38.6035514811      -21.0847752928       -5.0365199516  MEMB      295             0.0000000000
     36754       295  PMPE      H14X           38.2649634058      -20.0495820534       -5.2557326709  MEMB      295             0.0000000000
     36755       295  PMPE      H14Y           39.6019835728      -20.9936546142       -4.5578226821  MEMB      295             0.0000000000
     36756       295  PMPE      C315           37.6574100376      -21.7988231261       -4.0341842161  MEMB      295             0.0000000000
     36757       295  PMPE      H15X           38.0237043079      -22.8465829557       -4.0826395535  MEMB      295             0.0000000000
     36758       295  PMPE      H15Y           36.6247355081      -21.9621500859       -4.4099885125  MEMB      295             0.0000000000
     36759       295  PMPE      C316           37.5484320495      -21.2530947643       -2.6618298330  MEMB      295             0.0000000000
     36760       295  PMPE      H16X           37.2187822407      -21.9880835953       -1.8966881223  MEMB      295             0.0000000000
     36761       295  PMPE      H16Y           36.8266363749      -20.4132608030       -2.5723288237  MEMB      295             0.0000000000
     36762       295  PMPE      H16Z           38.4594729475      -20.7918692538       -2.2241126292  MEMB      295             0.0000000000
     36763       296  PMPE      N             -36.6756782020       28.1033324690      -21.0951167223  MEMB      296             0.0000000000
     36764       296  PMPE      HN1           -36.0292345616       28.6243615810      -21.7214067515  MEMB      296             0.0000000000
     36765       296  PMPE      HN2           -36.6543085309       27.0971444411      -21.3572792723  MEMB      296             0.0000000000
     36766       296  PMPE      HN3           -37.6620980582       28.4298865137      -21.1391410388  MEMB      296             0.0000000000
     36767       296  PMPE      C12           -36.3183417825       28.1168902768      -19.6533804306  MEMB      296             0.0000000000
     36768       296  PMPE      H12A          -37.2098390014       27.8348657651      -19.0533672590  MEMB      296             0.0000000000
     36769       296  PMPE      H12B          -36.0218233457       29.1571452268      -19.3998696027  MEMB      296             0.0000000000
     36770       296  PMPE      C11           -35.2624611422       27.0046458025      -19.5398597106  MEMB      296             0.0000000000
     36771       296  PMPE      H11A          -34.6429668879       27.1640404353      -18.6314868684  MEMB      296             0.0000000000
     36772       296  PMPE      H11B          -34.5702964208       27.0677558271      -20.4066042583  MEMB      296             0.0000000000
     36773       296  PMPE      P             -35.6364475058       24.7420976386      -18.3592501683  MEMB      296             0.0000000000
     36774       296  PMPE      O13           -34.1565592227       24.6322345162      -18.1870975875  MEMB      296             0.0000000000
     36775       296  PMPE      O14           -36.4483798746       23.5495410542      -18.4458539006  MEMB      296             0.0000000000
     36776       296  PMPE      O11           -36.1328784793       25.5748092245      -17.0733346941  MEMB      296             0.0000000000
     36777       296  PMPE      O12           -35.8443033929       25.6851322196      -19.6461067863  MEMB      296             0.0000000000
     36778       296  PMPE      C1            -37.4966930009       25.8127939528      -16.9526227854  MEMB      296             0.0000000000
     36779       296  PMPE      HA            -38.1561763109       25.1629648012      -17.5667278853  MEMB      296             0.0000000000
     36780       296  PMPE      HB            -37.7601130857       26.8150224181      -17.3532087838  MEMB      296             0.0000000000
     36781       296  PMPE      C2            -37.8231630099       25.6969889622      -15.4728814545  MEMB      296             0.0000000000
     36782       296  PMPE      HS            -38.8576062863       26.0572343026      -15.2872167603  MEMB      296             0.0000000000
     36783       296  PMPE      O21           -36.9284672007       26.4912271656      -14.6568453549  MEMB      296             0.0000000000
     36784       296  PMPE      C21           -37.0601620659       27.8085693891      -14.5921802193  MEMB      296             0.0000000000
     36785       296  PMPE      O22           -37.7587652027       28.5527330344      -15.2918970516  MEMB      296             0.0000000000
     36786       296  PMPE      C22           -36.2719856732       28.2040298914      -13.3646613091  MEMB      296             0.0000000000
     36787       296  PMPE      H2R           -35.2682458616       28.4043478977      -13.7967493492  MEMB      296             0.0000000000
     36788       296  PMPE      H2S           -36.2593918619       27.4903993569      -12.5132543227  MEMB      296             0.0000000000
     36789       296  PMPE      C3            -37.8521203307       24.2681628121      -15.0230492386  MEMB      296             0.0000000000
     36790       296  PMPE      HX            -36.9594508889       23.7483465073      -15.4320152431  MEMB      296             0.0000000000
     36791       296  PMPE      HY            -38.6389101474       23.6786805089      -15.5405364698  MEMB      296             0.0000000000
     36792       296  PMPE      O31           -37.8165526941       24.3206269938      -13.6357140132  MEMB      296             0.0000000000
     36793       296  PMPE      C31           -38.9199637096       23.9802635236      -13.0556704490  MEMB      296             0.0000000000
     36794       296  PMPE      O32           -39.9023373206       23.5063031918      -13.6487148519  MEMB      296             0.0000000000
     36795       296  PMPE      C32           -38.8344904720       24.1700775954      -11.5990746849  MEMB      296             0.0000000000
     36796       296  PMPE      H2X           -39.7940890144       24.0597747025      -11.0501433935  MEMB      296             0.0000000000
     36797       296  PMPE      H2Y           -38.4878020735       25.2126236966      -11.4340724390  MEMB      296             0.0000000000
     36798       296  PMPE      C23           -36.7883869859       29.6130108825      -12.9328418279  MEMB      296             0.0000000000
     36799       296  PMPE      H3R           -37.7872098336       29.5570721297      -12.4495769496  MEMB      296             0.0000000000
     36800       296  PMPE      H3S           -36.8900911024       30.2651274479      -13.8265539246  MEMB      296             0.0000000000
     36801       296  PMPE      C24           -35.8603882231       30.2365607204      -11.7897344172  MEMB      296             0.0000000000
     36802       296  PMPE      H4R           -36.2094256315       31.2803412903      -11.9414450208  MEMB      296             0.0000000000
     36803       296  PMPE      H4S           -34.8046265167       30.2633159581      -12.1346577998  MEMB      296             0.0000000000
     36804       296  PMPE      C25           -36.0596074302       29.6013688179      -10.4373393313  MEMB      296             0.0000000000
     36805       296  PMPE      H5R           -35.7083188971       28.5481918309      -10.3956754069  MEMB      296             0.0000000000
     36806       296  PMPE      H5S           -37.0826204010       29.5645407197      -10.0055874318  MEMB      296             0.0000000000
     36807       296  PMPE      C26           -35.2437020175       30.2624641344       -9.4037371113  MEMB      296             0.0000000000
     36808       296  PMPE      H6R           -35.4149293963       31.3539650717       -9.5204775544  MEMB      296             0.0000000000
     36809       296  PMPE      H6S           -34.1367580709       30.2189478958       -9.4880157115  MEMB      296             0.0000000000
     36810       296  PMPE      C27           -35.6089927557       29.8536173455       -7.9420256892  MEMB      296             0.0000000000
     36811       296  PMPE      H7R           -36.6370513564       30.1716970704       -7.6659065601  MEMB      296             0.0000000000
     36812       296  PMPE      H7S           -34.9663061487       30.3693114299       -7.1968184403  MEMB      296             0.0000000000
     36813       296  PMPE      C28           -35.4796883474       28.3562819288       -7.5671370873  MEMB      296             0.0000000000
     36814       296  PMPE      H8R           -36.2632847018       27.8712320056       -8.1876405259  MEMB      296             0.0000000000
     36815       296  PMPE      H8S           -35.6780983797       28.3096484706       -6.4749917167  MEMB      296             0.0000000000
     36816       296  PMPE      C29           -34.0341022674       27.8758880126       -7.8252946410  MEMB      296             0.0000000000
     36817       296  PMPE      H9R           -33.2651763737       28.6117697476       -8.1439675541  MEMB      296             0.0000000000
     36818       296  PMPE      C217          -33.9891593441       26.6679211034       -8.7986991346  MEMB      296             0.0000000000
     36819       296  PMPE      H17R          -33.3035748930       26.8502779403       -9.6169952327  MEMB      296             0.0000000000
     36820       296  PMPE      H17S          -34.9735822434       26.3923541889       -9.1562790457  MEMB      296             0.0000000000
     36821       296  PMPE      C210          -33.6509470777       26.5495791034       -7.3119635320  MEMB      296             0.0000000000
     36822       296  PMPE      H10R          -32.5563248961       26.5016465240       -7.1280467618  MEMB      296             0.0000000000
     36823       296  PMPE      C211          -34.6571012204       25.7419048430       -6.6307075085  MEMB      296             0.0000000000
     36824       296  PMPE      H11R          -35.5417236029       25.5615352939       -7.2781874399  MEMB      296             0.0000000000
     36825       296  PMPE      H11S          -34.9677300757       26.2234027670       -5.6788722279  MEMB      296             0.0000000000
     36826       296  PMPE      C212          -34.1604622269       24.3429331506       -6.2708325346  MEMB      296             0.0000000000
     36827       296  PMPE      H12R          -33.8483859593       23.8389969287       -7.2105014024  MEMB      296             0.0000000000
     36828       296  PMPE      H12S          -35.0064080602       23.7084151294       -5.9301226083  MEMB      296             0.0000000000
     36829       296  PMPE      C213          -33.0603449940       24.2609987434       -5.2318988334  MEMB      296             0.0000000000
     36830       296  PMPE      H13R          -32.4100087966       25.1583784355       -5.3099621617  MEMB      296             0.0000000000
     36831       296  PMPE      H13S          -32.3916336401       23.4216988891       -5.5195135035  MEMB      296             0.0000000000
     36832       296  PMPE      C214          -33.4838914506       24.2773690999       -3.7796838746  MEMB      296             0.0000000000
     36833       296  PMPE      H14R          -33.9736536881       23.2864902923       -3.6673757296  MEMB      296             0.0000000000
     36834       296  PMPE      H14S          -34.1724115266       25.1276850872       -3.5867484962  MEMB      296             0.0000000000
     36835       296  PMPE      C215          -32.3535008099       24.5437379755       -2.7179867223  MEMB      296             0.0000000000
     36836       296  PMPE      H15R          -31.9727533668       25.5289916922       -3.0624114011  MEMB      296             0.0000000000
     36837       296  PMPE      H15S          -31.6565831826       23.6843414806       -2.8183049292  MEMB      296             0.0000000000
     36838       296  PMPE      C216          -32.9401577147       24.6293141762       -1.3010046212  MEMB      296             0.0000000000
     36839       296  PMPE      H16R          -33.6746484193       23.8031881895       -1.1898262501  MEMB      296             0.0000000000
     36840       296  PMPE      H16S          -32.1019983919       24.6952299114       -0.5747368950  MEMB      296             0.0000000000
     36841       296  PMPE      H16T          -33.5202678759       25.5766126306       -1.3214759367  MEMB      296             0.0000000000
     36842       296  PMPE      C33           -37.6144651712       23.3931968772      -11.0007116388  MEMB      296             0.0000000000
     36843       296  PMPE      H3X           -36.5837343077       23.6403362111      -11.3336330921  MEMB      296             0.0000000000
     36844       296  PMPE      H3Y           -37.8007502547       22.3019480800      -11.0944926988  MEMB      296             0.0000000000
     36845       296  PMPE      C34           -37.5633615616       23.6236904813       -9.4500762845  MEMB      296             0.0000000000
     36846       296  PMPE      H4X           -37.2550485875       24.6526002817       -9.1661597524  MEMB      296             0.0000000000
     36847       296  PMPE      H4Y           -36.6522259093       23.0866953123       -9.1097987074  MEMB      296             0.0000000000
     36848       296  PMPE      C35           -38.7219240043       23.2220213441       -8.5948925409  MEMB      296             0.0000000000
     36849       296  PMPE      H5X           -39.0905212675       22.1770023322       -8.6748427773  MEMB      296             0.0000000000
     36850       296  PMPE      H5Y           -39.5884280487       23.8582117331       -8.8755227939  MEMB      296             0.0000000000
     36851       296  PMPE      C36           -38.4895201402       23.4137886175       -7.1021800894  MEMB      296             0.0000000000
     36852       296  PMPE      H6X           -38.0525392812       24.4347399388       -7.0701274275  MEMB      296             0.0000000000
     36853       296  PMPE      H6Y           -37.7132236211       22.7298324290       -6.6973486501  MEMB      296             0.0000000000
     36854       296  PMPE      C37           -39.7572213726       23.2808915237       -6.2695681127  MEMB      296             0.0000000000
     36855       296  PMPE      H7X           -39.8986586543       22.1805355940       -6.2101279277  MEMB      296             0.0000000000
     36856       296  PMPE      H7Y           -40.5998597380       23.7940878077       -6.7803628763  MEMB      296             0.0000000000
     36857       296  PMPE      C38           -39.5702221211       23.9837594485       -4.9511612346  MEMB      296             0.0000000000
     36858       296  PMPE      H8X           -38.8110482883       23.5806223096       -4.2472747993  MEMB      296             0.0000000000
     36859       296  PMPE      H8Y           -40.5359288491       23.9900321284       -4.4018956839  MEMB      296             0.0000000000
     36860       296  PMPE      C39           -39.2100009249       25.4706246376       -5.1011107652  MEMB      296             0.0000000000
     36861       296  PMPE      H9X           -39.9715167525       25.7362124097       -5.8652300469  MEMB      296             0.0000000000
     36862       296  PMPE      H9Y           -38.2028127322       25.7871009159       -5.4471398696  MEMB      296             0.0000000000
     36863       296  PMPE      C310          -39.4072159029       26.2765725050       -3.8327050135  MEMB      296             0.0000000000
     36864       296  PMPE      H10X          -40.3631340387       26.1297537630       -3.2859085438  MEMB      296             0.0000000000
     36865       296  PMPE      H10Y          -39.3899648924       27.2962432812       -4.2734933104  MEMB      296             0.0000000000
     36866       296  PMPE      C311          -38.2074511862       26.1658354181       -2.8641739858  MEMB      296             0.0000000000
     36867       296  PMPE      H11X          -37.3791755010       25.5626738684       -3.2936816682  MEMB      296             0.0000000000
     36868       296  PMPE      H11Y          -38.6097664478       25.6080594380       -1.9916197884  MEMB      296             0.0000000000
     36869       296  PMPE      C312          -37.4704849557       27.4984173488       -2.5086005333  MEMB      296             0.0000000000
     36870       296  PMPE      H12X          -36.7698263496       27.1535246022       -1.7183795452  MEMB      296             0.0000000000
     36871       296  PMPE      H12Y          -38.1515626384       28.1885625173       -1.9662409162  MEMB      296             0.0000000000
     36872       296  PMPE      C313          -36.6952314516       28.2513020253       -3.5933597543  MEMB      296             0.0000000000
     36873       296  PMPE      H13X          -37.4398833104       28.2875947774       -4.4170698960  MEMB      296             0.0000000000
     36874       296  PMPE      H13Y          -35.7778618664       27.6865128786       -3.8649606512  MEMB      296             0.0000000000
     36875       296  PMPE      C314          -36.2098175627       29.6881750472       -3.1214452044  MEMB      296             0.0000000000
     36876       296  PMPE      H14X          -37.1098182671       30.3186479417       -2.9576674735  MEMB      296             0.0000000000
     36877       296  PMPE      H14Y          -35.5939199536       30.0407785232       -3.9762328160  MEMB      296             0.0000000000
     36878       296  PMPE      C315          -35.4178319953       29.8054292118       -1.8051294934  MEMB      296             0.0000000000
     36879       296  PMPE      H15X          -36.0393749435       29.6323920877       -0.9006617728  MEMB      296             0.0000000000
     36880       296  PMPE      H15Y          -35.0697059703       30.8591491524       -1.7521793842  MEMB      296             0.0000000000
     36881       296  PMPE      C316          -34.2827082061       28.7879374353       -1.5868617346  MEMB      296             0.0000000000
     36882       296  PMPE      H16X          -33.5380554753       28.8152889409       -2.4109149965  MEMB      296             0.0000000000
     36883       296  PMPE      H16Y          -34.6591105765       27.8065708307       -1.2269125657  MEMB      296             0.0000000000
     36884       296  PMPE      H16Z          -33.7077807804       29.0990772418       -0.6885455110  MEMB      296             0.0000000000
     36885       297  PMPE      N              22.0233890070       37.8449867818      -18.0363694125  MEMB      297             0.0000000000
     36886       297  PMPE      HN1            22.7134217595       37.9011284181      -17.2602876939  MEMB      297             0.0000000000
     36887       297  PMPE      HN2            21.0325852812       37.6843880903      -17.7641269570  MEMB      297             0.0000000000
     36888       297  PMPE      HN3            22.3446533581       37.0951502131      -18.6814542691  MEMB      297             0.0000000000
     36889       297  PMPE      C12            22.1277688279       39.0773075579      -18.8955401683  MEMB      297             0.0000000000
     36890       297  PMPE      H12A           23.1169227876       39.0869248556      -19.4013099460  MEMB      297             0.0000000000
     36891       297  PMPE      H12B           21.9382991597       39.8927746704      -18.1651734816  MEMB      297             0.0000000000
     36892       297  PMPE      C11            21.0447086105       39.0410317543      -19.9900761644  MEMB      297             0.0000000000
     36893       297  PMPE      H11A           21.2427690072       38.0798483120      -20.5108634261  MEMB      297             0.0000000000
     36894       297  PMPE      H11B           21.2150649939       39.8584944885      -20.7229161238  MEMB      297             0.0000000000
     36895       297  PMPE      P              18.8976345409       40.1666773835      -19.0300365488  MEMB      297             0.0000000000
     36896       297  PMPE      O13            17.5134232245       39.6994961528      -19.1970157253  MEMB      297             0.0000000000
     36897       297  PMPE      O14            19.4142432420       41.3534970373      -19.6954189308  MEMB      297             0.0000000000
     36898       297  PMPE      O11            19.2654837096       40.2840062107      -17.5619380587  MEMB      297             0.0000000000
     36899       297  PMPE      O12            19.6894128356       38.9738323242      -19.5936049948  MEMB      297             0.0000000000
     36900       297  PMPE      C1             19.8109356543       41.5282305648      -17.0185762952  MEMB      297             0.0000000000
     36901       297  PMPE      HA             18.9512305508       42.2314067531      -17.0463447717  MEMB      297             0.0000000000
     36902       297  PMPE      HB             20.6841847406       41.8814059032      -17.6076638552  MEMB      297             0.0000000000
     36903       297  PMPE      C2             20.1643572563       41.2015302023      -15.6026794043  MEMB      297             0.0000000000
     36904       297  PMPE      HS             20.5584431704       42.1246360947      -15.1263469652  MEMB      297             0.0000000000
     36905       297  PMPE      O21            21.1531632257       40.2156840071      -15.5862364286  MEMB      297             0.0000000000
     36906       297  PMPE      C21            22.4562567827       40.4642397506      -15.8031026652  MEMB      297             0.0000000000
     36907       297  PMPE      O22            22.8394824179       41.4225332075      -16.4698714884  MEMB      297             0.0000000000
     36908       297  PMPE      C22            23.4804576226       39.4159659150      -15.3972974330  MEMB      297             0.0000000000
     36909       297  PMPE      H2R            24.2376274961       39.1882441195      -16.1777829655  MEMB      297             0.0000000000
     36910       297  PMPE      H2S            22.9990103481       38.4200621986      -15.2938321914  MEMB      297             0.0000000000
     36911       297  PMPE      C3             18.9007461214       40.7013143775      -14.7870565838  MEMB      297             0.0000000000
     36912       297  PMPE      HX             18.2508771035       40.1129469794      -15.4695633063  MEMB      297             0.0000000000
     36913       297  PMPE      HY             18.4026694096       41.6494927757      -14.4917633424  MEMB      297             0.0000000000
     36914       297  PMPE      O31            19.3611806623       39.9250026263      -13.6445218650  MEMB      297             0.0000000000
     36915       297  PMPE      C31            19.2242089850       38.6638803249      -13.7910929303  MEMB      297             0.0000000000
     36916       297  PMPE      O32            18.7421864296       38.0506189822      -14.6983386196  MEMB      297             0.0000000000
     36917       297  PMPE      C32            19.9761499056       37.9242770340      -12.6811857322  MEMB      297             0.0000000000
     36918       297  PMPE      H2X            20.7152571252       38.4996599778      -12.0837112405  MEMB      297             0.0000000000
     36919       297  PMPE      H2Y            20.4179066141       37.0052287034      -13.1222321216  MEMB      297             0.0000000000
     36920       297  PMPE      C23            24.2115343869       40.0380858856      -14.1674320133  MEMB      297             0.0000000000
     36921       297  PMPE      H3R            24.5082855129       41.1087188967      -14.1696139655  MEMB      297             0.0000000000
     36922       297  PMPE      H3S            25.1614915210       39.4990755260      -13.9640342413  MEMB      297             0.0000000000
     36923       297  PMPE      C24            23.4545489006       39.7918081357      -12.8387538956  MEMB      297             0.0000000000
     36924       297  PMPE      H4R            24.1774776559       39.5203410931      -12.0400042641  MEMB      297             0.0000000000
     36925       297  PMPE      H4S            22.7551213045       38.9614568790      -13.0746327987  MEMB      297             0.0000000000
     36926       297  PMPE      C25            22.5463180957       41.0330605597      -12.5067368592  MEMB      297             0.0000000000
     36927       297  PMPE      H5R            21.8560458167       41.2325687369      -13.3541103244  MEMB      297             0.0000000000
     36928       297  PMPE      H5S            23.2947966763       41.8540941657      -12.5089592544  MEMB      297             0.0000000000
     36929       297  PMPE      C26            21.8672417398       41.0091085448      -11.1351409936  MEMB      297             0.0000000000
     36930       297  PMPE      H6R            22.6049295763       40.5885976755      -10.4186860432  MEMB      297             0.0000000000
     36931       297  PMPE      H6S            20.9547243106       40.3897139303      -11.2692422386  MEMB      297             0.0000000000
     36932       297  PMPE      C27            21.2118750889       42.2678564381      -10.6717988159  MEMB      297             0.0000000000
     36933       297  PMPE      H7R            20.4759895926       42.7624472166      -11.3412558428  MEMB      297             0.0000000000
     36934       297  PMPE      H7S            22.0459668936       43.0003555667      -10.7171550569  MEMB      297             0.0000000000
     36935       297  PMPE      C28            20.7217756482       42.0641093080       -9.2210475512  MEMB      297             0.0000000000
     36936       297  PMPE      H8R            21.4454967133       41.3437500594       -8.7832907560  MEMB      297             0.0000000000
     36937       297  PMPE      H8S            19.7937543134       41.5016494225       -9.4592409581  MEMB      297             0.0000000000
     36938       297  PMPE      C29            20.5021149984       43.3897441270       -8.5286154563  MEMB      297             0.0000000000
     36939       297  PMPE      H9R            20.0762679191       44.2582673708       -9.0750974783  MEMB      297             0.0000000000
     36940       297  PMPE      C217           21.7638193809       43.7380647344       -7.7051563690  MEMB      297             0.0000000000
     36941       297  PMPE      H17R           22.0336050572       44.7249147063       -8.0604469919  MEMB      297             0.0000000000
     36942       297  PMPE      H17S           22.4769586114       42.9235590011       -7.7351944338  MEMB      297             0.0000000000
     36943       297  PMPE      C210           20.4100337509       43.4885436682       -7.0371040869  MEMB      297             0.0000000000
     36944       297  PMPE      H10R           20.0203058920       44.3976484771       -6.5311783542  MEMB      297             0.0000000000
     36945       297  PMPE      C211           20.0761033366       42.1957867113       -6.2404418245  MEMB      297             0.0000000000
     36946       297  PMPE      H11R           20.1667440150       42.4920980803       -5.1735282902  MEMB      297             0.0000000000
     36947       297  PMPE      H11S           20.7515993348       41.3470899546       -6.4807330566  MEMB      297             0.0000000000
     36948       297  PMPE      C212           18.7093554337       41.5682701415       -6.5042326679  MEMB      297             0.0000000000
     36949       297  PMPE      H12R           18.5277706047       41.6450376090       -7.5976008507  MEMB      297             0.0000000000
     36950       297  PMPE      H12S           17.9351429650       42.2332345659       -6.0652127815  MEMB      297             0.0000000000
     36951       297  PMPE      C213           18.5999972770       40.1786936154       -6.1344665814  MEMB      297             0.0000000000
     36952       297  PMPE      H13R           19.1250520616       39.4729988169       -6.8131664138  MEMB      297             0.0000000000
     36953       297  PMPE      H13S           17.5954885603       39.7304938814       -6.2906716399  MEMB      297             0.0000000000
     36954       297  PMPE      C214           19.1345140474       39.7891543277       -4.6931267809  MEMB      297             0.0000000000
     36955       297  PMPE      H14R           20.1535369125       40.2225769100       -4.6033572161  MEMB      297             0.0000000000
     36956       297  PMPE      H14S           19.3449584451       38.7199899477       -4.4765131819  MEMB      297             0.0000000000
     36957       297  PMPE      C215           18.3237333116       40.5065592678       -3.5554165018  MEMB      297             0.0000000000
     36958       297  PMPE      H15R           17.2531217425       40.5031451738       -3.8522335564  MEMB      297             0.0000000000
     36959       297  PMPE      H15S           18.6167616979       41.5782183371       -3.5569690693  MEMB      297             0.0000000000
     36960       297  PMPE      C216           18.4096410356       39.9422534747       -2.1281867444  MEMB      297             0.0000000000
     36961       297  PMPE      H16R           19.4530587692       39.8348627029       -1.7620345628  MEMB      297             0.0000000000
     36962       297  PMPE      H16S           17.9956944284       40.5948859089       -1.3300395098  MEMB      297             0.0000000000
     36963       297  PMPE      H16T           17.8517752062       38.9825663825       -2.0822759389  MEMB      297             0.0000000000
     36964       297  PMPE      C33            18.9532548803       37.2500684905      -11.7197263958  MEMB      297             0.0000000000
     36965       297  PMPE      H3X            18.2712165628       36.6413057203      -12.3510366969  MEMB      297             0.0000000000
     36966       297  PMPE      H3Y            18.4213644290       38.0748058830      -11.1989366184  MEMB      297             0.0000000000
     36967       297  PMPE      C34            19.5968007167       36.3050690629      -10.6285872549  MEMB      297             0.0000000000
     36968       297  PMPE      H4X            20.2504107935       35.6031974851      -11.1893822889  MEMB      297             0.0000000000
     36969       297  PMPE      H4Y            18.8052817170       35.6436904032      -10.2157960309  MEMB      297             0.0000000000
     36970       297  PMPE      C35            20.2775429598       37.1077773558       -9.5172080855  MEMB      297             0.0000000000
     36971       297  PMPE      H5X            19.5157737410       37.7248046041       -8.9944210108  MEMB      297             0.0000000000
     36972       297  PMPE      H5Y            21.1761682649       37.5922473268       -9.9554796608  MEMB      297             0.0000000000
     36973       297  PMPE      C36            20.8478710548       36.1608304308       -8.4186783878  MEMB      297             0.0000000000
     36974       297  PMPE      H6X            21.4486883982       35.4464175586       -9.0211342261  MEMB      297             0.0000000000
     36975       297  PMPE      H6Y            20.0814909212       35.5126020888       -7.9424613539  MEMB      297             0.0000000000
     36976       297  PMPE      C37            21.7369773442       36.8890945059       -7.4486509120  MEMB      297             0.0000000000
     36977       297  PMPE      H7X            22.0359615214       36.2853859509       -6.5652106735  MEMB      297             0.0000000000
     36978       297  PMPE      H7Y            21.1930327147       37.7818113171       -7.0724835792  MEMB      297             0.0000000000
     36979       297  PMPE      C38            22.9603281209       37.4699754771       -8.0819623823  MEMB      297             0.0000000000
     36980       297  PMPE      H8X            22.9155734669       38.3524560964       -8.7554206473  MEMB      297             0.0000000000
     36981       297  PMPE      H8Y            23.4329555593       36.6444812340       -8.6559865720  MEMB      297             0.0000000000
     36982       297  PMPE      C39            23.9277406104       38.0353756666       -7.0446243737  MEMB      297             0.0000000000
     36983       297  PMPE      H9X            24.8456183081       38.3838608351       -7.5646048116  MEMB      297             0.0000000000
     36984       297  PMPE      H9Y            24.1834419209       37.2899039247       -6.2615471581  MEMB      297             0.0000000000
     36985       297  PMPE      C310           23.3768132422       39.2781878988       -6.2185452411  MEMB      297             0.0000000000
     36986       297  PMPE      H10X           22.4794862699       38.8791948332       -5.6989972688  MEMB      297             0.0000000000
     36987       297  PMPE      H10Y           23.0098604655       40.1133943317       -6.8526562884  MEMB      297             0.0000000000
     36988       297  PMPE      C311           24.2967661880       39.9473045169       -5.2529169041  MEMB      297             0.0000000000
     36989       297  PMPE      H11X           25.2942505968       40.1454258096       -5.7002351647  MEMB      297             0.0000000000
     36990       297  PMPE      H11Y           24.3449959304       39.4100252741       -4.2816675807  MEMB      297             0.0000000000
     36991       297  PMPE      C312           23.5889241476       41.1856289746       -4.7798538384  MEMB      297             0.0000000000
     36992       297  PMPE      H12X           22.4944526152       40.9958724334       -4.7587460152  MEMB      297             0.0000000000
     36993       297  PMPE      H12Y           23.7013911568       41.9199383972       -5.6059659608  MEMB      297             0.0000000000
     36994       297  PMPE      C313           24.0370814365       41.8953175951       -3.5024840988  MEMB      297             0.0000000000
     36995       297  PMPE      H13X           23.7907042467       42.9784758520       -3.4828014578  MEMB      297             0.0000000000
     36996       297  PMPE      H13Y           25.1353658856       41.7627487121       -3.3999312638  MEMB      297             0.0000000000
     36997       297  PMPE      C314           23.2794332092       41.2732860694       -2.2702976130  MEMB      297             0.0000000000
     36998       297  PMPE      H14X           23.4749396315       40.1879127156       -2.4046966269  MEMB      297             0.0000000000
     36999       297  PMPE      H14Y           22.2173877099       41.4906834656       -2.5134424818  MEMB      297             0.0000000000
     37000       297  PMPE      C315           23.6968801107       41.6191780529       -0.8525425373  MEMB      297             0.0000000000
     37001       297  PMPE      H15X           23.2209717340       40.8876774194       -0.1649828904  MEMB      297             0.0000000000
     37002       297  PMPE      H15Y           23.3788012372       42.6484169478       -0.5808562392  MEMB      297             0.0000000000
     37003       297  PMPE      C316           25.2181295345       41.4786568998       -0.6092869978  MEMB      297             0.0000000000
     37004       297  PMPE      H16X           25.5695246470       40.4282243182       -0.6955069117  MEMB      297             0.0000000000
     37005       297  PMPE      H16Y           25.3298803855       41.7490306307        0.4625024813  MEMB      297             0.0000000000
     37006       297  PMPE      H16Z           25.6332248663       42.1971431503       -1.3480658060  MEMB      297             0.0000000000
     37007       298  PMPE      N              40.7112727251      -15.9432862307      -20.5817570619  MEMB      298             0.0000000000
     37008       298  PMPE      HN1            41.7249911365      -16.1681699052      -20.6400865457  MEMB      298             0.0000000000
     37009       298  PMPE      HN2            40.4857882962      -16.3670669661      -19.6591700513  MEMB      298             0.0000000000
     37010       298  PMPE      HN3            40.1983671829      -16.3194367614      -21.4045804933  MEMB      298             0.0000000000
     37011       298  PMPE      C12            40.4266260036      -14.4713233489      -20.3851389363  MEMB      298             0.0000000000
     37012       298  PMPE      H12A           39.3375996547      -14.3341982881      -20.5570090085  MEMB      298             0.0000000000
     37013       298  PMPE      H12B           40.9604215795      -13.9000096131      -21.1744320826  MEMB      298             0.0000000000
     37014       298  PMPE      C11            40.7550360077      -14.0005231539      -18.9825618857  MEMB      298             0.0000000000
     37015       298  PMPE      H11A           40.2992922120      -14.6895421688      -18.2396813480  MEMB      298             0.0000000000
     37016       298  PMPE      H11B           40.4193075868      -12.9477371180      -18.8674579054  MEMB      298             0.0000000000
     37017       298  PMPE      P              43.1279638731      -12.9927411281      -18.4006106135  MEMB      298             0.0000000000
     37018       298  PMPE      O13            42.8575493933      -12.3749513537      -17.1082226595  MEMB      298             0.0000000000
     37019       298  PMPE      O14            43.1611223185      -12.0442973729      -19.4973851714  MEMB      298             0.0000000000
     37020       298  PMPE      O11            44.5161065540      -13.6462779183      -18.2961341314  MEMB      298             0.0000000000
     37021       298  PMPE      O12            42.1383991551      -14.2094315048      -18.7481895399  MEMB      298             0.0000000000
     37022       298  PMPE      C1             44.5730361073      -15.0650379163      -18.3480892750  MEMB      298             0.0000000000
     37023       298  PMPE      HA             45.5858441704      -15.3431344467      -18.7103086300  MEMB      298             0.0000000000
     37024       298  PMPE      HB             43.8930916924      -15.6145441483      -19.0336835842  MEMB      298             0.0000000000
     37025       298  PMPE      C2             44.5174541089      -15.6170674819      -16.9251727014  MEMB      298             0.0000000000
     37026       298  PMPE      HS             43.5466249471      -15.3219865693      -16.4726918482  MEMB      298             0.0000000000
     37027       298  PMPE      O21            45.5541013442      -15.0011254874      -16.1166335571  MEMB      298             0.0000000000
     37028       298  PMPE      C21            45.3927238875      -14.7239807494      -14.8322370322  MEMB      298             0.0000000000
     37029       298  PMPE      O22            44.4127375617      -14.9022126221      -14.1979304239  MEMB      298             0.0000000000
     37030       298  PMPE      C22            46.4615562436      -13.7175655592      -14.4568210528  MEMB      298             0.0000000000
     37031       298  PMPE      H2R            46.4584987760      -12.8718611457      -15.1773044729  MEMB      298             0.0000000000
     37032       298  PMPE      H2S            47.4764519445      -14.1639872119      -14.3860029681  MEMB      298             0.0000000000
     37033       298  PMPE      C3             44.6336765733      -17.1250420499      -16.9706721177  MEMB      298             0.0000000000
     37034       298  PMPE      HX             45.4812726439      -17.4517231485      -17.6103453039  MEMB      298             0.0000000000
     37035       298  PMPE      HY             43.6944031004      -17.4504838011      -17.4668312231  MEMB      298             0.0000000000
     37036       298  PMPE      O31            44.9149131079      -17.7336562860      -15.6433833386  MEMB      298             0.0000000000
     37037       298  PMPE      C31            43.8190011824      -17.9650109281      -14.8986808921  MEMB      298             0.0000000000
     37038       298  PMPE      O32            42.6536114338      -18.0507930214      -15.2434477577  MEMB      298             0.0000000000
     37039       298  PMPE      C32            44.4588721258      -18.1593764345      -13.4500153831  MEMB      298             0.0000000000
     37040       298  PMPE      H2X            44.9313521637      -17.1968698554      -13.1590429958  MEMB      298             0.0000000000
     37041       298  PMPE      H2Y            45.1768211459      -19.0049845645      -13.5117946836  MEMB      298             0.0000000000
     37042       298  PMPE      C23            46.2317349696      -13.0091106773      -13.0524394346  MEMB      298             0.0000000000
     37043       298  PMPE      H3R            45.1791869913      -12.6845216360      -13.1977175893  MEMB      298             0.0000000000
     37044       298  PMPE      H3S            46.8466632403      -12.0940750504      -12.9149823918  MEMB      298             0.0000000000
     37045       298  PMPE      C24            46.4896795248      -13.9384640910      -11.8586675303  MEMB      298             0.0000000000
     37046       298  PMPE      H4R            47.4873406420      -14.4009312002      -12.0171525064  MEMB      298             0.0000000000
     37047       298  PMPE      H4S            45.7739479643      -14.7831854624      -11.7664987704  MEMB      298             0.0000000000
     37048       298  PMPE      C25            46.4606898489      -13.2369862930      -10.3913666299  MEMB      298             0.0000000000
     37049       298  PMPE      H5R            45.4533290862      -12.7790128319      -10.2923436528  MEMB      298             0.0000000000
     37050       298  PMPE      H5S            47.2513526140      -12.4638465999      -10.2844644940  MEMB      298             0.0000000000
     37051       298  PMPE      C26            46.6654887791      -14.3020552211       -9.3003274869  MEMB      298             0.0000000000
     37052       298  PMPE      H6R            47.7385292656      -14.5470862671       -9.4515389956  MEMB      298             0.0000000000
     37053       298  PMPE      H6S            46.1197020634      -15.2695136318       -9.3218269384  MEMB      298             0.0000000000
     37054       298  PMPE      C27            46.5790238793      -13.6443808590       -7.8831104751  MEMB      298             0.0000000000
     37055       298  PMPE      H7R            45.6076726625      -13.1079800717       -7.8276873656  MEMB      298             0.0000000000
     37056       298  PMPE      H7S            47.4232153788      -12.9334834788       -7.7554899678  MEMB      298             0.0000000000
     37057       298  PMPE      C28            46.6887640657      -14.6714937048       -6.7106421493  MEMB      298             0.0000000000
     37058       298  PMPE      H8R            45.7583379069      -15.2777902058       -6.6785021246  MEMB      298             0.0000000000
     37059       298  PMPE      H8S            46.5794231961      -14.1561539607       -5.7324853767  MEMB      298             0.0000000000
     37060       298  PMPE      C29            47.9954054209      -15.5818620616       -6.8217454720  MEMB      298             0.0000000000
     37061       298  PMPE      H9R            49.0188331674      -15.1541497520       -6.7586681289  MEMB      298             0.0000000000
     37062       298  PMPE      C217           47.8303419054      -16.9357097855       -7.5310776449  MEMB      298             0.0000000000
     37063       298  PMPE      H17R           48.7511266610      -17.4000321685       -7.8619090502  MEMB      298             0.0000000000
     37064       298  PMPE      H17S           46.7971376593      -17.0936701194       -7.8146728128  MEMB      298             0.0000000000
     37065       298  PMPE      C210           47.9572228359      -16.8455038530       -5.9984200844  MEMB      298             0.0000000000
     37066       298  PMPE      H10R           48.9580160757      -17.2612637343       -5.7537197978  MEMB      298             0.0000000000
     37067       298  PMPE      C211           46.7747769232      -17.4420500158       -5.2557998500  MEMB      298             0.0000000000
     37068       298  PMPE      H11R           46.3873384575      -18.4323372717       -5.5775820793  MEMB      298             0.0000000000
     37069       298  PMPE      H11S           45.9739893392      -16.6764432586       -5.3389031828  MEMB      298             0.0000000000
     37070       298  PMPE      C212           46.9885764597      -17.5407312933       -3.6707567039  MEMB      298             0.0000000000
     37071       298  PMPE      H12R           47.2484117937      -18.5055583673       -3.1850465153  MEMB      298             0.0000000000
     37072       298  PMPE      H12S           45.9868514642      -17.2943180232       -3.2582665707  MEMB      298             0.0000000000
     37073       298  PMPE      C213           47.9578561528      -16.5268015598       -3.1078587542  MEMB      298             0.0000000000
     37074       298  PMPE      H13R           47.8353691108      -15.5518228864       -3.6262556925  MEMB      298             0.0000000000
     37075       298  PMPE      H13S           49.0298766019      -16.7597299391       -3.2834649739  MEMB      298             0.0000000000
     37076       298  PMPE      C214           47.6015990747      -16.2844889042       -1.6007185946  MEMB      298             0.0000000000
     37077       298  PMPE      H14R           47.5756152667      -17.3040175568       -1.1600288965  MEMB      298             0.0000000000
     37078       298  PMPE      H14S           46.6171971324      -15.7731895389       -1.5386967254  MEMB      298             0.0000000000
     37079       298  PMPE      C215           48.6306369777      -15.6080636495       -0.7289321671  MEMB      298             0.0000000000
     37080       298  PMPE      H15R           48.7526758382      -14.5632701585       -1.0864697476  MEMB      298             0.0000000000
     37081       298  PMPE      H15S           49.6735720356      -15.9752594509       -0.8374438201  MEMB      298             0.0000000000
     37082       298  PMPE      C216           48.3447013366      -15.4995797185        0.8117703174  MEMB      298             0.0000000000
     37083       298  PMPE      H16R           48.2805742999      -16.4831141984        1.3244763578  MEMB      298             0.0000000000
     37084       298  PMPE      H16S           49.1883877374      -14.9158346673        1.2380962686  MEMB      298             0.0000000000
     37085       298  PMPE      H16T           47.4342346315      -14.9059746196        1.0419972639  MEMB      298             0.0000000000
     37086       298  PMPE      C33            43.2919420726      -18.5520168670      -12.5255374011  MEMB      298             0.0000000000
     37087       298  PMPE      H3X            43.6735713035      -19.1559128080      -11.6746610716  MEMB      298             0.0000000000
     37088       298  PMPE      H3Y            42.5218402208      -19.1479476662      -13.0604486276  MEMB      298             0.0000000000
     37089       298  PMPE      C34            42.5754588240      -17.3652887295      -11.7197200139  MEMB      298             0.0000000000
     37090       298  PMPE      H4X            42.1753862774      -16.6361903788      -12.4563874377  MEMB      298             0.0000000000
     37091       298  PMPE      H4Y            43.2221718747      -16.7627524700      -11.0466422947  MEMB      298             0.0000000000
     37092       298  PMPE      C35            41.4629026518      -17.8467607133      -10.8856542799  MEMB      298             0.0000000000
     37093       298  PMPE      H5X            41.8113820712      -18.5848024762      -10.1318783337  MEMB      298             0.0000000000
     37094       298  PMPE      H5Y            40.7974599996      -18.3835433240      -11.5951414751  MEMB      298             0.0000000000
     37095       298  PMPE      C36            40.6430283717      -16.6761940435      -10.2747206793  MEMB      298             0.0000000000
     37096       298  PMPE      H6X            39.7349336166      -17.0822526971       -9.7799464048  MEMB      298             0.0000000000
     37097       298  PMPE      H6Y            40.3073129943      -16.2258602588      -11.2332691192  MEMB      298             0.0000000000
     37098       298  PMPE      C37            41.3560463487      -15.7751901591       -9.3153700856  MEMB      298             0.0000000000
     37099       298  PMPE      H7X            40.6297436808      -15.1707417111       -8.7310351267  MEMB      298             0.0000000000
     37100       298  PMPE      H7Y            42.1722393520      -15.2476869898       -9.8537849548  MEMB      298             0.0000000000
     37101       298  PMPE      C38            42.1820342536      -16.5500553918       -8.1670770438  MEMB      298             0.0000000000
     37102       298  PMPE      H8X            43.2660782958      -16.5212473462       -8.4086127207  MEMB      298             0.0000000000
     37103       298  PMPE      H8Y            41.8494728001      -17.6078879105       -8.2357410596  MEMB      298             0.0000000000
     37104       298  PMPE      C39            41.8358474908      -16.1072681681       -6.7185933460  MEMB      298             0.0000000000
     37105       298  PMPE      H9X            40.7490959657      -16.2467720356       -6.5346617644  MEMB      298             0.0000000000
     37106       298  PMPE      H9Y            42.0474276526      -15.0167805811       -6.6988058027  MEMB      298             0.0000000000
     37107       298  PMPE      C310           42.6724732668      -16.9246709406       -5.7563215777  MEMB      298             0.0000000000
     37108       298  PMPE      H10X           43.7376202738      -16.6231675218       -5.8505476211  MEMB      298             0.0000000000
     37109       298  PMPE      H10Y           42.4998396274      -17.9620050067       -6.1147294324  MEMB      298             0.0000000000
     37110       298  PMPE      C311           42.3539441910      -16.8220936892       -4.2705388588  MEMB      298             0.0000000000
     37111       298  PMPE      H11X           42.9823154800      -17.5316487625       -3.6908821197  MEMB      298             0.0000000000
     37112       298  PMPE      H11Y           41.2543848945      -16.9313309925       -4.1549657177  MEMB      298             0.0000000000
     37113       298  PMPE      C312           42.6299995828      -15.4783909375       -3.6072171284  MEMB      298             0.0000000000
     37114       298  PMPE      H12X           42.2208119626      -14.7238198825       -4.3125605111  MEMB      298             0.0000000000
     37115       298  PMPE      H12Y           43.6844169313      -15.1651781603       -3.7634953991  MEMB      298             0.0000000000
     37116       298  PMPE      C313           42.2931679834      -15.2416147706       -2.1047465084  MEMB      298             0.0000000000
     37117       298  PMPE      H13X           41.2140669121      -15.4849595671       -2.0015712621  MEMB      298             0.0000000000
     37118       298  PMPE      H13Y           42.5577984771      -14.2315784716       -1.7251154061  MEMB      298             0.0000000000
     37119       298  PMPE      C314           43.1627446044      -16.1793182027       -1.2712439245  MEMB      298             0.0000000000
     37120       298  PMPE      H14X           44.1804889208      -16.2325282175       -1.7136082485  MEMB      298             0.0000000000
     37121       298  PMPE      H14Y           42.7661474777      -17.2138371451       -1.3537253523  MEMB      298             0.0000000000
     37122       298  PMPE      C315           43.1243837147      -15.6580310663        0.1418485528  MEMB      298             0.0000000000
     37123       298  PMPE      H15X           43.1535693306      -16.5336884541        0.8249982166  MEMB      298             0.0000000000
     37124       298  PMPE      H15Y           42.1236892677      -15.2216718393        0.3480580411  MEMB      298             0.0000000000
     37125       298  PMPE      C316           44.2514945539      -14.6843577855        0.4822626002  MEMB      298             0.0000000000
     37126       298  PMPE      H16X           43.9262019440      -13.7181906133        0.0406431635  MEMB      298             0.0000000000
     37127       298  PMPE      H16Y           45.2372629676      -14.9424705160        0.0395891824  MEMB      298             0.0000000000
     37128       298  PMPE      H16Z           44.1915743726      -14.5627551347        1.5849606947  MEMB      298             0.0000000000
     37129       299  PMPE      N               1.7044056497      -46.5676328616      -19.6270972980  MEMB      299             0.0000000000
     37130       299  PMPE      HN1             1.7538106923      -47.5231504918      -19.2194885228  MEMB      299             0.0000000000
     37131       299  PMPE      HN2             1.4901483892      -45.8911653774      -18.8667778527  MEMB      299             0.0000000000
     37132       299  PMPE      HN3             1.0040479766      -46.5530871197      -20.3957892933  MEMB      299             0.0000000000
     37133       299  PMPE      C12             3.0715855371      -46.3605356385      -20.1631522218  MEMB      299             0.0000000000
     37134       299  PMPE      H12A            3.1477889114      -46.9943387446      -21.0724419643  MEMB      299             0.0000000000
     37135       299  PMPE      H12B            3.7727466625      -46.6347413001      -19.3461421436  MEMB      299             0.0000000000
     37136       299  PMPE      C11             3.4636039373      -44.8815913789      -20.4631532026  MEMB      299             0.0000000000
     37137       299  PMPE      H11A            2.9195338820      -44.4247635347      -21.3173294879  MEMB      299             0.0000000000
     37138       299  PMPE      H11B            4.4938024237      -44.7902992610      -20.8689582292  MEMB      299             0.0000000000
     37139       299  PMPE      P               4.4323064722      -43.6161282736      -18.3202679269  MEMB      299             0.0000000000
     37140       299  PMPE      O13             4.0295426745      -42.7361804459      -17.1927097508  MEMB      299             0.0000000000
     37141       299  PMPE      O14             5.4888182271      -43.0083565612      -19.1694369073  MEMB      299             0.0000000000
     37142       299  PMPE      O11             4.9631649041      -44.9812333107      -17.7443944701  MEMB      299             0.0000000000
     37143       299  PMPE      O12             3.2233200809      -43.9925503064      -19.3197882191  MEMB      299             0.0000000000
     37144       299  PMPE      C1              6.0183044152      -45.7110017844      -18.3214363968  MEMB      299             0.0000000000
     37145       299  PMPE      HA              6.7096525638      -45.1091273134      -18.9492148390  MEMB      299             0.0000000000
     37146       299  PMPE      HB              5.6165481452      -46.5306799254      -18.9547140118  MEMB      299             0.0000000000
     37147       299  PMPE      C2              6.9252395217      -46.4582033967      -17.2808692354  MEMB      299             0.0000000000
     37148       299  PMPE      HS              7.3194070179      -47.2810156930      -17.9148509491  MEMB      299             0.0000000000
     37149       299  PMPE      O21             6.2145653281      -46.9707281117      -16.1744423880  MEMB      299             0.0000000000
     37150       299  PMPE      C21             5.2370497519      -47.8767389722      -16.3668915539  MEMB      299             0.0000000000
     37151       299  PMPE      O22             5.0620647510      -48.4749642041      -17.4188366533  MEMB      299             0.0000000000
     37152       299  PMPE      C22             4.4687452578      -48.0542440132      -15.0022295783  MEMB      299             0.0000000000
     37153       299  PMPE      H2R             3.5692784891      -48.6728327983      -15.2086958497  MEMB      299             0.0000000000
     37154       299  PMPE      H2S             4.1770026669      -47.0314989257      -14.6809820461  MEMB      299             0.0000000000
     37155       299  PMPE      C3              8.0913482233      -45.5729232998      -16.7422462546  MEMB      299             0.0000000000
     37156       299  PMPE      HX              8.7221803217      -45.2351423043      -17.5921144828  MEMB      299             0.0000000000
     37157       299  PMPE      HY              8.7209055422      -46.1632401057      -16.0426003646  MEMB      299             0.0000000000
     37158       299  PMPE      O31             7.6043537350      -44.3106640413      -16.2647447928  MEMB      299             0.0000000000
     37159       299  PMPE      C31             7.4038721629      -44.3208943894      -14.9492870443  MEMB      299             0.0000000000
     37160       299  PMPE      O32             7.7324180261      -45.2028901581      -14.1923194676  MEMB      299             0.0000000000
     37161       299  PMPE      C32             6.6439801827      -43.0329355872      -14.5120375210  MEMB      299             0.0000000000
     37162       299  PMPE      H2X             6.2221154763      -42.6283188863      -15.4568322055  MEMB      299             0.0000000000
     37163       299  PMPE      H2Y             7.4193426140      -42.3633895305      -14.0821056147  MEMB      299             0.0000000000
     37164       299  PMPE      C23             5.2573345609      -48.8777875395      -14.0159048129  MEMB      299             0.0000000000
     37165       299  PMPE      H3R             6.2522543609      -49.1506710630      -14.4282035030  MEMB      299             0.0000000000
     37166       299  PMPE      H3S             4.7551471399      -49.8486878694      -13.8172047117  MEMB      299             0.0000000000
     37167       299  PMPE      C24             5.4781449906      -48.1932134163      -12.6993197362  MEMB      299             0.0000000000
     37168       299  PMPE      H4R             4.4625538295      -48.0830580529      -12.2625573340  MEMB      299             0.0000000000
     37169       299  PMPE      H4S             5.9558760986      -47.2202266259      -12.9430220254  MEMB      299             0.0000000000
     37170       299  PMPE      C25             6.2031352703      -49.0645492196      -11.7183908097  MEMB      299             0.0000000000
     37171       299  PMPE      H5R             7.1540455686      -49.2075494989      -12.2748452084  MEMB      299             0.0000000000
     37172       299  PMPE      H5S             5.7139036559      -50.0443967664      -11.5316482000  MEMB      299             0.0000000000
     37173       299  PMPE      C26             6.3887588182      -48.4143420460      -10.3272424071  MEMB      299             0.0000000000
     37174       299  PMPE      H6R             6.8160623089      -49.1852764025       -9.6509338662  MEMB      299             0.0000000000
     37175       299  PMPE      H6S             5.3611550345      -48.2591291737       -9.9344822521  MEMB      299             0.0000000000
     37176       299  PMPE      C27             7.1585679267      -47.0583804244      -10.1867950275  MEMB      299             0.0000000000
     37177       299  PMPE      H7R             6.4678427384      -46.3684613400      -10.7171082142  MEMB      299             0.0000000000
     37178       299  PMPE      H7S             8.1504724531      -47.1291217614      -10.6822156858  MEMB      299             0.0000000000
     37179       299  PMPE      C28             7.3723012751      -46.6773353308       -8.6798073084  MEMB      299             0.0000000000
     37180       299  PMPE      H8R             8.2298125790      -47.2360565904       -8.2475739351  MEMB      299             0.0000000000
     37181       299  PMPE      H8S             6.4295381178      -46.8418578414       -8.1154930609  MEMB      299             0.0000000000
     37182       299  PMPE      C29             7.5892300971      -45.1386423443       -8.6453985836  MEMB      299             0.0000000000
     37183       299  PMPE      H9R             7.2117551344      -44.4522451124       -9.4332386538  MEMB      299             0.0000000000
     37184       299  PMPE      C217            9.0958736231      -44.8358239223       -8.5550544587  MEMB      299             0.0000000000
     37185       299  PMPE      H17R            9.5013094244      -43.9490449181       -9.0263654436  MEMB      299             0.0000000000
     37186       299  PMPE      H17S            9.6456657020      -45.7683449144       -8.5870272858  MEMB      299             0.0000000000
     37187       299  PMPE      C210            8.1199683225      -44.6023438343       -7.3998763576  MEMB      299             0.0000000000
     37188       299  PMPE      H10R            7.8980521571      -43.5346964442       -7.1872655558  MEMB      299             0.0000000000
     37189       299  PMPE      C211            8.3203053791      -45.5836751168       -6.2299642752  MEMB      299             0.0000000000
     37190       299  PMPE      H11R            9.0475756679      -45.2407904091       -5.4632638957  MEMB      299             0.0000000000
     37191       299  PMPE      H11S            8.7604561261      -46.5540799581       -6.5444522703  MEMB      299             0.0000000000
     37192       299  PMPE      C212            6.9748769955      -45.7968798395       -5.4522335064  MEMB      299             0.0000000000
     37193       299  PMPE      H12R            6.2834270677      -46.4793525631       -5.9911661408  MEMB      299             0.0000000000
     37194       299  PMPE      H12S            6.4616914098      -44.8415199782       -5.2108850535  MEMB      299             0.0000000000
     37195       299  PMPE      C213            7.1084550767      -46.4676436476       -4.1080985253  MEMB      299             0.0000000000
     37196       299  PMPE      H13R            6.0599384038      -46.6876640111       -3.8139475182  MEMB      299             0.0000000000
     37197       299  PMPE      H13S            7.4793551535      -45.7233594929       -3.3713524696  MEMB      299             0.0000000000
     37198       299  PMPE      C214            7.8982246121      -47.7603581597       -4.0305662630  MEMB      299             0.0000000000
     37199       299  PMPE      H14R            8.8988191667      -47.5215052672       -4.4501860553  MEMB      299             0.0000000000
     37200       299  PMPE      H14S            7.3159434275      -48.4471645991       -4.6813853355  MEMB      299             0.0000000000
     37201       299  PMPE      C215            7.8740903676      -48.3395500673       -2.6055562333  MEMB      299             0.0000000000
     37202       299  PMPE      H15R            6.8467620856      -48.6685839932       -2.3397471903  MEMB      299             0.0000000000
     37203       299  PMPE      H15S            8.2163943934      -47.6349511114       -1.8177179866  MEMB      299             0.0000000000
     37204       299  PMPE      C216            8.5187196028      -49.7095898934       -2.3910096830  MEMB      299             0.0000000000
     37205       299  PMPE      H16R            7.8621825511      -50.4320261498       -2.9214494014  MEMB      299             0.0000000000
     37206       299  PMPE      H16S            9.4774364774      -49.8103340342       -2.9433081297  MEMB      299             0.0000000000
     37207       299  PMPE      H16T            8.5029252966      -50.1301540655       -1.3628085832  MEMB      299             0.0000000000
     37208       299  PMPE      C33             5.5864262649      -43.3642788460      -13.5081443909  MEMB      299             0.0000000000
     37209       299  PMPE      H3X             6.0295970135      -43.7226559849      -12.5544744868  MEMB      299             0.0000000000
     37210       299  PMPE      H3Y             4.9683638932      -44.2166654788      -13.8627664394  MEMB      299             0.0000000000
     37211       299  PMPE      C34             4.5767657604      -42.2472700244      -13.3178365047  MEMB      299             0.0000000000
     37212       299  PMPE      H4X             4.0499629011      -41.9658821478      -14.2546503253  MEMB      299             0.0000000000
     37213       299  PMPE      H4Y             5.0802415447      -41.3023324740      -13.0213134534  MEMB      299             0.0000000000
     37214       299  PMPE      C35             3.4854207977      -42.5192974434      -12.2262365491  MEMB      299             0.0000000000
     37215       299  PMPE      H5X             2.6186693257      -41.8258477187      -12.2730408820  MEMB      299             0.0000000000
     37216       299  PMPE      H5Y             4.0422452090      -42.5354647753      -11.2649842397  MEMB      299             0.0000000000
     37217       299  PMPE      C36             2.7438043279      -43.8502061227      -12.3461275462  MEMB      299             0.0000000000
     37218       299  PMPE      H6X             3.4381402400      -44.7039961114      -12.1936109533  MEMB      299             0.0000000000
     37219       299  PMPE      H6Y             2.3075126139      -44.0564908730      -13.3468361867  MEMB      299             0.0000000000
     37220       299  PMPE      C37             1.6505193898      -43.9523959543      -11.2630752277  MEMB      299             0.0000000000
     37221       299  PMPE      H7X             1.0510174824      -43.0259442890      -11.3919394875  MEMB      299             0.0000000000
     37222       299  PMPE      H7Y             2.0649561303      -43.7788800096      -10.2469774490  MEMB      299             0.0000000000
     37223       299  PMPE      C38             0.7793377366      -45.2647300326      -11.2723561342  MEMB      299             0.0000000000
     37224       299  PMPE      H8X             0.3581566523      -45.4023317472      -12.2911757572  MEMB      299             0.0000000000
     37225       299  PMPE      H8Y            -0.0878530043      -45.2160952143      -10.5795817876  MEMB      299             0.0000000000
     37226       299  PMPE      C39             1.5843197569      -46.5216548663      -10.9772386937  MEMB      299             0.0000000000
     37227       299  PMPE      H9X             2.3702404916      -46.6324002235      -11.7546606876  MEMB      299             0.0000000000
     37228       299  PMPE      H9Y             0.8601968406      -47.3639464561      -10.9998654500  MEMB      299             0.0000000000
     37229       299  PMPE      C310            2.4817862184      -46.7176396159       -9.6636949943  MEMB      299             0.0000000000
     37230       299  PMPE      H10X            3.1485285005      -45.8289554590       -9.6596901773  MEMB      299             0.0000000000
     37231       299  PMPE      H10Y            2.9896848912      -47.6942545139       -9.8139721112  MEMB      299             0.0000000000
     37232       299  PMPE      C311            1.7683779668      -46.6044035518       -8.2960405762  MEMB      299             0.0000000000
     37233       299  PMPE      H11X            0.8393778123      -47.2096652903       -8.2257743868  MEMB      299             0.0000000000
     37234       299  PMPE      H11Y            1.5386700420      -45.5194220914       -8.3621487105  MEMB      299             0.0000000000
     37235       299  PMPE      C312            2.5966860420      -46.8392318645       -7.0549050769  MEMB      299             0.0000000000
     37236       299  PMPE      H12X            3.4873477899      -46.1754075044       -7.0354160900  MEMB      299             0.0000000000
     37237       299  PMPE      H12Y            2.9467528492      -47.8908712664       -6.9785581626  MEMB      299             0.0000000000
     37238       299  PMPE      C313            1.9022439585      -46.5892983760       -5.7484336684  MEMB      299             0.0000000000
     37239       299  PMPE      H13X            0.9549770440      -47.1687980808       -5.7139913034  MEMB      299             0.0000000000
     37240       299  PMPE      H13Y            1.4704097536      -45.5727677573       -5.6279941620  MEMB      299             0.0000000000
     37241       299  PMPE      C314            2.6783993903      -47.0191657540       -4.4428131839  MEMB      299             0.0000000000
     37242       299  PMPE      H14X            2.1060763470      -46.4758885622       -3.6607534717  MEMB      299             0.0000000000
     37243       299  PMPE      H14Y            3.7646650590      -46.7878967068       -4.4721746531  MEMB      299             0.0000000000
     37244       299  PMPE      C315            2.6026260139      -48.5367538012       -4.0890392926  MEMB      299             0.0000000000
     37245       299  PMPE      H15X            2.9454683660      -49.1535100257       -4.9471719042  MEMB      299             0.0000000000
     37246       299  PMPE      H15Y            1.5695587961      -48.8769625295       -3.8624329211  MEMB      299             0.0000000000
     37247       299  PMPE      C316            3.4435446960      -49.1334302586       -2.8815841840  MEMB      299             0.0000000000
     37248       299  PMPE      H16X            3.2934706461      -50.2333202173       -2.9267563328  MEMB      299             0.0000000000
     37249       299  PMPE      H16Y            3.2029668397      -48.7701328167       -1.8595975241  MEMB      299             0.0000000000
     37250       299  PMPE      H16Z            4.5354483976      -48.9761721932       -3.0132556810  MEMB      299             0.0000000000
     37251       300  PMPE      N             -34.4569028489      -23.9977287699      -19.6807386381  MEMB      300             0.0000000000
     37252       300  PMPE      HN1           -35.1207074104      -23.4303581899      -20.2455874289  MEMB      300             0.0000000000
     37253       300  PMPE      HN2           -33.5045736501      -23.5879171314      -19.5987408314  MEMB      300             0.0000000000
     37254       300  PMPE      HN3           -34.3900600434      -24.8997125497      -20.1941170511  MEMB      300             0.0000000000
     37255       300  PMPE      C12           -34.9185153693      -24.5006894485      -18.3343609158  MEMB      300             0.0000000000
     37256       300  PMPE      H12A          -35.3016481403      -23.6097041527      -17.7924425745  MEMB      300             0.0000000000
     37257       300  PMPE      H12B          -34.0919703846      -25.0346480801      -17.8185774272  MEMB      300             0.0000000000
     37258       300  PMPE      C11           -36.1293556054      -25.4962991730      -18.4968052002  MEMB      300             0.0000000000
     37259       300  PMPE      H11A          -37.0395506312      -25.1027171223      -18.9977631821  MEMB      300             0.0000000000
     37260       300  PMPE      H11B          -36.5544703075      -25.6646118760      -17.4842493684  MEMB      300             0.0000000000
     37261       300  PMPE      P             -36.6956960499      -27.9107911603      -19.1877551076  MEMB      300             0.0000000000
     37262       300  PMPE      O13           -36.3383666454      -28.8506674896      -20.2850819278  MEMB      300             0.0000000000
     37263       300  PMPE      O14           -38.0677924297      -27.3667696225      -19.2326456211  MEMB      300             0.0000000000
     37264       300  PMPE      O11           -36.5257735659      -28.6843112742      -17.7809783828  MEMB      300             0.0000000000
     37265       300  PMPE      O12           -35.6561462884      -26.7566774614      -19.0016342063  MEMB      300             0.0000000000
     37266       300  PMPE      C1            -37.4762850581      -29.5167876929      -17.2004584371  MEMB      300             0.0000000000
     37267       300  PMPE      HA            -37.1993654309      -30.5878107648      -17.3031535666  MEMB      300             0.0000000000
     37268       300  PMPE      HB            -38.3950484721      -29.3684770693      -17.8072522499  MEMB      300             0.0000000000
     37269       300  PMPE      C2            -37.6844265862      -29.2114062082      -15.7354307396  MEMB      300             0.0000000000
     37270       300  PMPE      HS            -38.6446231258      -29.6547819355      -15.3951931759  MEMB      300             0.0000000000
     37271       300  PMPE      O21           -37.8118335378      -27.7949123556      -15.5779930919  MEMB      300             0.0000000000
     37272       300  PMPE      C21           -38.9443870717      -27.2343552000      -15.9810720577  MEMB      300             0.0000000000
     37273       300  PMPE      O22           -39.9136306234      -27.7944308561      -16.4103086672  MEMB      300             0.0000000000
     37274       300  PMPE      C22           -38.8853394229      -25.7549949611      -15.8893675102  MEMB      300             0.0000000000
     37275       300  PMPE      H2R           -39.3288166629      -25.3516925037      -16.8247797260  MEMB      300             0.0000000000
     37276       300  PMPE      H2S           -37.8457561960      -25.3649225481      -15.9272003789  MEMB      300             0.0000000000
     37277       300  PMPE      C3            -36.4938547063      -29.7577675665      -14.9485041247  MEMB      300             0.0000000000
     37278       300  PMPE      HX            -35.5931589107      -29.5823195523      -15.5748313840  MEMB      300             0.0000000000
     37279       300  PMPE      HY            -36.4934661794      -30.8363120628      -14.6819286599  MEMB      300             0.0000000000
     37280       300  PMPE      O31           -36.2959168569      -29.1044881484      -13.7241751409  MEMB      300             0.0000000000
     37281       300  PMPE      C31           -35.4176228960      -28.1363041844      -13.6100254019  MEMB      300             0.0000000000
     37282       300  PMPE      O32           -34.7669876472      -27.7214925852      -14.5642702693  MEMB      300             0.0000000000
     37283       300  PMPE      C32           -35.4220518720      -27.6290046430      -12.1940500530  MEMB      300             0.0000000000
     37284       300  PMPE      H2X           -34.9868849322      -28.4041036423      -11.5275876261  MEMB      300             0.0000000000
     37285       300  PMPE      H2Y           -36.4724412853      -27.5456795141      -11.8418287406  MEMB      300             0.0000000000
     37286       300  PMPE      C23           -39.5960399882      -25.1573262200      -14.6232855128  MEMB      300             0.0000000000
     37287       300  PMPE      H3R           -40.6088812480      -25.6103393931      -14.5662538952  MEMB      300             0.0000000000
     37288       300  PMPE      H3S           -39.6929096803      -24.0552056858      -14.7246157326  MEMB      300             0.0000000000
     37289       300  PMPE      C24           -38.7544926021      -25.4744862935      -13.3330880869  MEMB      300             0.0000000000
     37290       300  PMPE      H4R           -37.6775314204      -25.3267942374      -13.5625720031  MEMB      300             0.0000000000
     37291       300  PMPE      H4S           -38.8739684654      -26.5690654670      -13.1849565379  MEMB      300             0.0000000000
     37292       300  PMPE      C25           -39.3323794074      -24.6304846310      -12.1327593459  MEMB      300             0.0000000000
     37293       300  PMPE      H5R           -39.9470519164      -23.7517593603      -12.4231735113  MEMB      300             0.0000000000
     37294       300  PMPE      H5S           -38.4196137032      -24.1352264470      -11.7379184830  MEMB      300             0.0000000000
     37295       300  PMPE      C26           -40.2047003616      -25.2855758992      -11.1134213413  MEMB      300             0.0000000000
     37296       300  PMPE      H6R           -39.9456822490      -26.3653552954      -11.0772689476  MEMB      300             0.0000000000
     37297       300  PMPE      H6S           -41.2401337512      -25.2526139497      -11.5148096615  MEMB      300             0.0000000000
     37298       300  PMPE      C27           -40.2524827062      -24.7976879917       -9.6771592984  MEMB      300             0.0000000000
     37299       300  PMPE      H7R           -40.2645138268      -23.6932270245       -9.7969181364  MEMB      300             0.0000000000
     37300       300  PMPE      H7S           -39.2366367781      -25.0692959262       -9.3185408912  MEMB      300             0.0000000000
     37301       300  PMPE      C28           -41.3949127391      -25.3729812301       -8.8873468442  MEMB      300             0.0000000000
     37302       300  PMPE      H8R           -42.4042483893      -25.3606080160       -9.3514692100  MEMB      300             0.0000000000
     37303       300  PMPE      H8S           -41.5052679027      -24.6085097768       -8.0887696639  MEMB      300             0.0000000000
     37304       300  PMPE      C29           -41.0952556707      -26.8296749108       -8.3920210829  MEMB      300             0.0000000000
     37305       300  PMPE      H9R           -40.9792155144      -27.6094890177       -9.1748018750  MEMB      300             0.0000000000
     37306       300  PMPE      C217          -41.7337254814      -27.3594706524       -7.0796413311  MEMB      300             0.0000000000
     37307       300  PMPE      H17R          -41.8488878914      -28.4277363934       -7.2154184338  MEMB      300             0.0000000000
     37308       300  PMPE      H17S          -42.4572568627      -26.7393270646       -6.5650411056  MEMB      300             0.0000000000
     37309       300  PMPE      C210          -40.2307437794      -26.9306827219       -7.0989817347  MEMB      300             0.0000000000
     37310       300  PMPE      H10R          -39.5941396246      -27.8404724561       -7.0623902049  MEMB      300             0.0000000000
     37311       300  PMPE      C211          -40.0081717319      -25.6540378772       -6.2536181908  MEMB      300             0.0000000000
     37312       300  PMPE      H11R          -40.9437922319      -25.1129253788       -5.9964549786  MEMB      300             0.0000000000
     37313       300  PMPE      H11S          -39.4704302084      -24.8813688317       -6.8436497514  MEMB      300             0.0000000000
     37314       300  PMPE      C212          -39.2771970902      -25.9340912787       -4.8998010253  MEMB      300             0.0000000000
     37315       300  PMPE      H12R          -38.2757539810      -26.2875825873       -5.2261091760  MEMB      300             0.0000000000
     37316       300  PMPE      H12S          -39.8541398603      -26.7303774554       -4.3827069388  MEMB      300             0.0000000000
     37317       300  PMPE      C213          -39.1235488980      -24.5702200172       -4.1190926065  MEMB      300             0.0000000000
     37318       300  PMPE      H13R          -40.1179542692      -24.1244985584       -3.9027332387  MEMB      300             0.0000000000
     37319       300  PMPE      H13S          -38.5613232717      -23.8155215211       -4.7095614604  MEMB      300             0.0000000000
     37320       300  PMPE      C214          -38.4645202007      -24.7154175987       -2.6768190285  MEMB      300             0.0000000000
     37321       300  PMPE      H14R          -38.4550090276      -23.7160027093       -2.1916386138  MEMB      300             0.0000000000
     37322       300  PMPE      H14S          -37.3941790587      -24.9921983482       -2.7867436163  MEMB      300             0.0000000000
     37323       300  PMPE      C215          -39.1511156377      -25.6510796095       -1.7029171977  MEMB      300             0.0000000000
     37324       300  PMPE      H15R          -38.5122717536      -25.9020404890       -0.8292936299  MEMB      300             0.0000000000
     37325       300  PMPE      H15S          -39.3705321676      -26.6446272665       -2.1490579184  MEMB      300             0.0000000000
     37326       300  PMPE      C216          -40.5445066735      -25.3171823714       -1.2284858151  MEMB      300             0.0000000000
     37327       300  PMPE      H16R          -41.0274371310      -26.1115763731       -0.6201793295  MEMB      300             0.0000000000
     37328       300  PMPE      H16S          -40.5006082170      -24.3911599713       -0.6162149193  MEMB      300             0.0000000000
     37329       300  PMPE      H16T          -41.3841008139      -25.2173217238       -1.9492005198  MEMB      300             0.0000000000
     37330       300  PMPE      C33           -34.5579690262      -26.4109992441      -12.0600890402  MEMB      300             0.0000000000
     37331       300  PMPE      H3X           -34.7791652056      -25.6200503823      -12.8082822149  MEMB      300             0.0000000000
     37332       300  PMPE      H3Y           -33.4900404524      -26.6806334732      -12.2055097873  MEMB      300             0.0000000000
     37333       300  PMPE      C34           -34.5501581202      -25.8055390607      -10.6637412137  MEMB      300             0.0000000000
     37334       300  PMPE      H4X           -35.5651390572      -25.4075549889      -10.4498646477  MEMB      300             0.0000000000
     37335       300  PMPE      H4Y           -33.9123441067      -24.9035062261      -10.7814328352  MEMB      300             0.0000000000
     37336       300  PMPE      C35           -34.1607128049      -26.6670270953       -9.5042344874  MEMB      300             0.0000000000
     37337       300  PMPE      H5X           -33.0547507787      -26.7275018774       -9.5909025651  MEMB      300             0.0000000000
     37338       300  PMPE      H5Y           -34.5714155079      -27.6965214213       -9.4281699648  MEMB      300             0.0000000000
     37339       300  PMPE      C36           -34.3916174174      -25.8713629024       -8.2372886954  MEMB      300             0.0000000000
     37340       300  PMPE      H6X           -35.4676688565      -25.5975573393       -8.2755604133  MEMB      300             0.0000000000
     37341       300  PMPE      H6Y           -33.7116039994      -24.9948262610       -8.2971729651  MEMB      300             0.0000000000
     37342       300  PMPE      C37           -34.0399738221      -26.5653457047       -6.9446783715  MEMB      300             0.0000000000
     37343       300  PMPE      H7X           -34.0695026758      -25.7648937695       -6.1747911985  MEMB      300             0.0000000000
     37344       300  PMPE      H7Y           -33.0199769244      -26.9727202417       -7.1119307865  MEMB      300             0.0000000000
     37345       300  PMPE      C38           -34.9386970042      -27.7228578683       -6.5678868473  MEMB      300             0.0000000000
     37346       300  PMPE      H8X           -34.9323308055      -28.5237302434       -7.3378757479  MEMB      300             0.0000000000
     37347       300  PMPE      H8Y           -35.9940138383      -27.4077872824       -6.4217424331  MEMB      300             0.0000000000
     37348       300  PMPE      C39           -34.5988370954      -28.2375658421       -5.1629560602  MEMB      300             0.0000000000
     37349       300  PMPE      H9X           -33.5103213340      -28.4556566998       -5.2064375480  MEMB      300             0.0000000000
     37350       300  PMPE      H9Y           -35.0522307003      -29.2345336339       -4.9763807352  MEMB      300             0.0000000000
     37351       300  PMPE      C310          -34.9719931808      -27.3480256781       -4.0716220038  MEMB      300             0.0000000000
     37352       300  PMPE      H10X          -36.0206257209      -27.5650620839       -3.7756725396  MEMB      300             0.0000000000
     37353       300  PMPE      H10Y          -34.7565375897      -26.2806634347       -4.2921619866  MEMB      300             0.0000000000
     37354       300  PMPE      C311          -34.2353305701      -27.8129791508       -2.8261540465  MEMB      300             0.0000000000
     37355       300  PMPE      H11X          -33.1524691586      -27.7833484297       -3.0728406767  MEMB      300             0.0000000000
     37356       300  PMPE      H11Y          -34.6115618877      -28.8343880654       -2.6036804672  MEMB      300             0.0000000000
     37357       300  PMPE      C312          -34.5429496214      -27.0440267452       -1.4959621506  MEMB      300             0.0000000000
     37358       300  PMPE      H12X          -34.0100067671      -27.5680267182       -0.6739415317  MEMB      300             0.0000000000
     37359       300  PMPE      H12Y          -35.5859344251      -27.3028831378       -1.2140103040  MEMB      300             0.0000000000
     37360       300  PMPE      C313          -34.2787954278      -25.5270047840       -1.6061129380  MEMB      300             0.0000000000
     37361       300  PMPE      H13X          -34.9923391838      -25.1087390816       -2.3478879366  MEMB      300             0.0000000000
     37362       300  PMPE      H13Y          -33.3107466112      -25.4688062053       -2.1481607006  MEMB      300             0.0000000000
     37363       300  PMPE      C314          -34.3285777320      -24.7424796695       -0.2939528290  MEMB      300             0.0000000000
     37364       300  PMPE      H14X          -33.5812027884      -25.0658168443        0.4618283963  MEMB      300             0.0000000000
     37365       300  PMPE      H14Y          -35.3176870084      -24.7687016574        0.2113139936  MEMB      300             0.0000000000
     37366       300  PMPE      C315          -34.0468509248      -23.2520981049       -0.3756110878  MEMB      300             0.0000000000
     37367       300  PMPE      H15X          -34.8866427337      -22.7781547469       -0.9273790722  MEMB      300             0.0000000000
     37368       300  PMPE      H15Y          -33.0737788207      -22.9869294237       -0.8415910978  MEMB      300             0.0000000000
     37369       300  PMPE      C316          -34.1721854236      -22.5928915749        0.9777242215  MEMB      300             0.0000000000
     37370       300  PMPE      H16X          -33.2982180304      -22.8732673309        1.6037357696  MEMB      300             0.0000000000
     37371       300  PMPE      H16Y          -35.0457103870      -23.0065789966        1.5255722464  MEMB      300             0.0000000000
     37372       300  PMPE      H16Z          -34.1113832892      -21.4837772044        0.9998387878  MEMB      300             0.0000000000
     37373       301  PMPG      C13            33.4835860934       34.2197241078      -19.2656001117  MEMB      301             0.0000000000
     37374       301  PMPG      H13A           32.7298752121       34.8609690783      -18.7605797388  MEMB      301             0.0000000000
     37375       301  PMPG      H13B           34.4379678435       34.7258501629      -19.0061524930  MEMB      301             0.0000000000
     37376       301  PMPG      OC3            33.1845418116       34.3479875520      -20.6746701951  MEMB      301             0.0000000000
     37377       301  PMPG      HO3            33.7156187907       35.0612013201      -21.0364479657  MEMB      301             0.0000000000
     37378       301  PMPG      C12            33.4549558831       32.7453258002      -18.7440539721  MEMB      301             0.0000000000
     37379       301  PMPG      H12A           33.6896706045       32.7748230357      -17.6546422260  MEMB      301             0.0000000000
     37380       301  PMPG      OC2            34.4675905547       31.9743685212      -19.3923107004  MEMB      301             0.0000000000
     37381       301  PMPG      HO2            34.2707702646       31.0584360865      -19.0972744509  MEMB      301             0.0000000000
     37382       301  PMPG      C11            32.1066826265       32.0644381743      -18.9031131565  MEMB      301             0.0000000000
     37383       301  PMPG      H11A           31.7966021221       32.0753311209      -19.9699085162  MEMB      301             0.0000000000
     37384       301  PMPG      H11B           31.3325364746       32.5149727120      -18.2458175676  MEMB      301             0.0000000000
     37385       301  PMPG      P              30.9598133872       29.7847124025      -18.6858711063  MEMB      301             0.0000000000
     37386       301  PMPG      O13            31.2991172636       28.5351807252      -17.9917179209  MEMB      301             0.0000000000
     37387       301  PMPG      O14            30.4123803251       29.7947316149      -20.0498696947  MEMB      301             0.0000000000
     37388       301  PMPG      O11            30.0941769985       30.6752838598      -17.6841773938  MEMB      301             0.0000000000
     37389       301  PMPG      O12            32.2815810759       30.6893672187      -18.6086157481  MEMB      301             0.0000000000
     37390       301  PMPG      C1             29.5068063733       30.1275986357      -16.5045531521  MEMB      301             0.0000000000
     37391       301  PMPG      HA             30.3935001791       29.7207635567      -15.9729703510  MEMB      301             0.0000000000
     37392       301  PMPG      HB             28.7345237686       29.3567023850      -16.7134060891  MEMB      301             0.0000000000
     37393       301  PMPG      C2             28.9710338930       31.2361292867      -15.5515121065  MEMB      301             0.0000000000
     37394       301  PMPG      HS             28.2474556646       31.8038547403      -16.1747644076  MEMB      301             0.0000000000
     37395       301  PMPG      O21            30.0723347027       32.1083042696      -15.1720345804  MEMB      301             0.0000000000
     37396       301  PMPG      C21            29.7837366584       33.2246824959      -14.5021226876  MEMB      301             0.0000000000
     37397       301  PMPG      O22            28.7410873221       33.6638143976      -14.0543789935  MEMB      301             0.0000000000
     37398       301  PMPG      C22            31.1717288570       33.9438662989      -14.2548289410  MEMB      301             0.0000000000
     37399       301  PMPG      H2R            31.3583771046       34.5648561094      -15.1569680149  MEMB      301             0.0000000000
     37400       301  PMPG      H2S            31.9358872420       33.1570612426      -14.0778522226  MEMB      301             0.0000000000
     37401       301  PMPG      C3             28.2554477105       30.5781747766      -14.3016679981  MEMB      301             0.0000000000
     37402       301  PMPG      HX             27.5815047023       29.7701957780      -14.6584483126  MEMB      301             0.0000000000
     37403       301  PMPG      HY             27.7021120446       31.4110216801      -13.8174091784  MEMB      301             0.0000000000
     37404       301  PMPG      O31            29.2204636363       30.0028840250      -13.3480752275  MEMB      301             0.0000000000
     37405       301  PMPG      C31            29.2445484783       30.6029135664      -12.1715486610  MEMB      301             0.0000000000
     37406       301  PMPG      O32            28.5811327457       31.5816867169      -11.7608201461  MEMB      301             0.0000000000
     37407       301  PMPG      C32            30.2255575630       29.8071222833      -11.2958934281  MEMB      301             0.0000000000
     37408       301  PMPG      H2X            31.2889996448       30.1022488249      -11.4236128473  MEMB      301             0.0000000000
     37409       301  PMPG      H2Y            30.2228892897       28.7375609495      -11.5964802451  MEMB      301             0.0000000000
     37410       301  PMPG      C23            30.9347646118       34.7991190058      -13.0092882263  MEMB      301             0.0000000000
     37411       301  PMPG      H3R            30.4518619846       34.3353908738      -12.1226753249  MEMB      301             0.0000000000
     37412       301  PMPG      H3S            30.3273652774       35.6970123198      -13.2525469211  MEMB      301             0.0000000000
     37413       301  PMPG      C24            32.2993126835       35.3049278443      -12.5530650984  MEMB      301             0.0000000000
     37414       301  PMPG      H4R            32.0681362927       36.1156453579      -11.8294519532  MEMB      301             0.0000000000
     37415       301  PMPG      H4S            32.7752392671       35.9146216641      -13.3506167428  MEMB      301             0.0000000000
     37416       301  PMPG      C25            33.2566026969       34.2718623250      -11.7415986946  MEMB      301             0.0000000000
     37417       301  PMPG      H5R            34.0414186662       34.9491992993      -11.3420994149  MEMB      301             0.0000000000
     37418       301  PMPG      H5S            33.7372976542       33.6886976553      -12.5559528643  MEMB      301             0.0000000000
     37419       301  PMPG      C26            32.5752876563       33.3616415190      -10.6709558800  MEMB      301             0.0000000000
     37420       301  PMPG      H6R            33.2715754613       32.6256604329      -10.2150652374  MEMB      301             0.0000000000
     37421       301  PMPG      H6S            31.7821907131       32.6928375343      -11.0684726517  MEMB      301             0.0000000000
     37422       301  PMPG      C27            32.0649151594       34.2063196159       -9.4734482354  MEMB      301             0.0000000000
     37423       301  PMPG      H7R            31.6503749943       33.5414914954       -8.6857417864  MEMB      301             0.0000000000
     37424       301  PMPG      H7S            31.3674218873       34.8797882493      -10.0159094605  MEMB      301             0.0000000000
     37425       301  PMPG      C28            33.1563043888       34.8470129341       -8.5946127454  MEMB      301             0.0000000000
     37426       301  PMPG      H8R            32.6458940378       35.5607382078       -7.9131444011  MEMB      301             0.0000000000
     37427       301  PMPG      H8S            33.9126184108       35.4143525574       -9.1780818020  MEMB      301             0.0000000000
     37428       301  PMPG      C29            33.9873264648       33.7770740458       -7.7564248378  MEMB      301             0.0000000000
     37429       301  PMPG      H9R            34.5206938315       32.9954322979       -8.3385560030  MEMB      301             0.0000000000
     37430       301  PMPG      C217           34.9332753126       34.4159319119       -6.6884093171  MEMB      301             0.0000000000
     37431       301  PMPG      H17R           35.8358069777       33.8611117081       -6.4636871756  MEMB      301             0.0000000000
     37432       301  PMPG      H17S           34.7504101796       35.4330211025       -6.3644048114  MEMB      301             0.0000000000
     37433       301  PMPG      C210           33.7110506366       33.6081847790       -6.2819356029  MEMB      301             0.0000000000
     37434       301  PMPG      H10R           33.8702751340       32.5386501828       -6.0268585149  MEMB      301             0.0000000000
     37435       301  PMPG      C211           32.4460096700       34.3111672193       -5.6292156203  MEMB      301             0.0000000000
     37436       301  PMPG      H11R           32.4257107807       35.3957179153       -5.8693368498  MEMB      301             0.0000000000
     37437       301  PMPG      H11S           31.4956049964       33.9167083313       -6.0480876377  MEMB      301             0.0000000000
     37438       301  PMPG      C212           32.5364726629       34.1470866908       -4.0965016641  MEMB      301             0.0000000000
     37439       301  PMPG      H12R           33.3814532477       34.7758200467       -3.7429157668  MEMB      301             0.0000000000
     37440       301  PMPG      H12S           33.0671272710       33.1795810312       -3.9674298357  MEMB      301             0.0000000000
     37441       301  PMPG      C213           31.2617200510       34.3622313539       -3.2918402762  MEMB      301             0.0000000000
     37442       301  PMPG      H13R           30.8604518299       35.3795961277       -3.4874771873  MEMB      301             0.0000000000
     37443       301  PMPG      H13S           31.5167797461       34.2258622633       -2.2191486160  MEMB      301             0.0000000000
     37444       301  PMPG      C214           30.0994460015       33.4340523740       -3.6525862259  MEMB      301             0.0000000000
     37445       301  PMPG      H14R           29.8632641266       33.5305244080       -4.7338971073  MEMB      301             0.0000000000
     37446       301  PMPG      H14S           29.1456679764       33.7273404425       -3.1641092774  MEMB      301             0.0000000000
     37447       301  PMPG      C215           30.3304778066       31.9639826435       -3.3256950922  MEMB      301             0.0000000000
     37448       301  PMPG      H15R           31.4030670363       31.6747354379       -3.3112152068  MEMB      301             0.0000000000
     37449       301  PMPG      H15S           29.9157629002       31.3527998227       -4.1556271056  MEMB      301             0.0000000000
     37450       301  PMPG      C216           29.7574378149       31.5382519978       -1.9559026081  MEMB      301             0.0000000000
     37451       301  PMPG      H16R           30.3493583330       30.6145789327       -1.7804635058  MEMB      301             0.0000000000
     37452       301  PMPG      H16S           28.6654246494       31.4255176450       -2.1265465800  MEMB      301             0.0000000000
     37453       301  PMPG      H16T           29.9134444194       32.2440851094       -1.1122318516  MEMB      301             0.0000000000
     37454       301  PMPG      C33            29.7284385767       29.8086989479       -9.8361259807  MEMB      301             0.0000000000
     37455       301  PMPG      H3X            30.4577192460       29.0803875847       -9.4213564869  MEMB      301             0.0000000000
     37456       301  PMPG      H3Y            28.7849283600       29.2224133042       -9.8166769156  MEMB      301             0.0000000000
     37457       301  PMPG      C34            29.7723085041       31.1336031747       -9.0567762935  MEMB      301             0.0000000000
     37458       301  PMPG      H4X            29.0305524055       31.8341176967       -9.4965474965  MEMB      301             0.0000000000
     37459       301  PMPG      H4Y            30.7854147578       31.5748506192       -9.1718301844  MEMB      301             0.0000000000
     37460       301  PMPG      C35            29.4387756221       31.0332161579       -7.5055711910  MEMB      301             0.0000000000
     37461       301  PMPG      H5X            28.4190903505       30.5938882907       -7.4661532707  MEMB      301             0.0000000000
     37462       301  PMPG      H5Y            29.4386240344       32.0696472295       -7.1054070377  MEMB      301             0.0000000000
     37463       301  PMPG      C36            30.2799914295       30.0337431649       -6.7402327220  MEMB      301             0.0000000000
     37464       301  PMPG      H6X            30.3371381344       29.0304090862       -7.2139158938  MEMB      301             0.0000000000
     37465       301  PMPG      H6Y            29.8047986059       29.8147179131       -5.7601615044  MEMB      301             0.0000000000
     37466       301  PMPG      C37            31.7987984072       30.3691245130       -6.4070047838  MEMB      301             0.0000000000
     37467       301  PMPG      H7X            31.8192441368       31.4320050379       -6.0842235918  MEMB      301             0.0000000000
     37468       301  PMPG      H7Y            32.4468406976       30.2689713228       -7.3038499706  MEMB      301             0.0000000000
     37469       301  PMPG      C38            32.4201769164       29.3586766487       -5.3425019569  MEMB      301             0.0000000000
     37470       301  PMPG      H8X            32.6756664599       28.4543000926       -5.9350801976  MEMB      301             0.0000000000
     37471       301  PMPG      H8Y            31.7142255236       29.0583820380       -4.5388988871  MEMB      301             0.0000000000
     37472       301  PMPG      C39            33.7522846179       29.8510052492       -4.6863356592  MEMB      301             0.0000000000
     37473       301  PMPG      H9X            33.5862018434       30.7405946169       -4.0418443899  MEMB      301             0.0000000000
     37474       301  PMPG      H9Y            34.5122935999       29.9583587255       -5.4895678870  MEMB      301             0.0000000000
     37475       301  PMPG      C310           34.3982237111       28.7743317007       -3.7528239821  MEMB      301             0.0000000000
     37476       301  PMPG      H10X           34.7020263503       27.9660307283       -4.4518771407  MEMB      301             0.0000000000
     37477       301  PMPG      H10Y           33.6997018748       28.2867871011       -3.0396006599  MEMB      301             0.0000000000
     37478       301  PMPG      C311           35.6539359363       29.3387709355       -3.1383539464  MEMB      301             0.0000000000
     37479       301  PMPG      H11X           35.8888856638       30.2886410800       -3.6645349381  MEMB      301             0.0000000000
     37480       301  PMPG      H11Y           36.5913638436       28.7790041434       -3.3438085700  MEMB      301             0.0000000000
     37481       301  PMPG      C312           35.5743938396       29.4282155483       -1.6527770983  MEMB      301             0.0000000000
     37482       301  PMPG      H12X           36.5365558117       29.8136160598       -1.2527386341  MEMB      301             0.0000000000
     37483       301  PMPG      H12Y           35.4139213324       28.4301369065       -1.1918988239  MEMB      301             0.0000000000
     37484       301  PMPG      C313           34.4073982490       30.3504054173       -1.1432334339  MEMB      301             0.0000000000
     37485       301  PMPG      H13X           33.4561712691       30.1312664118       -1.6737671897  MEMB      301             0.0000000000
     37486       301  PMPG      H13Y           34.5641653982       31.4279067367       -1.3639951657  MEMB      301             0.0000000000
     37487       301  PMPG      C314           34.2760106007       30.1504803787        0.4136208042  MEMB      301             0.0000000000
     37488       301  PMPG      H14X           35.2191284596       30.3502667211        0.9658304253  MEMB      301             0.0000000000
     37489       301  PMPG      H14Y           33.9826049055       29.1014753446        0.6323038469  MEMB      301             0.0000000000
     37490       301  PMPG      C315           33.2956611707       31.1476286627        1.0723783171  MEMB      301             0.0000000000
     37491       301  PMPG      H15X           32.4877056236       31.5485828145        0.4237146724  MEMB      301             0.0000000000
     37492       301  PMPG      H15Y           33.8884841894       32.0701797569        1.2506519472  MEMB      301             0.0000000000
     37493       301  PMPG      C316           32.7935392275       30.7002894139        2.4934162609  MEMB      301             0.0000000000
     37494       301  PMPG      H16X           32.0997208457       29.8325948403        2.4868623206  MEMB      301             0.0000000000
     37495       301  PMPG      H16Y           32.3192719029       31.5429703394        3.0404813610  MEMB      301             0.0000000000
     37496       301  PMPG      H16Z           33.6856704302       30.3114766895        3.0293714117  MEMB      301             0.0000000000
     37497       302  PMPE      N             -39.7791543571      -21.8379660078      -20.5434168300  MEMB      302             0.0000000000
     37498       302  PMPE      HN1           -39.8784411377      -22.6898408976      -21.1316780238  MEMB      302             0.0000000000
     37499       302  PMPE      HN2           -38.7904809115      -21.5430120147      -20.6742858386  MEMB      302             0.0000000000
     37500       302  PMPE      HN3           -39.9811337418      -22.1124410606      -19.5608346657  MEMB      302             0.0000000000
     37501       302  PMPE      C12           -40.5967364502      -20.5966337228      -20.9279074722  MEMB      302             0.0000000000
     37502       302  PMPE      H12A          -41.6017610002      -20.9167972369      -21.2768228951  MEMB      302             0.0000000000
     37503       302  PMPE      H12B          -40.2290033340      -20.1325220193      -21.8679573069  MEMB      302             0.0000000000
     37504       302  PMPE      C11           -40.7804036674      -19.5793618866      -19.7220242082  MEMB      302             0.0000000000
     37505       302  PMPE      H11A          -41.4009176100      -18.7004625671      -19.9991875162  MEMB      302             0.0000000000
     37506       302  PMPE      H11B          -39.8001113836      -19.1086816380      -19.4944107864  MEMB      302             0.0000000000
     37507       302  PMPE      P             -42.8500156656      -20.2447378827      -18.1917072748  MEMB      302             0.0000000000
     37508       302  PMPE      O13           -43.6604402221      -20.6661361487      -19.3450849040  MEMB      302             0.0000000000
     37509       302  PMPE      O14           -43.2006987784      -18.9444117953      -17.5439389585  MEMB      302             0.0000000000
     37510       302  PMPE      O11           -42.9115112170      -21.3652984437      -17.1512998430  MEMB      302             0.0000000000
     37511       302  PMPE      O12           -41.3007839327      -20.3357411196      -18.5746205384  MEMB      302             0.0000000000
     37512       302  PMPE      C1            -42.8033247321      -22.6897130813      -17.6183741278  MEMB      302             0.0000000000
     37513       302  PMPE      HA            -41.9083699985      -22.8089044210      -18.2658079233  MEMB      302             0.0000000000
     37514       302  PMPE      HB            -43.7362127707      -23.0392981920      -18.1101371530  MEMB      302             0.0000000000
     37515       302  PMPE      C2            -42.4744223385      -23.6361870487      -16.3102948535  MEMB      302             0.0000000000
     37516       302  PMPE      HS            -43.2517197182      -24.4232643768      -16.4134406435  MEMB      302             0.0000000000
     37517       302  PMPE      O21           -42.6788440582      -23.0424920967      -15.0691261848  MEMB      302             0.0000000000
     37518       302  PMPE      C21           -43.8799766430      -22.7766764385      -14.7437007146  MEMB      302             0.0000000000
     37519       302  PMPE      O22           -44.8986801732      -23.1990331624      -15.2667853510  MEMB      302             0.0000000000
     37520       302  PMPE      C22           -43.7011800965      -21.9136289154      -13.4440331542  MEMB      302             0.0000000000
     37521       302  PMPE      H2R           -43.0247589273      -21.0831918959      -13.7392443522  MEMB      302             0.0000000000
     37522       302  PMPE      H2S           -43.0860167908      -22.5284311250      -12.7527199980  MEMB      302             0.0000000000
     37523       302  PMPE      C3            -41.0254874018      -24.1522481863      -16.3827706620  MEMB      302             0.0000000000
     37524       302  PMPE      HX            -40.8822603394      -24.6497500668      -17.3657757003  MEMB      302             0.0000000000
     37525       302  PMPE      HY            -40.7993791041      -24.8242822130      -15.5274541731  MEMB      302             0.0000000000
     37526       302  PMPE      O31           -40.1660123697      -23.0044068903      -16.4186998977  MEMB      302             0.0000000000
     37527       302  PMPE      C31           -39.5583866835      -22.7296092791      -15.3065504905  MEMB      302             0.0000000000
     37528       302  PMPE      O32           -39.2391079312      -23.4620255143      -14.3492822401  MEMB      302             0.0000000000
     37529       302  PMPE      C32           -39.1389955772      -21.2001442103      -15.3605739893  MEMB      302             0.0000000000
     37530       302  PMPE      H2X           -39.1280508320      -20.8392981786      -16.4112839223  MEMB      302             0.0000000000
     37531       302  PMPE      H2Y           -38.0893285642      -21.1817937866      -14.9970040111  MEMB      302             0.0000000000
     37532       302  PMPE      C23           -45.0759161078      -21.4206537747      -12.9682052904  MEMB      302             0.0000000000
     37533       302  PMPE      H3R           -45.7317640807      -21.0895367431      -13.8015997507  MEMB      302             0.0000000000
     37534       302  PMPE      H3S           -44.9301183959      -20.4582976145      -12.4325427374  MEMB      302             0.0000000000
     37535       302  PMPE      C24           -45.8249869962      -22.4230344119      -12.1390247534  MEMB      302             0.0000000000
     37536       302  PMPE      H4R           -45.0105778737      -22.8889402448      -11.5440540437  MEMB      302             0.0000000000
     37537       302  PMPE      H4S           -46.1841803146      -23.2519527106      -12.7857055100  MEMB      302             0.0000000000
     37538       302  PMPE      C25           -46.8357198430      -21.7838828358      -11.1564158595  MEMB      302             0.0000000000
     37539       302  PMPE      H5R           -47.7870202877      -22.2598446804      -11.4770543862  MEMB      302             0.0000000000
     37540       302  PMPE      H5S           -46.9064676352      -20.6766016484      -11.2133725110  MEMB      302             0.0000000000
     37541       302  PMPE      C26           -46.5485977691      -22.1591390124       -9.7235991878  MEMB      302             0.0000000000
     37542       302  PMPE      H6R           -47.3024459126      -21.6746423869       -9.0668671030  MEMB      302             0.0000000000
     37543       302  PMPE      H6S           -45.6018215962      -21.6792740133       -9.3954748774  MEMB      302             0.0000000000
     37544       302  PMPE      C27           -46.4152720151      -23.6602139103       -9.3030141135  MEMB      302             0.0000000000
     37545       302  PMPE      H7R           -46.0657877588      -24.2461314855      -10.1798729917  MEMB      302             0.0000000000
     37546       302  PMPE      H7S           -47.4485709189      -24.0438366673       -9.1635592530  MEMB      302             0.0000000000
     37547       302  PMPE      C28           -45.5188154392      -23.8204476935       -8.1074116891  MEMB      302             0.0000000000
     37548       302  PMPE      H8R           -45.5812393319      -24.9057701153       -7.8782831121  MEMB      302             0.0000000000
     37549       302  PMPE      H8S           -45.9232296414      -23.1938431691       -7.2839207880  MEMB      302             0.0000000000
     37550       302  PMPE      C29           -44.0361402533      -23.3427740581       -8.3545889922  MEMB      302             0.0000000000
     37551       302  PMPE      H9R           -43.8570657962      -22.3401802334       -8.7985013744  MEMB      302             0.0000000000
     37552       302  PMPE      C217          -43.2491470310      -24.5191330735       -9.0481799820  MEMB      302             0.0000000000
     37553       302  PMPE      H17R          -42.4256818435      -24.2778159411       -9.7089072541  MEMB      302             0.0000000000
     37554       302  PMPE      H17S          -43.9190686648      -25.3245431267       -9.3227862892  MEMB      302             0.0000000000
     37555       302  PMPE      C210          -42.8957547864      -24.0397771024       -7.6098966693  MEMB      302             0.0000000000
     37556       302  PMPE      H10R          -42.1087793537      -23.2591884457       -7.5345845609  MEMB      302             0.0000000000
     37557       302  PMPE      C211          -43.1991238964      -24.8277142816       -6.3180730052  MEMB      302             0.0000000000
     37558       302  PMPE      H11R          -42.3552258709      -25.5005514473       -6.0545444533  MEMB      302             0.0000000000
     37559       302  PMPE      H11S          -44.0916369348      -25.4892209991       -6.3303465497  MEMB      302             0.0000000000
     37560       302  PMPE      C212          -43.6303574478      -23.7994878710       -5.1631556718  MEMB      302             0.0000000000
     37561       302  PMPE      H12R          -44.6507161521      -23.4461969476       -5.4246408986  MEMB      302             0.0000000000
     37562       302  PMPE      H12S          -42.9894262710      -22.8920149448       -5.1677231477  MEMB      302             0.0000000000
     37563       302  PMPE      C213          -43.7707118654      -24.4383532454       -3.7593741177  MEMB      302             0.0000000000
     37564       302  PMPE      H13R          -44.0846229036      -23.5992646524       -3.1023273828  MEMB      302             0.0000000000
     37565       302  PMPE      H13S          -42.7709420260      -24.7030667516       -3.3535320628  MEMB      302             0.0000000000
     37566       302  PMPE      C214          -44.6645904691      -25.7020627847       -3.7255126528  MEMB      302             0.0000000000
     37567       302  PMPE      H14R          -44.2968313035      -26.5283038785       -4.3708036285  MEMB      302             0.0000000000
     37568       302  PMPE      H14S          -45.6842520906      -25.4828095120       -4.1083170172  MEMB      302             0.0000000000
     37569       302  PMPE      C215          -44.7782882413      -26.3073231274       -2.2840642784  MEMB      302             0.0000000000
     37570       302  PMPE      H15R          -43.7056486465      -26.4940330103       -2.0629195461  MEMB      302             0.0000000000
     37571       302  PMPE      H15S          -45.3466515302      -27.2536662991       -2.1586854459  MEMB      302             0.0000000000
     37572       302  PMPE      C216          -45.4243164418      -25.3128036231       -1.2575459709  MEMB      302             0.0000000000
     37573       302  PMPE      H16R          -44.6636776396      -24.6775382980       -0.7553628067  MEMB      302             0.0000000000
     37574       302  PMPE      H16S          -46.2095293726      -24.6136030033       -1.6165452235  MEMB      302             0.0000000000
     37575       302  PMPE      H16T          -46.0545759866      -25.8882181216       -0.5462133067  MEMB      302             0.0000000000
     37576       302  PMPE      C33           -40.1230769323      -20.4264736991      -14.4334055061  MEMB      302             0.0000000000
     37577       302  PMPE      H3X           -39.9900982778      -20.8613291182      -13.4197300327  MEMB      302             0.0000000000
     37578       302  PMPE      H3Y           -41.1446773059      -20.7034915261      -14.7709178366  MEMB      302             0.0000000000
     37579       302  PMPE      C34           -39.9579885819      -18.9189196665      -14.4593457295  MEMB      302             0.0000000000
     37580       302  PMPE      H4X           -40.1441598129      -18.7573967821      -15.5426609210  MEMB      302             0.0000000000
     37581       302  PMPE      H4Y           -38.9716842292      -18.5666095971      -14.0886667442  MEMB      302             0.0000000000
     37582       302  PMPE      C35           -41.0195952887      -18.2277260520      -13.6257989320  MEMB      302             0.0000000000
     37583       302  PMPE      H5X           -41.9685462174      -18.8054260624      -13.6170936229  MEMB      302             0.0000000000
     37584       302  PMPE      H5Y           -41.3319751801      -17.2236489282      -13.9843639079  MEMB      302             0.0000000000
     37585       302  PMPE      C36           -40.5863904820      -18.0127334988      -12.1962372239  MEMB      302             0.0000000000
     37586       302  PMPE      H6X           -39.6370133581      -17.4376857825      -12.1480305905  MEMB      302             0.0000000000
     37587       302  PMPE      H6Y           -40.4060618167      -19.0054895717      -11.7312233326  MEMB      302             0.0000000000
     37588       302  PMPE      C37           -41.5772931186      -17.1653952763      -11.3886899108  MEMB      302             0.0000000000
     37589       302  PMPE      H7X           -41.6850012920      -16.2393380938      -11.9929565311  MEMB      302             0.0000000000
     37590       302  PMPE      H7Y           -41.1397422676      -16.9349741460      -10.3938148000  MEMB      302             0.0000000000
     37591       302  PMPE      C38           -43.0054581868      -17.8161498174      -11.1247401556  MEMB      302             0.0000000000
     37592       302  PMPE      H8X           -43.4603456959      -18.0421260657      -12.1128360980  MEMB      302             0.0000000000
     37593       302  PMPE      H8Y           -43.4959420402      -17.0349364728      -10.5055048881  MEMB      302             0.0000000000
     37594       302  PMPE      C39           -42.9390900482      -19.1569134553      -10.2976751294  MEMB      302             0.0000000000
     37595       302  PMPE      H9X           -42.2062483226      -19.7532492255      -10.8821815749  MEMB      302             0.0000000000
     37596       302  PMPE      H9Y           -43.9103911270      -19.6953603248      -10.3288222109  MEMB      302             0.0000000000
     37597       302  PMPE      C310          -42.5681087142      -19.0257366447       -8.8413569954  MEMB      302             0.0000000000
     37598       302  PMPE      H10X          -42.2445441422      -18.0079734737       -8.5351137865  MEMB      302             0.0000000000
     37599       302  PMPE      H10Y          -41.7744353211      -19.7514084065       -8.5624235030  MEMB      302             0.0000000000
     37600       302  PMPE      C311          -43.7086511512      -19.2156994148       -7.8159969284  MEMB      302             0.0000000000
     37601       302  PMPE      H11X          -44.3483999897      -20.0998867038       -8.0239763167  MEMB      302             0.0000000000
     37602       302  PMPE      H11Y          -44.3908876868      -18.3753005165       -8.0662051964  MEMB      302             0.0000000000
     37603       302  PMPE      C312          -43.2383781386      -19.2055762107       -6.3539746768  MEMB      302             0.0000000000
     37604       302  PMPE      H12X          -42.4836814852      -18.3946836244       -6.2690815050  MEMB      302             0.0000000000
     37605       302  PMPE      H12Y          -42.5935529350      -20.0960327198       -6.1939473212  MEMB      302             0.0000000000
     37606       302  PMPE      C313          -44.4484524874      -19.2415965520       -5.4329142268  MEMB      302             0.0000000000
     37607       302  PMPE      H13X          -44.9691521017      -20.1512786968       -5.8012499926  MEMB      302             0.0000000000
     37608       302  PMPE      H13Y          -45.1257175775      -18.3968317764       -5.6819246655  MEMB      302             0.0000000000
     37609       302  PMPE      C314          -44.1616528902      -19.3237337798       -3.8770045172  MEMB      302             0.0000000000
     37610       302  PMPE      H14X          -43.6190352332      -18.4107833368       -3.5508011458  MEMB      302             0.0000000000
     37611       302  PMPE      H14Y          -43.5136548729      -20.1978435022       -3.6526111983  MEMB      302             0.0000000000
     37612       302  PMPE      C315          -45.4687818574      -19.6599676765       -3.2103619261  MEMB      302             0.0000000000
     37613       302  PMPE      H15X          -45.9601235635      -20.5290637646       -3.6977796220  MEMB      302             0.0000000000
     37614       302  PMPE      H15Y          -46.2118876023      -18.8359618320       -3.2662984055  MEMB      302             0.0000000000
     37615       302  PMPE      C316          -45.5331490798      -19.9925094559       -1.7589593464  MEMB      302             0.0000000000
     37616       302  PMPE      H16X          -46.4415606038      -19.5713285381       -1.2775905220  MEMB      302             0.0000000000
     37617       302  PMPE      H16Y          -44.6546616333      -19.5597229713       -1.2342907387  MEMB      302             0.0000000000
     37618       302  PMPE      H16Z          -45.4793332653      -21.0760884817       -1.5196232794  MEMB      302             0.0000000000
     37619       303  PMPE      N              12.6459760525      -44.6912170811      -21.4801837965  MEMB      303             0.0000000000
     37620       303  PMPE      HN1            12.8802513734      -44.7503172404      -22.4917282365  MEMB      303             0.0000000000
     37621       303  PMPE      HN2            12.4155094915      -45.6738087569      -21.2291880512  MEMB      303             0.0000000000
     37622       303  PMPE      HN3            11.8826386481      -44.0351297377      -21.2185248127  MEMB      303             0.0000000000
     37623       303  PMPE      C12            13.7257569572      -44.1832443827      -20.6967203126  MEMB      303             0.0000000000
     37624       303  PMPE      H12A           14.1448754896      -43.3970088095      -21.3604178427  MEMB      303             0.0000000000
     37625       303  PMPE      H12B           14.4725979722      -44.9980125780      -20.5840161180  MEMB      303             0.0000000000
     37626       303  PMPE      C11            13.2519278041      -43.5649838027      -19.4248120844  MEMB      303             0.0000000000
     37627       303  PMPE      H11A           12.4522463869      -42.8150565889      -19.6049228002  MEMB      303             0.0000000000
     37628       303  PMPE      H11B           14.0690428868      -42.9049335837      -19.0629039886  MEMB      303             0.0000000000
     37629       303  PMPE      P              11.3022649602      -44.8369409718      -18.1857476621  MEMB      303             0.0000000000
     37630       303  PMPE      O13            10.8867611342      -45.8597136399      -19.1323068762  MEMB      303             0.0000000000
     37631       303  PMPE      O14            10.5359877618      -43.6032244949      -17.9215093713  MEMB      303             0.0000000000
     37632       303  PMPE      O11            11.2623982066      -45.5850002377      -16.7466847558  MEMB      303             0.0000000000
     37633       303  PMPE      O12            12.8143763915      -44.5158890394      -18.4120351386  MEMB      303             0.0000000000
     37634       303  PMPE      C1             10.1480351236      -46.2280801360      -16.2466657527  MEMB      303             0.0000000000
     37635       303  PMPE      HA             10.1752734933      -47.2928585257      -16.5626181778  MEMB      303             0.0000000000
     37636       303  PMPE      HB              9.1986777871      -45.7579013760      -16.5812902476  MEMB      303             0.0000000000
     37637       303  PMPE      C2             10.1885937788      -46.1999179517      -14.7128733762  MEMB      303             0.0000000000
     37638       303  PMPE      HS              9.1839510122      -46.4759540503      -14.3271036048  MEMB      303             0.0000000000
     37639       303  PMPE      O21            10.5985856018      -44.9559871617      -14.1328355236  MEMB      303             0.0000000000
     37640       303  PMPE      C21             9.6650868090      -44.1246090751      -13.7725559782  MEMB      303             0.0000000000
     37641       303  PMPE      O22             8.4613762422      -44.2624070225      -13.9395307612  MEMB      303             0.0000000000
     37642       303  PMPE      C22            10.2387275458      -42.8572025688      -13.1355856188  MEMB      303             0.0000000000
     37643       303  PMPE      H2R            10.1739845699      -42.0143931146      -13.8565583493  MEMB      303             0.0000000000
     37644       303  PMPE      H2S            11.3154318596      -42.9233177841      -12.8697705908  MEMB      303             0.0000000000
     37645       303  PMPE      C3             11.1364289513      -47.2392228371      -14.2550751301  MEMB      303             0.0000000000
     37646       303  PMPE      HX             12.0505539286      -47.0439585626      -14.8555484678  MEMB      303             0.0000000000
     37647       303  PMPE      HY             10.8098046987      -48.2882231073      -14.4201082762  MEMB      303             0.0000000000
     37648       303  PMPE      O31            11.3417449239      -47.1100170489      -12.8448115038  MEMB      303             0.0000000000
     37649       303  PMPE      C31            12.4140681764      -46.4269305323      -12.3831603621  MEMB      303             0.0000000000
     37650       303  PMPE      O32            13.4578284800      -46.2858427611      -12.9432516236  MEMB      303             0.0000000000
     37651       303  PMPE      C32            12.0966516186      -45.7524203767      -11.0566055483  MEMB      303             0.0000000000
     37652       303  PMPE      H2X            12.0034483597      -46.5933901738      -10.3366024145  MEMB      303             0.0000000000
     37653       303  PMPE      H2Y            11.1296496695      -45.2061704969      -11.0276350844  MEMB      303             0.0000000000
     37654       303  PMPE      C23             9.5033644620      -42.5178575663      -11.8428112301  MEMB      303             0.0000000000
     37655       303  PMPE      H3R             9.7858852154      -43.0988988804      -10.9389896514  MEMB      303             0.0000000000
     37656       303  PMPE      H3S             8.4256037877      -42.5788931775      -12.1055426155  MEMB      303             0.0000000000
     37657       303  PMPE      C24             9.8931680437      -41.1019820843      -11.3812554232  MEMB      303             0.0000000000
     37658       303  PMPE      H4R             9.0294670954      -40.6161179503      -10.8789834328  MEMB      303             0.0000000000
     37659       303  PMPE      H4S            10.0194805179      -40.4132424305      -12.2438119423  MEMB      303             0.0000000000
     37660       303  PMPE      C25            11.1319885208      -41.0567303733      -10.4375820976  MEMB      303             0.0000000000
     37661       303  PMPE      H5R            11.3943033392      -39.9772393050      -10.4521058635  MEMB      303             0.0000000000
     37662       303  PMPE      H5S            12.0122844857      -41.6848945692      -10.6921598231  MEMB      303             0.0000000000
     37663       303  PMPE      C26            10.7087382081      -41.2525391931       -8.9705634129  MEMB      303             0.0000000000
     37664       303  PMPE      H6R            10.7100397472      -42.3538711352       -8.8243189464  MEMB      303             0.0000000000
     37665       303  PMPE      H6S             9.6945012991      -40.8689673952       -8.7286599477  MEMB      303             0.0000000000
     37666       303  PMPE      C27            11.6095273371      -40.6070799221       -7.8961218531  MEMB      303             0.0000000000
     37667       303  PMPE      H7R            11.5532537406      -39.5156282581       -8.0958402372  MEMB      303             0.0000000000
     37668       303  PMPE      H7S            12.7079404996      -40.7301673209       -8.0086329328  MEMB      303             0.0000000000
     37669       303  PMPE      C28            11.2749289455      -40.9477291464       -6.4758632139  MEMB      303             0.0000000000
     37670       303  PMPE      H8R            12.1606341376      -41.0647203672       -5.8154385122  MEMB      303             0.0000000000
     37671       303  PMPE      H8S            10.8613023461      -41.9766087689       -6.4077405382  MEMB      303             0.0000000000
     37672       303  PMPE      C29            10.3713324770      -39.8944474514       -5.8409262269  MEMB      303             0.0000000000
     37673       303  PMPE      H9R             9.6393219531      -39.3675570395       -6.4896692642  MEMB      303             0.0000000000
     37674       303  PMPE      C217           10.9884696257      -39.0002682941       -4.8204931558  MEMB      303             0.0000000000
     37675       303  PMPE      H17R           10.6655918823      -37.9700450544       -4.9058135243  MEMB      303             0.0000000000
     37676       303  PMPE      H17S           11.9252874479      -39.2783749594       -4.3536763405  MEMB      303             0.0000000000
     37677       303  PMPE      C210            9.9209315320      -39.9486944145       -4.4178392884  MEMB      303             0.0000000000
     37678       303  PMPE      H10R            8.9545113932      -39.4272198264       -4.2492666859  MEMB      303             0.0000000000
     37679       303  PMPE      C211           10.2727849060      -41.0387307135       -3.4171127731  MEMB      303             0.0000000000
     37680       303  PMPE      H11R           10.1089209918      -40.6078988632       -2.4062462481  MEMB      303             0.0000000000
     37681       303  PMPE      H11S           11.3434038791      -41.2645334507       -3.6097500830  MEMB      303             0.0000000000
     37682       303  PMPE      C212            9.4904223574      -42.2932694840       -3.6071731155  MEMB      303             0.0000000000
     37683       303  PMPE      H12R            9.6716888276      -42.7588663942       -4.5994852742  MEMB      303             0.0000000000
     37684       303  PMPE      H12S            8.4396252923      -41.9986818332       -3.3989325125  MEMB      303             0.0000000000
     37685       303  PMPE      C213            9.8416022923      -43.4319727924       -2.6905327815  MEMB      303             0.0000000000
     37686       303  PMPE      H13R            9.8515951714      -43.0943060264       -1.6321364868  MEMB      303             0.0000000000
     37687       303  PMPE      H13S           10.8529300958      -43.8136650442       -2.9471420622  MEMB      303             0.0000000000
     37688       303  PMPE      C214            8.8321931934      -44.6585651327       -2.8004581851  MEMB      303             0.0000000000
     37689       303  PMPE      H14R            8.7810069513      -44.8742917949       -3.8891100952  MEMB      303             0.0000000000
     37690       303  PMPE      H14S            7.8412888218      -44.3401337621       -2.4118307027  MEMB      303             0.0000000000
     37691       303  PMPE      C215            9.1681049555      -45.8894306777       -2.0079868238  MEMB      303             0.0000000000
     37692       303  PMPE      H15R           10.0454820081      -46.4157400221       -2.4410322814  MEMB      303             0.0000000000
     37693       303  PMPE      H15S            8.3504980656      -46.5728497703       -2.3222766201  MEMB      303             0.0000000000
     37694       303  PMPE      C216            9.1451005208      -45.6961426363       -0.4802243996  MEMB      303             0.0000000000
     37695       303  PMPE      H16R            8.1085744325      -45.3863455651       -0.2273204288  MEMB      303             0.0000000000
     37696       303  PMPE      H16S            9.2919887081      -46.6603903663        0.0517254279  MEMB      303             0.0000000000
     37697       303  PMPE      H16T            9.8935990348      -44.9410306235       -0.1579234564  MEMB      303             0.0000000000
     37698       303  PMPE      C33            13.2068934808      -44.7565761349      -10.6318739416  MEMB      303             0.0000000000
     37699       303  PMPE      H3X            13.0163962669      -43.8140804763      -11.1884116884  MEMB      303             0.0000000000
     37700       303  PMPE      H3Y            14.2438922454      -45.0728673270      -10.8745971273  MEMB      303             0.0000000000
     37701       303  PMPE      C34            13.0086919869      -44.3568979130       -9.1562841600  MEMB      303             0.0000000000
     37702       303  PMPE      H4X            11.9664772842      -43.9969979480       -9.0199700541  MEMB      303             0.0000000000
     37703       303  PMPE      H4Y            13.4979247801      -43.3769886431       -8.9698691630  MEMB      303             0.0000000000
     37704       303  PMPE      C35            13.3850856446      -45.3774948672       -8.1453128954  MEMB      303             0.0000000000
     37705       303  PMPE      H5X            14.4950132327      -45.3421824875       -8.1790019540  MEMB      303             0.0000000000
     37706       303  PMPE      H5Y            13.0172972057      -46.3149797040       -8.6145405066  MEMB      303             0.0000000000
     37707       303  PMPE      C36            12.8288492715      -45.1522840955       -6.7304195034  MEMB      303             0.0000000000
     37708       303  PMPE      H6X            11.7307267970      -45.3133625418       -6.6804014023  MEMB      303             0.0000000000
     37709       303  PMPE      H6Y            12.9656940105      -44.0667896565       -6.5372964476  MEMB      303             0.0000000000
     37710       303  PMPE      C37            13.4899449532      -46.0896122787       -5.7242445692  MEMB      303             0.0000000000
     37711       303  PMPE      H7X            14.5994564067      -46.0689131726       -5.7778792792  MEMB      303             0.0000000000
     37712       303  PMPE      H7Y            13.3130411786      -47.1626958938       -5.9512198801  MEMB      303             0.0000000000
     37713       303  PMPE      C38            12.9698235159      -45.7113235783       -4.2720450675  MEMB      303             0.0000000000
     37714       303  PMPE      H8X            11.8642095398      -45.7110842565       -4.3813093656  MEMB      303             0.0000000000
     37715       303  PMPE      H8Y            13.2428530652      -44.6906835898       -3.9284314204  MEMB      303             0.0000000000
     37716       303  PMPE      C39            13.4711202482      -46.7012393523       -3.1373370847  MEMB      303             0.0000000000
     37717       303  PMPE      H9X            13.3315216480      -47.7456468103       -3.4895395660  MEMB      303             0.0000000000
     37718       303  PMPE      H9Y            12.8304366575      -46.5581509182       -2.2410267429  MEMB      303             0.0000000000
     37719       303  PMPE      C310           14.9237604555      -46.5737840865       -2.5457301838  MEMB      303             0.0000000000
     37720       303  PMPE      H10X           15.7760465158      -46.6445413821       -3.2549014241  MEMB      303             0.0000000000
     37721       303  PMPE      H10Y           15.0771132822      -47.3295982169       -1.7460126091  MEMB      303             0.0000000000
     37722       303  PMPE      C311           15.1010694819      -45.1612298426       -1.9900725795  MEMB      303             0.0000000000
     37723       303  PMPE      H11X           14.9761300161      -44.4790966313       -2.8580615724  MEMB      303             0.0000000000
     37724       303  PMPE      H11Y           15.9787515647      -45.0169879242       -1.3243477996  MEMB      303             0.0000000000
     37725       303  PMPE      C312           14.0057208802      -44.7719178075       -0.9332596659  MEMB      303             0.0000000000
     37726       303  PMPE      H12X           14.1529220707      -45.5971938151       -0.2041691855  MEMB      303             0.0000000000
     37727       303  PMPE      H12Y           12.9387874915      -44.7015793380       -1.2349655853  MEMB      303             0.0000000000
     37728       303  PMPE      C313           14.2596707764      -43.4915505602       -0.1869957470  MEMB      303             0.0000000000
     37729       303  PMPE      H13X           15.1789865309      -43.6659428630        0.4119762273  MEMB      303             0.0000000000
     37730       303  PMPE      H13Y           13.4688410596      -43.2365042440        0.5504737993  MEMB      303             0.0000000000
     37731       303  PMPE      C314           14.4176872567      -42.1487050408       -1.0372852686  MEMB      303             0.0000000000
     37732       303  PMPE      H14X           14.9914066234      -42.3761574977       -1.9610996863  MEMB      303             0.0000000000
     37733       303  PMPE      H14Y           15.0303509460      -41.5162179404       -0.3598453741  MEMB      303             0.0000000000
     37734       303  PMPE      C315           13.1430101572      -41.2755983268       -1.2687326329  MEMB      303             0.0000000000
     37735       303  PMPE      H15X           12.8620893977      -40.6792096736       -0.3744593553  MEMB      303             0.0000000000
     37736       303  PMPE      H15Y           12.3788195254      -41.9464741280       -1.7162356217  MEMB      303             0.0000000000
     37737       303  PMPE      C316           13.4784793403      -40.2561333114       -2.3624049648  MEMB      303             0.0000000000
     37738       303  PMPE      H16X           12.6616356873      -39.5035835830       -2.3349016741  MEMB      303             0.0000000000
     37739       303  PMPE      H16Y           13.6099509167      -40.6009710094       -3.4103197272  MEMB      303             0.0000000000
     37740       303  PMPE      H16Z           14.4774674666      -39.8263603714       -2.1351626542  MEMB      303             0.0000000000
     37741       304  POPE      N              -7.0624471301       45.7446242862      -21.8172983687  MEMB      304             0.0000000000
     37742       304  POPE      HN1            -7.1602155571       44.7365019399      -21.5812252409  MEMB      304             0.0000000000
     37743       304  POPE      HN2            -7.9279687201       46.1774949250      -22.1982127261  MEMB      304             0.0000000000
     37744       304  POPE      HN3            -6.3590294250       46.0311468014      -22.5277266784  MEMB      304             0.0000000000
     37745       304  POPE      C12            -6.6335470616       46.3306466791      -20.4893797888  MEMB      304             0.0000000000
     37746       304  POPE      H12A           -6.7047512855       47.4369865188      -20.5619282801  MEMB      304             0.0000000000
     37747       304  POPE      H12B           -5.5827770407       46.0684465708      -20.2414796135  MEMB      304             0.0000000000
     37748       304  POPE      C11            -7.4822247923       45.7303644312      -19.4030257585  MEMB      304             0.0000000000
     37749       304  POPE      H11A           -8.5728394770       45.7294080362      -19.6148741501  MEMB      304             0.0000000000
     37750       304  POPE      H11B           -7.5118290081       46.2461617556      -18.4194619500  MEMB      304             0.0000000000
     37751       304  POPE      P              -6.0907416569       44.0165200235      -18.0198050089  MEMB      304             0.0000000000
     37752       304  POPE      O13            -4.9547850474       43.2156711468      -18.5176493703  MEMB      304             0.0000000000
     37753       304  POPE      O14            -6.7966439226       43.3397283505      -16.8888493741  MEMB      304             0.0000000000
     37754       304  POPE      O11            -5.5490595964       45.4608231833      -17.6099213894  MEMB      304             0.0000000000
     37755       304  POPE      O12            -7.1153987751       44.3772701427      -19.2540709397  MEMB      304             0.0000000000
     37756       304  POPE      C1             -5.0593910940       45.5988924288      -16.2949051384  MEMB      304             0.0000000000
     37757       304  POPE      HA             -3.9724863321       45.6826249164      -16.5092593931  MEMB      304             0.0000000000
     37758       304  POPE      HB             -5.0579896378       44.7124300348      -15.6252011406  MEMB      304             0.0000000000
     37759       304  POPE      C2             -5.6820855369       46.8322601865      -15.5200558247  MEMB      304             0.0000000000
     37760       304  POPE      HS             -5.3336059306       46.8335883272      -14.4651242463  MEMB      304             0.0000000000
     37761       304  POPE      O21            -7.1027019523       46.7656622263      -15.4804863724  MEMB      304             0.0000000000
     37762       304  POPE      C21            -7.7136445842       45.8585551744      -14.7102767861  MEMB      304             0.0000000000
     37763       304  POPE      O22            -7.1136143257       45.0695283543      -13.9700227676  MEMB      304             0.0000000000
     37764       304  POPE      C22            -9.2696035792       45.9441912331      -14.7161413042  MEMB      304             0.0000000000
     37765       304  POPE      H2R            -9.7677983609       45.1371860345      -15.2948170285  MEMB      304             0.0000000000
     37766       304  POPE      H2S            -9.6222507800       46.7535773068      -15.3905709588  MEMB      304             0.0000000000
     37767       304  POPE      C3             -5.2163622995       48.1545686453      -16.2433377031  MEMB      304             0.0000000000
     37768       304  POPE      HX             -5.4284355444       48.1026919439      -17.3326746450  MEMB      304             0.0000000000
     37769       304  POPE      HY             -4.1078057105       48.1946092868      -16.3051450475  MEMB      304             0.0000000000
     37770       304  POPE      O31            -5.8557409223       49.3502077121      -15.7021354802  MEMB      304             0.0000000000
     37771       304  POPE      C31            -5.2795447477       49.6426696478      -14.5396086320  MEMB      304             0.0000000000
     37772       304  POPE      O32            -4.2642226372       49.1625343224      -14.0370625030  MEMB      304             0.0000000000
     37773       304  POPE      C32            -6.1297202379       50.4977135763      -13.6311793570  MEMB      304             0.0000000000
     37774       304  POPE      H2X            -7.1998360869       50.5887819635      -13.9155735514  MEMB      304             0.0000000000
     37775       304  POPE      H2Y            -5.6837814688       51.5152714834      -13.6371483452  MEMB      304             0.0000000000
     37776       304  POPE      C23            -9.8677059565       46.0396552958      -13.2451017091  MEMB      304             0.0000000000
     37777       304  POPE      H3R           -10.8127667868       46.6230293447      -13.2158442457  MEMB      304             0.0000000000
     37778       304  POPE      H3S            -9.0660607945       46.6911058211      -12.8360803711  MEMB      304             0.0000000000
     37779       304  POPE      C24            -9.9979776015       44.5816981543      -12.5958966915  MEMB      304             0.0000000000
     37780       304  POPE      H4R            -9.2565447526       43.8533574587      -12.9884750122  MEMB      304             0.0000000000
     37781       304  POPE      H4S           -11.0422135148       44.2905517824      -12.8390544961  MEMB      304             0.0000000000
     37782       304  POPE      C25            -9.8823822400       44.7339751957      -11.0713597932  MEMB      304             0.0000000000
     37783       304  POPE      H5R           -10.6844422713       45.4638989987      -10.8300481347  MEMB      304             0.0000000000
     37784       304  POPE      H5S            -8.8847014340       45.0860951784      -10.7322944531  MEMB      304             0.0000000000
     37785       304  POPE      C26           -10.2895187725       43.4858901347      -10.3533339084  MEMB      304             0.0000000000
     37786       304  POPE      H6R            -9.5148709046       43.3527598966       -9.5681479364  MEMB      304             0.0000000000
     37787       304  POPE      H6S           -10.4341520298       42.5500362537      -10.9343503070  MEMB      304             0.0000000000
     37788       304  POPE      C27           -11.6361000351       43.6228151892       -9.6057718442  MEMB      304             0.0000000000
     37789       304  POPE      H7R           -12.0835567488       42.6400381375       -9.3445193024  MEMB      304             0.0000000000
     37790       304  POPE      H7S           -12.3276276019       44.2076037410      -10.2493044575  MEMB      304             0.0000000000
     37791       304  POPE      C28           -11.3515266563       44.4471708242       -8.2833129027  MEMB      304             0.0000000000
     37792       304  POPE      H8R           -12.3183373333       44.7683550220       -7.8400986602  MEMB      304             0.0000000000
     37793       304  POPE      H8S           -10.9078563704       45.4226136161       -8.5765517348  MEMB      304             0.0000000000
     37794       304  POPE      C29           -10.6131195458       43.7270358781       -7.2242237788  MEMB      304             0.0000000000
     37795       304  POPE      H91           -11.0240510453       42.8076584506       -6.7816400902  MEMB      304             0.0000000000
     37796       304  POPE      C210           -9.3949763041       44.1275333315       -6.7755984795  MEMB      304             0.0000000000
     37797       304  POPE      H101           -8.9645735883       43.6308892465       -5.8935002290  MEMB      304             0.0000000000
     37798       304  POPE      C211           -8.5643771178       45.3444511962       -7.1510032907  MEMB      304             0.0000000000
     37799       304  POPE      H11R           -9.0316310445       46.3056376000       -6.8474979405  MEMB      304             0.0000000000
     37800       304  POPE      H11S           -8.4463869838       45.4606786338       -8.2495892574  MEMB      304             0.0000000000
     37801       304  POPE      C212           -7.1778472185       45.3917387395       -6.4739209766  MEMB      304             0.0000000000
     37802       304  POPE      H12R           -6.6637250367       46.2430576601       -6.9691538982  MEMB      304             0.0000000000
     37803       304  POPE      H12S           -6.5753809877       44.4599519581       -6.5298582525  MEMB      304             0.0000000000
     37804       304  POPE      C213           -7.4486172452       45.7377699724       -4.9647091745  MEMB      304             0.0000000000
     37805       304  POPE      H13R           -8.4109403564       45.3605972405       -4.5572831982  MEMB      304             0.0000000000
     37806       304  POPE      H13S           -7.5777031369       46.8370892037       -5.0603903561  MEMB      304             0.0000000000
     37807       304  POPE      C214           -6.3158909085       45.2739814132       -4.0256374529  MEMB      304             0.0000000000
     37808       304  POPE      H14R           -5.4984023019       45.9517843034       -4.3521595964  MEMB      304             0.0000000000
     37809       304  POPE      H14S           -5.9778732068       44.2164599554       -4.0670325409  MEMB      304             0.0000000000
     37810       304  POPE      C215           -6.4627204115       45.6409787073       -2.5225253177  MEMB      304             0.0000000000
     37811       304  POPE      H15R           -7.4906878341       45.3954459920       -2.1800084111  MEMB      304             0.0000000000
     37812       304  POPE      H15S           -6.0212932007       46.6317291648       -2.2819496280  MEMB      304             0.0000000000
     37813       304  POPE      C216           -5.5930813554       44.6219086488       -1.7323684718  MEMB      304             0.0000000000
     37814       304  POPE      H16R           -4.5579659038       44.9409377668       -1.9795062629  MEMB      304             0.0000000000
     37815       304  POPE      H16S           -5.8826149811       43.6247866988       -2.1276380386  MEMB      304             0.0000000000
     37816       304  POPE      C217           -5.6877002667       44.7668243292       -0.2068560102  MEMB      304             0.0000000000
     37817       304  POPE      H17R           -6.7485910805       44.5167326069        0.0082855816  MEMB      304             0.0000000000
     37818       304  POPE      H17S           -5.3928490784       45.7773722762        0.1483573986  MEMB      304             0.0000000000
     37819       304  POPE      C218           -4.7430976976       43.6988311214        0.4042478060  MEMB      304             0.0000000000
     37820       304  POPE      H18R           -3.6693303520       43.7832406781        0.1318149556  MEMB      304             0.0000000000
     37821       304  POPE      H18S           -4.9889707069       42.6748559052        0.0502125270  MEMB      304             0.0000000000
     37822       304  POPE      H18T           -4.8360985904       43.7416736341        1.5105196089  MEMB      304             0.0000000000
     37823       304  POPE      C33            -6.1542467894       50.0008544071      -12.1771174539  MEMB      304             0.0000000000
     37824       304  POPE      H3X            -6.5159440787       50.8446450155      -11.5514076136  MEMB      304             0.0000000000
     37825       304  POPE      H3Y            -5.1511212895       49.7006866045      -11.8056880462  MEMB      304             0.0000000000
     37826       304  POPE      C34            -7.0833753676       48.7419416467      -11.9429066847  MEMB      304             0.0000000000
     37827       304  POPE      H4X            -6.4458878797       47.9435110142      -12.3792997870  MEMB      304             0.0000000000
     37828       304  POPE      H4Y            -7.9340716209       48.9035362333      -12.6389845288  MEMB      304             0.0000000000
     37829       304  POPE      C35            -7.2859378748       48.4696543705      -10.4448171127  MEMB      304             0.0000000000
     37830       304  POPE      H5X            -6.2896909939       48.7541150429      -10.0436996200  MEMB      304             0.0000000000
     37831       304  POPE      H5Y            -7.5215102727       47.3840053614      -10.4309310216  MEMB      304             0.0000000000
     37832       304  POPE      C36            -8.4173731741       49.3247238355       -9.8085091700  MEMB      304             0.0000000000
     37833       304  POPE      H6X            -9.2142100913       48.8403659239      -10.4124703198  MEMB      304             0.0000000000
     37834       304  POPE      H6Y            -8.2941404450       50.3815661916      -10.1282264694  MEMB      304             0.0000000000
     37835       304  POPE      C37            -8.6134119471       49.3001248078       -8.2985382282  MEMB      304             0.0000000000
     37836       304  POPE      H7X            -7.7110221154       49.7898808398       -7.8740945857  MEMB      304             0.0000000000
     37837       304  POPE      H7Y            -8.8020485501       48.3162276037       -7.8182424286  MEMB      304             0.0000000000
     37838       304  POPE      C38            -9.7632445480       50.2579461139       -7.7905179199  MEMB      304             0.0000000000
     37839       304  POPE      H8X           -10.5863126421       49.9281141713       -8.4599136923  MEMB      304             0.0000000000
     37840       304  POPE      H8Y            -9.4889418059       51.3175645824       -7.9810117800  MEMB      304             0.0000000000
     37841       304  POPE      C39           -10.2823834258       50.1827183892       -6.3262300506  MEMB      304             0.0000000000
     37842       304  POPE      H9X           -10.6481123543       49.1404262355       -6.2071040113  MEMB      304             0.0000000000
     37843       304  POPE      H9Y           -11.1060924953       50.9270838945       -6.2844694763  MEMB      304             0.0000000000
     37844       304  POPE      C310           -9.1479662908       50.3108112072       -5.2658158293  MEMB      304             0.0000000000
     37845       304  POPE      H10X           -8.6999855498       51.3274439424       -5.2562343784  MEMB      304             0.0000000000
     37846       304  POPE      H10Y           -8.3690172464       49.5287913192       -5.3923253488  MEMB      304             0.0000000000
     37847       304  POPE      C311           -9.7595948344       49.7771631266       -3.8993996468  MEMB      304             0.0000000000
     37848       304  POPE      H11X           -8.9358150750       49.9272726447       -3.1692114045  MEMB      304             0.0000000000
     37849       304  POPE      H11Y           -9.9653145143       48.6864092114       -3.9469015396  MEMB      304             0.0000000000
     37850       304  POPE      C312          -11.1340336880       50.3704904410       -3.5373510975  MEMB      304             0.0000000000
     37851       304  POPE      H12X          -11.8750311512       50.0216209284       -4.2880409693  MEMB      304             0.0000000000
     37852       304  POPE      H12Y          -11.0469355693       51.4735873033       -3.6369102554  MEMB      304             0.0000000000
     37853       304  POPE      C313          -11.6579468069       49.9066067640       -2.1944061930  MEMB      304             0.0000000000
     37854       304  POPE      H13X          -11.8001463371       48.8182494297       -2.3663886213  MEMB      304             0.0000000000
     37855       304  POPE      H13Y          -12.6734599917       50.3163565873       -2.0068984072  MEMB      304             0.0000000000
     37856       304  POPE      C314          -10.7874345507       50.2704022822       -1.0358306794  MEMB      304             0.0000000000
     37857       304  POPE      H14X           -9.7316583300       50.0069473850       -1.2599919722  MEMB      304             0.0000000000
     37858       304  POPE      H14Y          -11.1496772385       49.6682547839       -0.1752948800  MEMB      304             0.0000000000
     37859       304  POPE      C315          -10.8953478915       51.7549739683       -0.6234992192  MEMB      304             0.0000000000
     37860       304  POPE      H15X          -11.9492321451       52.1032126339       -0.6722751238  MEMB      304             0.0000000000
     37861       304  POPE      H15Y          -10.2554107594       52.3071458613       -1.3445459785  MEMB      304             0.0000000000
     37862       304  POPE      C316          -10.3505500643       52.1268152443        0.7831218233  MEMB      304             0.0000000000
     37863       304  POPE      H16X          -11.0319165449       51.5270519968        1.4237039608  MEMB      304             0.0000000000
     37864       304  POPE      H16Y          -10.2908885720       53.2321774154        0.8776564234  MEMB      304             0.0000000000
     37865       304  POPE      H16Z           -9.3073986701       51.7456885995        0.8131014571  MEMB      304             0.0000000000
     37866       305  PMPE      N             -31.1357024401      -34.3217587765      -22.0744080601  MEMB      305             0.0000000000
     37867       305  PMPE      HN1           -32.0391556650      -34.6767194170      -21.7010782409  MEMB      305             0.0000000000
     37868       305  PMPE      HN2           -31.1577136602      -33.9619545573      -23.0499370404  MEMB      305             0.0000000000
     37869       305  PMPE      HN3           -30.4471360675      -35.0997290801      -22.0270940089  MEMB      305             0.0000000000
     37870       305  PMPE      C12           -30.7545656049      -33.1882595079      -21.2077173870  MEMB      305             0.0000000000
     37871       305  PMPE      H12A          -31.6001164540      -32.4708397827      -21.1393524304  MEMB      305             0.0000000000
     37872       305  PMPE      H12B          -29.9240548425      -32.7393002846      -21.7933867094  MEMB      305             0.0000000000
     37873       305  PMPE      C11           -30.1024098559      -33.4454964036      -19.8506549593  MEMB      305             0.0000000000
     37874       305  PMPE      H11A          -29.6932674029      -32.4647274608      -19.5265934914  MEMB      305             0.0000000000
     37875       305  PMPE      H11B          -29.2364119413      -34.0869236034      -20.1207285539  MEMB      305             0.0000000000
     37876       305  PMPE      P             -31.6787135179      -33.4568545784      -17.7485217741  MEMB      305             0.0000000000
     37877       305  PMPE      O13           -32.5595115324      -34.3992937406      -16.9932723873  MEMB      305             0.0000000000
     37878       305  PMPE      O14           -32.3724754863      -32.2865020055      -18.3179879741  MEMB      305             0.0000000000
     37879       305  PMPE      O11           -30.4525884876      -32.8828896059      -16.8623727772  MEMB      305             0.0000000000
     37880       305  PMPE      O12           -30.9449914779      -34.1947957800      -18.9450646745  MEMB      305             0.0000000000
     37881       305  PMPE      C1            -29.4938810522      -33.6393964073      -16.1296586788  MEMB      305             0.0000000000
     37882       305  PMPE      HA            -28.4675942958      -33.3758857744      -16.4637527335  MEMB      305             0.0000000000
     37883       305  PMPE      HB            -29.6345828500      -34.6778446130      -16.4986430399  MEMB      305             0.0000000000
     37884       305  PMPE      C2            -29.6525291111      -33.4419319835      -14.5450655040  MEMB      305             0.0000000000
     37885       305  PMPE      HS            -29.0471378438      -34.2304843571      -14.0490744137  MEMB      305             0.0000000000
     37886       305  PMPE      O21           -30.9907372175      -33.5869129913      -14.2011508568  MEMB      305             0.0000000000
     37887       305  PMPE      C21           -31.4167202299      -34.8739545422      -14.0364990815  MEMB      305             0.0000000000
     37888       305  PMPE      O22           -30.6606330155      -35.8401759296      -13.9837691934  MEMB      305             0.0000000000
     37889       305  PMPE      C22           -32.9375802703      -34.9048750721      -13.8633298837  MEMB      305             0.0000000000
     37890       305  PMPE      H2R           -33.3287121618      -35.4077886956      -14.7735025994  MEMB      305             0.0000000000
     37891       305  PMPE      H2S           -33.4801305427      -33.9418585367      -13.7512611958  MEMB      305             0.0000000000
     37892       305  PMPE      C3            -29.0943294664      -32.1422081588      -14.0122391765  MEMB      305             0.0000000000
     37893       305  PMPE      HX            -29.4216134323      -31.2762877543      -14.6265583740  MEMB      305             0.0000000000
     37894       305  PMPE      HY            -27.9958840761      -32.0935258820      -14.1715144593  MEMB      305             0.0000000000
     37895       305  PMPE      O31           -29.3904281395      -31.9269345512      -12.6339558098  MEMB      305             0.0000000000
     37896       305  PMPE      C31           -28.8191901948      -32.6073409704      -11.6272008818  MEMB      305             0.0000000000
     37897       305  PMPE      O32           -28.0651060626      -33.5776420012      -11.7819484609  MEMB      305             0.0000000000
     37898       305  PMPE      C32           -29.2388360573      -32.0615222276      -10.3264996731  MEMB      305             0.0000000000
     37899       305  PMPE      H2X           -30.3482563129      -32.1153389425      -10.3017737937  MEMB      305             0.0000000000
     37900       305  PMPE      H2Y           -28.8821454475      -31.0094890444      -10.3443596106  MEMB      305             0.0000000000
     37901       305  PMPE      C23           -33.2712415488      -35.5953726934      -12.5206543738  MEMB      305             0.0000000000
     37902       305  PMPE      H3R           -32.5508220584      -36.4337355232      -12.4090102185  MEMB      305             0.0000000000
     37903       305  PMPE      H3S           -34.3049270696      -35.9986331036      -12.5771884348  MEMB      305             0.0000000000
     37904       305  PMPE      C24           -33.0181696421      -34.7137020601      -11.2912423039  MEMB      305             0.0000000000
     37905       305  PMPE      H4R           -33.4344552911      -33.7051021340      -11.5004156781  MEMB      305             0.0000000000
     37906       305  PMPE      H4S           -31.9285325073      -34.5472787669      -11.1522633641  MEMB      305             0.0000000000
     37907       305  PMPE      C25           -33.4514608805      -35.2744456784       -9.8543508812  MEMB      305             0.0000000000
     37908       305  PMPE      H5R           -32.5910953318      -35.8362867847       -9.4319452351  MEMB      305             0.0000000000
     37909       305  PMPE      H5S           -34.1974630974      -36.0590850324      -10.1036358825  MEMB      305             0.0000000000
     37910       305  PMPE      C26           -33.7469645249      -34.1854350443       -8.8335039289  MEMB      305             0.0000000000
     37911       305  PMPE      H6R           -34.7607779507      -33.7485123518       -8.9584124916  MEMB      305             0.0000000000
     37912       305  PMPE      H6S           -33.0230850769      -33.3492625682       -8.9390256990  MEMB      305             0.0000000000
     37913       305  PMPE      C27           -33.7026301463      -34.6027826092       -7.3079321453  MEMB      305             0.0000000000
     37914       305  PMPE      H7R           -32.7656100093      -35.1408804885       -7.0495428286  MEMB      305             0.0000000000
     37915       305  PMPE      H7S           -34.5730468933      -35.2216709862       -7.0018716325  MEMB      305             0.0000000000
     37916       305  PMPE      C28           -33.5264429280      -33.4172492436       -6.3503904619  MEMB      305             0.0000000000
     37917       305  PMPE      H8R           -32.7492417218      -32.6529208372       -6.5650565708  MEMB      305             0.0000000000
     37918       305  PMPE      H8S           -33.3391881280      -33.8212190528       -5.3325178132  MEMB      305             0.0000000000
     37919       305  PMPE      C29           -34.8501430754      -32.5682494813       -6.2894173536  MEMB      305             0.0000000000
     37920       305  PMPE      H9R           -35.8168155553      -33.1141621911       -6.2464601058  MEMB      305             0.0000000000
     37921       305  PMPE      C217          -34.9827895067      -31.5473654711       -7.4164893782  MEMB      305             0.0000000000
     37922       305  PMPE      H17R          -35.9636142749      -31.5201844675       -7.8748915909  MEMB      305             0.0000000000
     37923       305  PMPE      H17S          -34.0837362147      -31.3535228583       -7.9883437864  MEMB      305             0.0000000000
     37924       305  PMPE      C210          -34.9126042061      -31.0931096762       -5.9813067859  MEMB      305             0.0000000000
     37925       305  PMPE      H10R          -35.8985662218      -30.6517759460       -5.7216450510  MEMB      305             0.0000000000
     37926       305  PMPE      C211          -33.6287480441      -30.4785104359       -5.3506561372  MEMB      305             0.0000000000
     37927       305  PMPE      H11R          -33.6759345399      -29.3838183459       -5.5343490487  MEMB      305             0.0000000000
     37928       305  PMPE      H11S          -32.7313746444      -30.7165006362       -5.9609037992  MEMB      305             0.0000000000
     37929       305  PMPE      C212          -33.4630756080      -30.8922101619       -3.9269315547  MEMB      305             0.0000000000
     37930       305  PMPE      H12R          -33.1143688915      -31.9443684986       -3.8515191340  MEMB      305             0.0000000000
     37931       305  PMPE      H12S          -34.4483151668      -30.7999724568       -3.4218412018  MEMB      305             0.0000000000
     37932       305  PMPE      C213          -32.5143137561      -29.8945864196       -3.1502927593  MEMB      305             0.0000000000
     37933       305  PMPE      H13R          -32.9526667131      -28.8805896934       -3.0320611127  MEMB      305             0.0000000000
     37934       305  PMPE      H13S          -31.7529963439      -29.6749351265       -3.9290546716  MEMB      305             0.0000000000
     37935       305  PMPE      C214          -31.8146221253      -30.4152294063       -1.9508680232  MEMB      305             0.0000000000
     37936       305  PMPE      H14R          -30.8669686600      -29.8504694863       -1.8192611997  MEMB      305             0.0000000000
     37937       305  PMPE      H14S          -31.4312314525      -31.4426772588       -2.1288666772  MEMB      305             0.0000000000
     37938       305  PMPE      C215          -32.6255232154      -30.3240084059       -0.6760394010  MEMB      305             0.0000000000
     37939       305  PMPE      H15R          -32.1196961657      -31.1184840949       -0.0867448838  MEMB      305             0.0000000000
     37940       305  PMPE      H15S          -33.6870588528      -30.5759970153       -0.8857181577  MEMB      305             0.0000000000
     37941       305  PMPE      C216          -32.5888745939      -29.0572346662        0.0945000671  MEMB      305             0.0000000000
     37942       305  PMPE      H16R          -33.4694581032      -28.5187737619       -0.3165396377  MEMB      305             0.0000000000
     37943       305  PMPE      H16S          -32.6445519964      -29.1806690083        1.1972175869  MEMB      305             0.0000000000
     37944       305  PMPE      H16T          -31.5995142626      -28.5527079800        0.1251560452  MEMB      305             0.0000000000
     37945       305  PMPE      C33           -28.6534681463      -32.8879707561       -9.1153690781  MEMB      305             0.0000000000
     37946       305  PMPE      H3X           -27.7558824570      -33.4692694679       -9.4166209338  MEMB      305             0.0000000000
     37947       305  PMPE      H3Y           -29.3877842290      -33.6460580341       -8.7683750825  MEMB      305             0.0000000000
     37948       305  PMPE      C34           -28.2685165473      -32.1741841797       -7.7777614859  MEMB      305             0.0000000000
     37949       305  PMPE      H4X           -29.1239604952      -31.5035256918       -7.5480792289  MEMB      305             0.0000000000
     37950       305  PMPE      H4Y           -27.4294185699      -31.4647419702       -7.9418571798  MEMB      305             0.0000000000
     37951       305  PMPE      C35           -28.1302235859      -33.0407502755       -6.5051034396  MEMB      305             0.0000000000
     37952       305  PMPE      H5X           -27.7943594511      -32.2876830785       -5.7605188951  MEMB      305             0.0000000000
     37953       305  PMPE      H5Y           -27.2937915965      -33.7591468606       -6.6415169898  MEMB      305             0.0000000000
     37954       305  PMPE      C36           -29.3956247696      -33.8249976155       -5.9162603998  MEMB      305             0.0000000000
     37955       305  PMPE      H6X           -29.5386186122      -34.8175730733       -6.3944526264  MEMB      305             0.0000000000
     37956       305  PMPE      H6Y           -30.3414073865      -33.2566493486       -6.0458615205  MEMB      305             0.0000000000
     37957       305  PMPE      C37           -29.2564291320      -34.2406158312       -4.3983911847  MEMB      305             0.0000000000
     37958       305  PMPE      H7X           -29.0709040006      -33.3174495369       -3.8087596909  MEMB      305             0.0000000000
     37959       305  PMPE      H7Y           -28.4086607505      -34.9447781905       -4.2578032948  MEMB      305             0.0000000000
     37960       305  PMPE      C38           -30.6295114194      -34.9260551254       -4.0216591813  MEMB      305             0.0000000000
     37961       305  PMPE      H8X           -30.3855877944      -35.9539175835       -4.3656375165  MEMB      305             0.0000000000
     37962       305  PMPE      H8Y           -31.3835612037      -34.4210989424       -4.6625561023  MEMB      305             0.0000000000
     37963       305  PMPE      C39           -30.8359807597      -34.7850047134       -2.5013156201  MEMB      305             0.0000000000
     37964       305  PMPE      H9X           -31.8896312193      -35.0178130877       -2.2368515972  MEMB      305             0.0000000000
     37965       305  PMPE      H9Y           -30.6742908666      -33.6858502617       -2.5073891880  MEMB      305             0.0000000000
     37966       305  PMPE      C310          -29.8173668099      -35.5163997693       -1.5652237111  MEMB      305             0.0000000000
     37967       305  PMPE      H10X          -28.8527322743      -34.9958863061       -1.7465161304  MEMB      305             0.0000000000
     37968       305  PMPE      H10Y          -29.7480748695      -36.5714150044       -1.9064899328  MEMB      305             0.0000000000
     37969       305  PMPE      C311          -30.1108148206      -35.2679360903       -0.0860360690  MEMB      305             0.0000000000
     37970       305  PMPE      H11X          -29.4565905455      -35.8931196829        0.5585231146  MEMB      305             0.0000000000
     37971       305  PMPE      H11Y          -31.1381635193      -35.6638516955        0.0627140009  MEMB      305             0.0000000000
     37972       305  PMPE      C312          -29.9593890203      -33.8516154972        0.4535752397  MEMB      305             0.0000000000
     37973       305  PMPE      H12X          -30.6236154973      -33.7019510410        1.3314838912  MEMB      305             0.0000000000
     37974       305  PMPE      H12Y          -30.4230409999      -33.1467231483       -0.2692491065  MEMB      305             0.0000000000
     37975       305  PMPE      C313          -28.5329768351      -33.5654886587        0.7447945475  MEMB      305             0.0000000000
     37976       305  PMPE      H13X          -28.1108618427      -33.2702325055       -0.2395650612  MEMB      305             0.0000000000
     37977       305  PMPE      H13Y          -28.0346526961      -34.4987833480        1.0838438007  MEMB      305             0.0000000000
     37978       305  PMPE      C314          -28.2789027820      -32.4862266384        1.7729179810  MEMB      305             0.0000000000
     37979       305  PMPE      H14X          -28.3475491090      -32.8686454554        2.8137665516  MEMB      305             0.0000000000
     37980       305  PMPE      H14Y          -29.1096320644      -31.7531505922        1.6903984244  MEMB      305             0.0000000000
     37981       305  PMPE      C315          -26.9114650824      -31.7783587672        1.5333322245  MEMB      305             0.0000000000
     37982       305  PMPE      H15X          -26.9350036386      -30.7712684740        2.0018789140  MEMB      305             0.0000000000
     37983       305  PMPE      H15Y          -26.6967820874      -31.6786715937        0.4478388857  MEMB      305             0.0000000000
     37984       305  PMPE      C316          -25.6694662015      -32.4406202312        2.0915558987  MEMB      305             0.0000000000
     37985       305  PMPE      H16X          -24.8382815944      -31.7109556670        2.1966402825  MEMB      305             0.0000000000
     37986       305  PMPE      H16Y          -25.2683895233      -33.2772364527        1.4803847862  MEMB      305             0.0000000000
     37987       305  PMPE      H16Z          -25.7883109960      -32.7721518137        3.1452558418  MEMB      305             0.0000000000
     37988       306  POPE      N              -7.9002271465      -44.9418595403      -20.0166437770  MEMB      306             0.0000000000
     37989       306  POPE      HN1            -7.8840289513      -45.6166462999      -19.2254418016  MEMB      306             0.0000000000
     37990       306  POPE      HN2            -8.1320123591      -43.9641594791      -19.7483568651  MEMB      306             0.0000000000
     37991       306  POPE      HN3            -8.5691050233      -45.2339802009      -20.7574999739  MEMB      306             0.0000000000
     37992       306  POPE      C12            -6.5512483444      -44.8440335530      -20.6467589656  MEMB      306             0.0000000000
     37993       306  POPE      H12A           -6.6506971658      -43.9959849996      -21.3575645109  MEMB      306             0.0000000000
     37994       306  POPE      H12B           -6.3791955963      -45.6882275846      -21.3482255126  MEMB      306             0.0000000000
     37995       306  POPE      C11            -5.2950318600      -44.6197440678      -19.6864258902  MEMB      306             0.0000000000
     37996       306  POPE      H11A           -5.4398846522      -43.8135122600      -18.9358734261  MEMB      306             0.0000000000
     37997       306  POPE      H11B           -4.4258205045      -44.4778137413      -20.3636617731  MEMB      306             0.0000000000
     37998       306  POPE      P              -3.5366280836      -46.0479865179      -18.3863594767  MEMB      306             0.0000000000
     37999       306  POPE      O13            -2.9184671007      -44.8388324336      -17.7092116444  MEMB      306             0.0000000000
     38000       306  POPE      O14            -2.8407511569      -46.6448479668      -19.5610493931  MEMB      306             0.0000000000
     38001       306  POPE      O11            -3.7483269872      -47.1476982686      -17.1895011279  MEMB      306             0.0000000000
     38002       306  POPE      O12            -5.0304887620      -45.7656752514      -18.8040497274  MEMB      306             0.0000000000
     38003       306  POPE      C1             -2.6047577764      -47.8745157641      -16.8162073650  MEMB      306             0.0000000000
     38004       306  POPE      HA             -1.8069975179      -47.1328638001      -16.5974557803  MEMB      306             0.0000000000
     38005       306  POPE      HB             -2.3059629023      -48.6915747909      -17.5071901053  MEMB      306             0.0000000000
     38006       306  POPE      C2             -2.9259134700      -48.4568747921      -15.3654488376  MEMB      306             0.0000000000
     38007       306  POPE      HS             -2.0849976434      -49.1528620689      -15.1586074113  MEMB      306             0.0000000000
     38008       306  POPE      O21            -4.2398212479      -49.1209547507      -15.3321624692  MEMB      306             0.0000000000
     38009       306  POPE      C21            -4.5895372904      -49.9603616481      -16.3074690627  MEMB      306             0.0000000000
     38010       306  POPE      O22            -3.8573311014      -50.5210209212      -17.0707950181  MEMB      306             0.0000000000
     38011       306  POPE      C22            -6.1544595067      -50.1259173290      -16.2156114067  MEMB      306             0.0000000000
     38012       306  POPE      H2R            -6.2604742394      -50.9646878569      -15.4948158903  MEMB      306             0.0000000000
     38013       306  POPE      H2S            -6.6068826252      -50.5417787599      -17.1411888350  MEMB      306             0.0000000000
     38014       306  POPE      C3             -2.9485752448      -47.2525295822      -14.3462544797  MEMB      306             0.0000000000
     38015       306  POPE      HX             -2.0543019491      -46.6321528614      -14.5692548370  MEMB      306             0.0000000000
     38016       306  POPE      HY             -2.9085802063      -47.7229163907      -13.3405421794  MEMB      306             0.0000000000
     38017       306  POPE      O31            -4.1518530827      -46.5453002829      -14.5213912341  MEMB      306             0.0000000000
     38018       306  POPE      C31            -4.1430935625      -45.2048746047      -14.8872211973  MEMB      306             0.0000000000
     38019       306  POPE      O32            -3.1205525239      -44.5112132235      -14.8350803303  MEMB      306             0.0000000000
     38020       306  POPE      C32            -5.5196294505      -44.7570187360      -15.2886524646  MEMB      306             0.0000000000
     38021       306  POPE      H2X            -6.3051527708      -45.5386343873      -15.2089592952  MEMB      306             0.0000000000
     38022       306  POPE      H2Y            -5.3936901500      -44.4005061888      -16.3333338413  MEMB      306             0.0000000000
     38023       306  POPE      C23            -6.9198128870      -48.9997459230      -15.5550212923  MEMB      306             0.0000000000
     38024       306  POPE      H3R            -6.8066580044      -48.0219858174      -16.0702898852  MEMB      306             0.0000000000
     38025       306  POPE      H3S            -6.5778687673      -48.8148892090      -14.5142412163  MEMB      306             0.0000000000
     38026       306  POPE      C24            -8.4074151929      -49.4095029048      -15.4912714831  MEMB      306             0.0000000000
     38027       306  POPE      H4R            -8.4592887139      -50.4301867864      -15.0555712553  MEMB      306             0.0000000000
     38028       306  POPE      H4S            -8.7351824070      -49.5369979442      -16.5451380868  MEMB      306             0.0000000000
     38029       306  POPE      C25            -9.1404066275      -48.2747083621      -14.7142688704  MEMB      306             0.0000000000
     38030       306  POPE      H5R           -10.2403719600      -48.3566661070      -14.5813026112  MEMB      306             0.0000000000
     38031       306  POPE      H5S            -8.8659214917      -47.3402558008      -15.2488503691  MEMB      306             0.0000000000
     38032       306  POPE      C26            -8.6342954314      -47.9956554750      -13.1892546622  MEMB      306             0.0000000000
     38033       306  POPE      H6R            -7.6138634081      -47.5856322391      -13.0313921666  MEMB      306             0.0000000000
     38034       306  POPE      H6S            -8.6847170068      -49.0200888006      -12.7622714499  MEMB      306             0.0000000000
     38035       306  POPE      C27            -9.4278785775      -46.9643764934      -12.4937151205  MEMB      306             0.0000000000
     38036       306  POPE      H7R           -10.4346773122      -47.3579863598      -12.2373003133  MEMB      306             0.0000000000
     38037       306  POPE      H7S            -9.3561491281      -46.0173536202      -13.0701899699  MEMB      306             0.0000000000
     38038       306  POPE      C28            -8.7759070490      -46.6695124480      -11.1173117383  MEMB      306             0.0000000000
     38039       306  POPE      H8R            -7.7371107346      -46.2757186036      -11.1050722248  MEMB      306             0.0000000000
     38040       306  POPE      H8S            -8.7764836169      -47.6248540229      -10.5501755705  MEMB      306             0.0000000000
     38041       306  POPE      C29            -9.5294905027      -45.5788440626      -10.3703821453  MEMB      306             0.0000000000
     38042       306  POPE      H91           -10.0623091328      -44.8542520926      -11.0036831777  MEMB      306             0.0000000000
     38043       306  POPE      C210           -9.6239683506      -45.3840323678       -8.9879370802  MEMB      306             0.0000000000
     38044       306  POPE      H101          -10.2193114723      -44.5043014723       -8.7022094513  MEMB      306             0.0000000000
     38045       306  POPE      C211           -9.0078338671      -46.1492526062       -7.8549246811  MEMB      306             0.0000000000
     38046       306  POPE      H11R           -8.8638130426      -47.2081453636       -8.1587750746  MEMB      306             0.0000000000
     38047       306  POPE      H11S           -9.7357725852      -46.1357602429       -7.0157323657  MEMB      306             0.0000000000
     38048       306  POPE      C212           -7.6224208492      -45.5771600637       -7.4192111067  MEMB      306             0.0000000000
     38049       306  POPE      H12R           -7.7060111516      -44.6153871278       -6.8693688376  MEMB      306             0.0000000000
     38050       306  POPE      H12S           -6.9262804541      -45.5015357311       -8.2817603171  MEMB      306             0.0000000000
     38051       306  POPE      C213           -6.8972501999      -46.5696384240       -6.4834213346  MEMB      306             0.0000000000
     38052       306  POPE      H13R           -7.1175114324      -47.5781339434       -6.8942042570  MEMB      306             0.0000000000
     38053       306  POPE      H13S           -7.4163732548      -46.3938715392       -5.5170163053  MEMB      306             0.0000000000
     38054       306  POPE      C214           -5.4430749709      -46.2651598279       -6.2426536794  MEMB      306             0.0000000000
     38055       306  POPE      H14R           -5.2181171530      -45.2685515198       -5.8062058787  MEMB      306             0.0000000000
     38056       306  POPE      H14S           -4.8595786804      -46.2173040098       -7.1868794113  MEMB      306             0.0000000000
     38057       306  POPE      C215           -4.7080525936      -47.3188219689       -5.3405786590  MEMB      306             0.0000000000
     38058       306  POPE      H15R           -3.6311826526      -47.0466317823       -5.3163957047  MEMB      306             0.0000000000
     38059       306  POPE      H15S           -4.8304125623      -48.2931757024       -5.8601780234  MEMB      306             0.0000000000
     38060       306  POPE      C216           -5.1767604976      -47.1514970617       -3.8492901096  MEMB      306             0.0000000000
     38061       306  POPE      H16R           -6.2750899623      -47.3173118010       -3.8269532573  MEMB      306             0.0000000000
     38062       306  POPE      H16S           -4.9275794673      -46.0773119735       -3.7138044799  MEMB      306             0.0000000000
     38063       306  POPE      C217           -4.5922591670      -48.1862468416       -2.9408633604  MEMB      306             0.0000000000
     38064       306  POPE      H17R           -3.4972641030      -48.1923603821       -3.1286622816  MEMB      306             0.0000000000
     38065       306  POPE      H17S           -4.9744555956      -49.1988999240       -3.1914230144  MEMB      306             0.0000000000
     38066       306  POPE      C218           -5.0225131643      -48.0362468275       -1.4600689090  MEMB      306             0.0000000000
     38067       306  POPE      H18R           -6.1129250535      -47.8251323569       -1.4326169819  MEMB      306             0.0000000000
     38068       306  POPE      H18S           -4.6002151261      -47.0795558254       -1.0849331029  MEMB      306             0.0000000000
     38069       306  POPE      H18T           -4.8170556149      -48.8693717392       -0.7543699428  MEMB      306             0.0000000000
     38070       306  POPE      C33            -6.0033597365      -43.6323208777      -14.3359269368  MEMB      306             0.0000000000
     38071       306  POPE      H3X            -6.8196261350      -43.0540928589      -14.8193341829  MEMB      306             0.0000000000
     38072       306  POPE      H3Y            -5.1546115702      -42.9159277941      -14.3089387449  MEMB      306             0.0000000000
     38073       306  POPE      C34            -6.4498049396      -44.1382336316      -12.9129645334  MEMB      306             0.0000000000
     38074       306  POPE      H4X            -5.6489304791      -44.7698985143      -12.4726004668  MEMB      306             0.0000000000
     38075       306  POPE      H4Y            -7.3694623332      -44.7612758129      -12.8937415877  MEMB      306             0.0000000000
     38076       306  POPE      C35            -6.6823156652      -42.9774328785      -11.9088290264  MEMB      306             0.0000000000
     38077       306  POPE      H5X            -7.6845831941      -42.5029709283      -11.9771436798  MEMB      306             0.0000000000
     38078       306  POPE      H5Y            -5.9070707731      -42.2360797678      -12.1981593315  MEMB      306             0.0000000000
     38079       306  POPE      C36            -6.4993469678      -43.3264220998      -10.3658606613  MEMB      306             0.0000000000
     38080       306  POPE      H6X            -5.4530375038      -43.3567545608       -9.9935201410  MEMB      306             0.0000000000
     38081       306  POPE      H6Y            -6.8608688192      -44.3567171378      -10.1606410347  MEMB      306             0.0000000000
     38082       306  POPE      C37            -7.2399620699      -42.3247788241       -9.4126071581  MEMB      306             0.0000000000
     38083       306  POPE      H7X            -7.1083813863      -42.7015225094       -8.3757501947  MEMB      306             0.0000000000
     38084       306  POPE      H7Y            -8.3344645846      -42.4864698225       -9.5138073962  MEMB      306             0.0000000000
     38085       306  POPE      C38            -6.9763743262      -40.8463930560       -9.5504462498  MEMB      306             0.0000000000
     38086       306  POPE      H8X            -7.5586680480      -40.2495385143       -8.8162672329  MEMB      306             0.0000000000
     38087       306  POPE      H8Y            -7.3924610760      -40.3973957368      -10.4775892492  MEMB      306             0.0000000000
     38088       306  POPE      C39            -5.5199366072      -40.3971426043       -9.2009874071  MEMB      306             0.0000000000
     38089       306  POPE      H9X            -5.4428975842      -39.2940042331       -9.0938818944  MEMB      306             0.0000000000
     38090       306  POPE      H9Y            -4.8240863464      -40.6934878553      -10.0148021574  MEMB      306             0.0000000000
     38091       306  POPE      C310           -5.0328153759      -40.9696886381       -7.8941635964  MEMB      306             0.0000000000
     38092       306  POPE      H10X           -3.9241231920      -40.9058760881       -7.8617576355  MEMB      306             0.0000000000
     38093       306  POPE      H10Y           -5.1370631679      -42.0747308964       -7.8458401469  MEMB      306             0.0000000000
     38094       306  POPE      C311           -5.7445102563      -40.4290174021       -6.6171682783  MEMB      306             0.0000000000
     38095       306  POPE      H11X           -6.8493592354      -40.4271212743       -6.7338980845  MEMB      306             0.0000000000
     38096       306  POPE      H11Y           -5.4595709433      -39.3618834146       -6.4973522858  MEMB      306             0.0000000000
     38097       306  POPE      C312           -5.2062561185      -41.1332799716       -5.3781429810  MEMB      306             0.0000000000
     38098       306  POPE      H12X           -5.4187686477      -40.5848332525       -4.4356114609  MEMB      306             0.0000000000
     38099       306  POPE      H12Y           -4.1081875354      -41.2737500592       -5.4721345072  MEMB      306             0.0000000000
     38100       306  POPE      C313           -5.9223804326      -42.4279388496       -5.2933516079  MEMB      306             0.0000000000
     38101       306  POPE      H13X           -5.3814464743      -43.1826434583       -5.9033780501  MEMB      306             0.0000000000
     38102       306  POPE      H13Y           -6.9462625679      -42.3016727735       -5.7057145170  MEMB      306             0.0000000000
     38103       306  POPE      C314           -5.9332174121      -43.0850542191       -3.8702938691  MEMB      306             0.0000000000
     38104       306  POPE      H14X           -6.3234302273      -44.1242430712       -3.9165704630  MEMB      306             0.0000000000
     38105       306  POPE      H14Y           -6.6486939035      -42.5169382839       -3.2381084450  MEMB      306             0.0000000000
     38106       306  POPE      C315           -4.5441322810      -42.9984518650       -3.2331151133  MEMB      306             0.0000000000
     38107       306  POPE      H15X           -4.2394250999      -41.9530141191       -3.0128107955  MEMB      306             0.0000000000
     38108       306  POPE      H15Y           -3.8887580887      -43.3907570396       -4.0399010073  MEMB      306             0.0000000000
     38109       306  POPE      C316           -4.3131682214      -43.7959638918       -1.9645803584  MEMB      306             0.0000000000
     38110       306  POPE      H16X           -3.2905129566      -43.7922341706       -1.5304336488  MEMB      306             0.0000000000
     38111       306  POPE      H16Y           -4.5365303321      -44.8757790648       -2.1003355006  MEMB      306             0.0000000000
     38112       306  POPE      H16Z           -5.0031387565      -43.3742412085       -1.2027334105  MEMB      306             0.0000000000
     38113       307  OYPE      N             -11.8845984020       45.6991780887      -19.6449111436  MEMB      307             0.0000000000
     38114       307  OYPE      HN1           -12.4314660016       46.2569710914      -20.3314989464  MEMB      307             0.0000000000
     38115       307  OYPE      HN2           -10.9590998106       46.1622622516      -19.7478933858  MEMB      307             0.0000000000
     38116       307  OYPE      HN3           -11.8078341195       44.7674115889      -20.1004526029  MEMB      307             0.0000000000
     38117       307  OYPE      C12           -12.5479235959       45.5337126247      -18.3102493699  MEMB      307             0.0000000000
     38118       307  OYPE      H12A          -12.8858131959       46.5326559877      -17.9605871846  MEMB      307             0.0000000000
     38119       307  OYPE      H12B          -11.7930218149       45.0469604378      -17.6564017465  MEMB      307             0.0000000000
     38120       307  OYPE      C11           -13.7837662173       44.6109732614      -18.3051172268  MEMB      307             0.0000000000
     38121       307  OYPE      H11A          -14.5113278207       45.0072640995      -19.0453392016  MEMB      307             0.0000000000
     38122       307  OYPE      H11B          -14.2162948488       44.7171409622      -17.2872918474  MEMB      307             0.0000000000
     38123       307  OYPE      P             -14.3552584543       42.2495407138      -19.2187310355  MEMB      307             0.0000000000
     38124       307  OYPE      O13           -13.7893239082       40.9507653015      -19.5645015103  MEMB      307             0.0000000000
     38125       307  OYPE      O14           -15.0716163685       42.9924175120      -20.3335623106  MEMB      307             0.0000000000
     38126       307  OYPE      O11           -15.3447561497       42.0031771158      -18.0367437349  MEMB      307             0.0000000000
     38127       307  OYPE      O12           -13.3339854738       43.2744516540      -18.5861836711  MEMB      307             0.0000000000
     38128       307  OYPE      C1            -14.9599753897       41.2391456874      -16.9341619915  MEMB      307             0.0000000000
     38129       307  OYPE      HA            -13.8727828344       41.3455910389      -16.7316707855  MEMB      307             0.0000000000
     38130       307  OYPE      HB            -15.1384750815       40.1621510442      -17.1404178921  MEMB      307             0.0000000000
     38131       307  OYPE      C2            -15.8216211182       41.6232456359      -15.7114620305  MEMB      307             0.0000000000
     38132       307  OYPE      HS            -16.8746227842       41.8619288692      -15.9732617018  MEMB      307             0.0000000000
     38133       307  OYPE      O21           -15.1013447187       42.6609315556      -15.0262967795  MEMB      307             0.0000000000
     38134       307  OYPE      C21           -15.7081797658       43.3034360779      -14.0607624964  MEMB      307             0.0000000000
     38135       307  OYPE      O22           -16.8910346387       43.3259732489      -13.7466881398  MEMB      307             0.0000000000
     38136       307  OYPE      C22           -14.6030378068       43.8828144960      -13.2266498810  MEMB      307             0.0000000000
     38137       307  OYPE      H2R           -14.5140302621       44.9873681162      -13.3063973925  MEMB      307             0.0000000000
     38138       307  OYPE      H2S           -13.6523999442       43.3483994808      -13.4388034591  MEMB      307             0.0000000000
     38139       307  OYPE      C3            -15.9166680950       40.3458513833      -14.7897731166  MEMB      307             0.0000000000
     38140       307  OYPE      HX            -15.1141794068       40.2761378636      -14.0246109375  MEMB      307             0.0000000000
     38141       307  OYPE      HY            -15.9100118360       39.4616769195      -15.4624633974  MEMB      307             0.0000000000
     38142       307  OYPE      O31           -17.1744525062       40.4251359492      -14.1496455704  MEMB      307             0.0000000000
     38143       307  OYPE      C31           -17.4174311261       39.9574251922      -12.9152705859  MEMB      307             0.0000000000
     38144       307  OYPE      O32           -16.5333780489       39.5400224581      -12.1294926812  MEMB      307             0.0000000000
     38145       307  OYPE      C32           -18.8656247728       40.0728177326      -12.5356570878  MEMB      307             0.0000000000
     38146       307  OYPE      H2X           -19.5097431869       40.5237447673      -13.3205759221  MEMB      307             0.0000000000
     38147       307  OYPE      H2Y           -19.3252676680       39.0851880277      -12.3173991666  MEMB      307             0.0000000000
     38148       307  OYPE      C23           -14.7939248610       43.4246505527      -11.7916428645  MEMB      307             0.0000000000
     38149       307  OYPE      H3R           -14.4162060104       42.3835660551      -11.7033677843  MEMB      307             0.0000000000
     38150       307  OYPE      H3S           -15.7937032003       43.6127890831      -11.3451364410  MEMB      307             0.0000000000
     38151       307  OYPE      C24           -13.7252898882       44.1472335519      -10.9755786915  MEMB      307             0.0000000000
     38152       307  OYPE      H4R           -13.7528205994       45.2314467145      -11.2165031304  MEMB      307             0.0000000000
     38153       307  OYPE      H4S           -12.7162029030       43.7486951954      -11.2148097748  MEMB      307             0.0000000000
     38154       307  OYPE      C25           -13.9703885029       44.1417492836       -9.4494618605  MEMB      307             0.0000000000
     38155       307  OYPE      H5R           -14.8888293852       44.6567113938       -9.0950592800  MEMB      307             0.0000000000
     38156       307  OYPE      H5S           -13.1444294550       44.7692773818       -9.0515658593  MEMB      307             0.0000000000
     38157       307  OYPE      C26           -13.9784935410       42.6916476654       -8.8120256989  MEMB      307             0.0000000000
     38158       307  OYPE      H6R           -14.7503855714       42.0469101734       -9.2840610690  MEMB      307             0.0000000000
     38159       307  OYPE      H6S           -14.0989425804       42.7488753414       -7.7090571964  MEMB      307             0.0000000000
     38160       307  OYPE      C27           -12.7250642786       41.8853943665       -9.1236699078  MEMB      307             0.0000000000
     38161       307  OYPE      H7R           -11.7937432418       42.4341813445       -8.8671641432  MEMB      307             0.0000000000
     38162       307  OYPE      H7S           -12.7189100362       41.6975072517      -10.2186503025  MEMB      307             0.0000000000
     38163       307  OYPE      C28           -12.8427054264       40.5464414811       -8.2992310173  MEMB      307             0.0000000000
     38164       307  OYPE      H8R           -12.5636616429       40.7090143733       -7.2362042897  MEMB      307             0.0000000000
     38165       307  OYPE      H8S           -12.0200091652       39.8984584881       -8.6701896515  MEMB      307             0.0000000000
     38166       307  OYPE      C29           -14.0641363276       39.6441336188       -8.4156239503  MEMB      307             0.0000000000
     38167       307  OYPE      H9R           -14.2985292018       39.2311846329       -9.4078600922  MEMB      307             0.0000000000
     38168       307  OYPE      C210          -14.9648081290       39.3360981203       -7.4602944694  MEMB      307             0.0000000000
     38169       307  OYPE      H10R          -15.8110539059       38.6677938581       -7.6776361821  MEMB      307             0.0000000000
     38170       307  OYPE      C211          -14.9154285981       39.8627299396       -6.0784461563  MEMB      307             0.0000000000
     38171       307  OYPE      H11R          -14.3098254786       40.7840323783       -5.9414504076  MEMB      307             0.0000000000
     38172       307  OYPE      H11S          -14.3636259313       39.1871816865       -5.3903552002  MEMB      307             0.0000000000
     38173       307  OYPE      C212          -16.3364344307       39.9976097576       -5.5276372324  MEMB      307             0.0000000000
     38174       307  OYPE      H12R          -16.8570494736       39.0162046894       -5.5164562107  MEMB      307             0.0000000000
     38175       307  OYPE      H12S          -16.8936874328       40.6166431606       -6.2628840222  MEMB      307             0.0000000000
     38176       307  OYPE      C213          -16.5233387321       40.6093531453       -4.0500887649  MEMB      307             0.0000000000
     38177       307  OYPE      H13R          -17.6126980230       40.8274156671       -4.0419718656  MEMB      307             0.0000000000
     38178       307  OYPE      H13S          -15.9262726506       41.5453435364       -4.0919821189  MEMB      307             0.0000000000
     38179       307  OYPE      C214          -16.2796635624       39.6937359725       -2.9082208856  MEMB      307             0.0000000000
     38180       307  OYPE      H14R          -15.2031473452       39.4245866328       -2.8535165050  MEMB      307             0.0000000000
     38181       307  OYPE      H14S          -16.8170225078       38.7668480040       -3.2022358549  MEMB      307             0.0000000000
     38182       307  OYPE      C215          -16.8883014879       39.9655133727       -1.5100513590  MEMB      307             0.0000000000
     38183       307  OYPE      H15R          -16.7465297195       39.0370478727       -0.9166089939  MEMB      307             0.0000000000
     38184       307  OYPE      H15S          -17.9826236323       40.0539241798       -1.6802381610  MEMB      307             0.0000000000
     38185       307  OYPE      C216          -16.2236692333       41.1359381934       -0.7948750040  MEMB      307             0.0000000000
     38186       307  OYPE      H16R          -16.0143523061       41.9509757550       -1.5202858335  MEMB      307             0.0000000000
     38187       307  OYPE      H16S          -15.2899689893       40.7600286530       -0.3245375444  MEMB      307             0.0000000000
     38188       307  OYPE      H16T          -16.8646169953       41.4868220355        0.0420176236  MEMB      307             0.0000000000
     38189       307  OYPE      C33           -18.8831031494       41.1495644627      -11.3605511524  MEMB      307             0.0000000000
     38190       307  OYPE      H3X           -18.3531772094       42.0243982967      -11.7943311183  MEMB      307             0.0000000000
     38191       307  OYPE      H3Y           -18.2237395755       40.7519338006      -10.5596449342  MEMB      307             0.0000000000
     38192       307  OYPE      C34           -20.2838914041       41.5456160590      -10.8699949508  MEMB      307             0.0000000000
     38193       307  OYPE      H4X           -21.0894104590       41.6509326273      -11.6278654289  MEMB      307             0.0000000000
     38194       307  OYPE      H4Y           -20.7929295970       40.7356199003      -10.3050990025  MEMB      307             0.0000000000
     38195       307  OYPE      C35           -20.2406021877       42.8727771841      -10.0421160169  MEMB      307             0.0000000000
     38196       307  OYPE      H5X           -21.1934227275       43.0238753628       -9.4910956142  MEMB      307             0.0000000000
     38197       307  OYPE      H5Y           -20.3192836190       43.6850047383      -10.7960500970  MEMB      307             0.0000000000
     38198       307  OYPE      C36           -19.1001919362       42.9487621489       -9.0176261406  MEMB      307             0.0000000000
     38199       307  OYPE      H6X           -19.2572940856       42.2512703049       -8.1672464825  MEMB      307             0.0000000000
     38200       307  OYPE      H6Y           -18.1145800989       42.6857909213       -9.4577803784  MEMB      307             0.0000000000
     38201       307  OYPE      C37           -19.0528016719       44.4521994400       -8.5154691432  MEMB      307             0.0000000000
     38202       307  OYPE      H7X           -18.8943116910       45.0760294606       -9.4210290227  MEMB      307             0.0000000000
     38203       307  OYPE      H7Y           -20.0995281449       44.6616602036       -8.2075553414  MEMB      307             0.0000000000
     38204       307  OYPE      C38           -17.8676109516       44.8022388339       -7.5316853049  MEMB      307             0.0000000000
     38205       307  OYPE      H8X           -16.9127129021       44.9055487928       -8.0900914420  MEMB      307             0.0000000000
     38206       307  OYPE      H8Y           -18.0284159014       45.8695560139       -7.2684425498  MEMB      307             0.0000000000
     38207       307  OYPE      C39           -17.7281201214       43.9636854521       -6.2900221037  MEMB      307             0.0000000000
     38208       307  OYPE      H9X           -17.8113060710       42.8732844760       -6.4087895064  MEMB      307             0.0000000000
     38209       307  OYPE      C310          -17.4688197113       44.4385072370       -5.0408116355  MEMB      307             0.0000000000
     38210       307  OYPE      H10X          -17.2898285224       43.7634198244       -4.1909772401  MEMB      307             0.0000000000
     38211       307  OYPE      C311          -17.2997267430       45.8841013132       -4.6291117627  MEMB      307             0.0000000000
     38212       307  OYPE      H11X          -17.8782283928       46.5261885952       -5.3272381992  MEMB      307             0.0000000000
     38213       307  OYPE      H11Y          -17.6653083516       46.0097931891       -3.5875399443  MEMB      307             0.0000000000
     38214       307  OYPE      C312          -15.7997120503       46.3943843846       -4.5526076028  MEMB      307             0.0000000000
     38215       307  OYPE      H12X          -15.6948379618       47.4351941686       -4.1783919346  MEMB      307             0.0000000000
     38216       307  OYPE      H12Y          -15.2728476761       46.2386534553       -5.5182582561  MEMB      307             0.0000000000
     38217       307  OYPE      C313          -14.9809229642       45.5048436213       -3.6292580876  MEMB      307             0.0000000000
     38218       307  OYPE      H13X          -14.7289684658       44.4726256508       -3.9538596115  MEMB      307             0.0000000000
     38219       307  OYPE      H13Y          -14.0098826196       46.0352666081       -3.7295255349  MEMB      307             0.0000000000
     38220       307  OYPE      C314          -15.5398723377       45.5338184456       -2.1566503067  MEMB      307             0.0000000000
     38221       307  OYPE      H14X          -16.4175489163       44.8701196545       -2.0033237534  MEMB      307             0.0000000000
     38222       307  OYPE      H14Y          -15.9376718726       46.5595844296       -2.0021152203  MEMB      307             0.0000000000
     38223       307  OYPE      C315          -14.5806874925       45.0947570718       -1.1263697804  MEMB      307             0.0000000000
     38224       307  OYPE      H15X          -13.7604060829       45.8120280662       -0.9096160457  MEMB      307             0.0000000000
     38225       307  OYPE      H15Y          -14.1467683346       44.1026502167       -1.3748834729  MEMB      307             0.0000000000
     38226       307  OYPE      C316          -15.2007531993       44.9069811725        0.2796589165  MEMB      307             0.0000000000
     38227       307  OYPE      H16X          -15.9930421483       44.1285342852        0.3045582018  MEMB      307             0.0000000000
     38228       307  OYPE      H16Y          -15.6554795800       45.8792587728        0.5664022922  MEMB      307             0.0000000000
     38229       307  OYPE      C317          -14.0955008027       44.5075827149        1.2774094897  MEMB      307             0.0000000000
     38230       307  OYPE      H17X          -14.6422469263       44.1568295390        2.1787218500  MEMB      307             0.0000000000
     38231       307  OYPE      H17Y          -13.4992147043       45.3833175173        1.6118533653  MEMB      307             0.0000000000
     38232       307  OYPE      C318          -13.2516805031       43.3228381250        0.8880930940  MEMB      307             0.0000000000
     38233       307  OYPE      H18X          -12.4672129323       43.1722812788        1.6602747196  MEMB      307             0.0000000000
     38234       307  OYPE      H18Y          -13.8614405691       42.4167679445        0.6842540479  MEMB      307             0.0000000000
     38235       307  OYPE      H18Z          -12.6984883272       43.5533635071       -0.0474051545  MEMB      307             0.0000000000
     38236       308  QMPE      N               0.6156731819       48.6262354841      -20.1462211934  MEMB      308             0.0000000000
     38237       308  QMPE      HN1             0.9281442598       49.6113467593      -20.0299563145  MEMB      308             0.0000000000
     38238       308  QMPE      HN2             0.6905555615       48.3905933691      -21.1564021482  MEMB      308             0.0000000000
     38239       308  QMPE      HN3            -0.3802581651       48.6482407276      -19.8474963581  MEMB      308             0.0000000000
     38240       308  QMPE      C12             1.4734602789       47.7872591833      -19.2566945400  MEMB      308             0.0000000000
     38241       308  QMPE      H12A            1.0871602069       47.8954391045      -18.2206489799  MEMB      308             0.0000000000
     38242       308  QMPE      H12B            2.4757242802       48.2593143203      -19.3400738024  MEMB      308             0.0000000000
     38243       308  QMPE      C11             1.6370179274       46.2791420487      -19.6565942145  MEMB      308             0.0000000000
     38244       308  QMPE      H11A            2.0512884608       46.2174658039      -20.6856213764  MEMB      308             0.0000000000
     38245       308  QMPE      H11B            0.5723546193       45.9631489312      -19.6876011140  MEMB      308             0.0000000000
     38246       308  QMPE      P               2.1918160251       43.9548033479      -18.6022575951  MEMB      308             0.0000000000
     38247       308  QMPE      O13             3.1788709050       43.5367655029      -17.6198047607  MEMB      308             0.0000000000
     38248       308  QMPE      O14             2.3410597127       43.2887857864      -19.9311635288  MEMB      308             0.0000000000
     38249       308  QMPE      O11             0.6770738802       43.9378006796      -18.1416236051  MEMB      308             0.0000000000
     38250       308  QMPE      O12             2.3768261089       45.5750087349      -18.6456405607  MEMB      308             0.0000000000
     38251       308  QMPE      C1              0.4173873369       43.0742997219      -17.0886123488  MEMB      308             0.0000000000
     38252       308  QMPE      HA              1.0037155977       43.1572768883      -16.1485831180  MEMB      308             0.0000000000
     38253       308  QMPE      HB              0.5869411652       42.0186224065      -17.3904693465  MEMB      308             0.0000000000
     38254       308  QMPE      C2             -1.0861561415       43.2388320493      -16.6421415343  MEMB      308             0.0000000000
     38255       308  QMPE      HS             -1.7299555657       42.8702406031      -17.4691746509  MEMB      308             0.0000000000
     38256       308  QMPE      O21            -1.2469586119       44.6326608986      -16.4667170729  MEMB      308             0.0000000000
     38257       308  QMPE      C21            -2.4804829835       45.1132851536      -16.4045905695  MEMB      308             0.0000000000
     38258       308  QMPE      O22            -3.5144421567       44.5309881279      -16.7348120017  MEMB      308             0.0000000000
     38259       308  QMPE      C22            -2.2727621301       46.6010724358      -16.0484783207  MEMB      308             0.0000000000
     38260       308  QMPE      H2R            -1.8810848151       47.1128002577      -16.9534891235  MEMB      308             0.0000000000
     38261       308  QMPE      H2S            -1.5767798524       46.8032908879      -15.2064348006  MEMB      308             0.0000000000
     38262       308  QMPE      C3             -1.3777502383       42.3884323373      -15.2961878039  MEMB      308             0.0000000000
     38263       308  QMPE      HX             -1.1829707847       41.3039238714      -15.4383966127  MEMB      308             0.0000000000
     38264       308  QMPE      HY             -2.4614393324       42.4235212316      -15.0538903440  MEMB      308             0.0000000000
     38265       308  QMPE      O31            -0.5654313492       42.7831686997      -14.2552818287  MEMB      308             0.0000000000
     38266       308  QMPE      C31            -1.0634119813       43.5970122432      -13.3106370571  MEMB      308             0.0000000000
     38267       308  QMPE      O32            -2.1849216479       44.0262107517      -13.2994265372  MEMB      308             0.0000000000
     38268       308  QMPE      C32             0.0416268979       43.9273093217      -12.3010762340  MEMB      308             0.0000000000
     38269       308  QMPE      H2X            -0.4238337459       44.5355270763      -11.4962540922  MEMB      308             0.0000000000
     38270       308  QMPE      H2Y             0.4072009205       42.9671149320      -11.8783428225  MEMB      308             0.0000000000
     38271       308  QMPE      C23            -3.5699268299       47.3672582229      -15.7357576402  MEMB      308             0.0000000000
     38272       308  QMPE      H3R            -4.3545341802       47.1168660697      -16.4814225412  MEMB      308             0.0000000000
     38273       308  QMPE      H3S            -3.2759447455       48.4329067795      -15.8466110107  MEMB      308             0.0000000000
     38274       308  QMPE      C24            -4.2775151257       47.1557577196      -14.3865537470  MEMB      308             0.0000000000
     38275       308  QMPE      H4R            -4.6848360421       46.1229937525      -14.4290900744  MEMB      308             0.0000000000
     38276       308  QMPE      H4S            -5.1177010873       47.8824179486      -14.3672283509  MEMB      308             0.0000000000
     38277       308  QMPE      C25            -3.4140498622       47.3205389713      -13.1045200607  MEMB      308             0.0000000000
     38278       308  QMPE      H5R            -3.1710255912       48.4007133653      -13.0124124145  MEMB      308             0.0000000000
     38279       308  QMPE      H5S            -2.5255417258       46.6625513656      -13.2137270581  MEMB      308             0.0000000000
     38280       308  QMPE      C26            -4.1965601531       46.9150878856      -11.7920354305  MEMB      308             0.0000000000
     38281       308  QMPE      H6R            -4.5499875115       45.8679538370      -11.9057045561  MEMB      308             0.0000000000
     38282       308  QMPE      H6S            -5.0708214362       47.5858220240      -11.6502507841  MEMB      308             0.0000000000
     38283       308  QMPE      C27            -3.4197166362       46.9482824695      -10.5229081991  MEMB      308             0.0000000000
     38284       308  QMPE      H7R            -3.1720698070       48.0153148285      -10.3373445667  MEMB      308             0.0000000000
     38285       308  QMPE      H7S            -2.4727288804       46.4959411129      -10.8874926167  MEMB      308             0.0000000000
     38286       308  QMPE      C28            -3.9718197113       46.2255901329       -9.3057202209  MEMB      308             0.0000000000
     38287       308  QMPE      H8R            -3.1074106858       45.9769297716       -8.6535802174  MEMB      308             0.0000000000
     38288       308  QMPE      H8S            -4.4758471612       45.2845053427       -9.6133512125  MEMB      308             0.0000000000
     38289       308  QMPE      C29            -4.9168393689       47.1471671127       -8.6046335185  MEMB      308             0.0000000000
     38290       308  QMPE      H9R            -5.6891678610       47.6668300547       -9.2110827458  MEMB      308             0.0000000000
     38291       308  QMPE      C217           -4.4854598561       47.9820810523       -7.4547581205  MEMB      308             0.0000000000
     38292       308  QMPE      H17R           -3.4905085801       47.6956965098       -7.1370406257  MEMB      308             0.0000000000
     38293       308  QMPE      H17S           -4.9505908684       48.9352735228       -7.2357447761  MEMB      308             0.0000000000
     38294       308  QMPE      C210           -5.4124857887       46.7929944675       -7.2109989546  MEMB      308             0.0000000000
     38295       308  QMPE      H10R           -6.4227075040       47.1330285683       -6.8977090947  MEMB      308             0.0000000000
     38296       308  QMPE      C211           -4.8285168342       45.5458804447       -6.4729624412  MEMB      308             0.0000000000
     38297       308  QMPE      H11R           -3.7179192037       45.5295456252       -6.4479149468  MEMB      308             0.0000000000
     38298       308  QMPE      H11S           -5.0860443717       45.5601912765       -5.3923162426  MEMB      308             0.0000000000
     38299       308  QMPE      C212           -5.1316275356       44.0828545472       -6.9817427517  MEMB      308             0.0000000000
     38300       308  QMPE      H12R           -4.5762365915       43.9551573905       -7.9354484943  MEMB      308             0.0000000000
     38301       308  QMPE      H12S           -6.2237969963       43.9364143816       -7.1233131117  MEMB      308             0.0000000000
     38302       308  QMPE      C213           -4.6632570548       42.9849511910       -5.9358624534  MEMB      308             0.0000000000
     38303       308  QMPE      H13R           -4.7815761758       41.9681228311       -6.3675818799  MEMB      308             0.0000000000
     38304       308  QMPE      H13S           -5.4089750391       43.1423508434       -5.1274990188  MEMB      308             0.0000000000
     38305       308  QMPE      C214           -3.2634601454       43.1455201649       -5.3406772770  MEMB      308             0.0000000000
     38306       308  QMPE      H14R           -3.0372676630       44.1821195545       -5.0111019795  MEMB      308             0.0000000000
     38307       308  QMPE      H14S           -2.6047600148       42.8856201938       -6.1967655917  MEMB      308             0.0000000000
     38308       308  QMPE      C215           -2.8689890688       42.2205801702       -4.1684229868  MEMB      308             0.0000000000
     38309       308  QMPE      H15R           -3.1568090159       41.1859763613       -4.4531611782  MEMB      308             0.0000000000
     38310       308  QMPE      H15S           -3.3935594969       42.5248036362       -3.2375109427  MEMB      308             0.0000000000
     38311       308  QMPE      C216           -1.3786803175       42.4207754536       -3.7296527133  MEMB      308             0.0000000000
     38312       308  QMPE      H16R           -0.6615628976       42.1408613397       -4.5307218906  MEMB      308             0.0000000000
     38313       308  QMPE      H16S           -1.1974436760       41.8305411666       -2.8060189638  MEMB      308             0.0000000000
     38314       308  QMPE      H16T           -1.3622406923       43.4350266921       -3.2765015182  MEMB      308             0.0000000000
     38315       308  QMPE      C33             1.2451517535       44.6722383067      -12.9542714016  MEMB      308             0.0000000000
     38316       308  QMPE      H3X             0.8956475352       45.7000938626      -13.1902393740  MEMB      308             0.0000000000
     38317       308  QMPE      H3Y             1.6253063473       44.1728632959      -13.8710201182  MEMB      308             0.0000000000
     38318       308  QMPE      C34             2.4700162577       44.7470749072      -11.9704942055  MEMB      308             0.0000000000
     38319       308  QMPE      H4X             3.1344431714       45.4633615345      -12.4994471404  MEMB      308             0.0000000000
     38320       308  QMPE      H4Y             2.9663199159       43.7598304354      -11.8549442517  MEMB      308             0.0000000000
     38321       308  QMPE      C35             2.1405466695       45.2627066913      -10.5491190732  MEMB      308             0.0000000000
     38322       308  QMPE      H5X             3.0557957568       45.3973688812       -9.9338905498  MEMB      308             0.0000000000
     38323       308  QMPE      H5Y             1.4311999360       44.5669338247      -10.0520790422  MEMB      308             0.0000000000
     38324       308  QMPE      C36             1.4455041777       46.6192593112      -10.5494130781  MEMB      308             0.0000000000
     38325       308  QMPE      H6X             0.3709835686       46.4481256254      -10.7740012077  MEMB      308             0.0000000000
     38326       308  QMPE      H6Y             1.8061603027       47.1663039609      -11.4466255300  MEMB      308             0.0000000000
     38327       308  QMPE      C37             1.5511222206       47.4192623002       -9.2504017667  MEMB      308             0.0000000000
     38328       308  QMPE      H7X             1.0416058520       46.8324315451       -8.4564596681  MEMB      308             0.0000000000
     38329       308  QMPE      H7Y             2.6269691449       47.4993052927       -8.9849445239  MEMB      308             0.0000000000
     38330       308  QMPE      C38             0.8803576143       48.8101331513       -9.4077585659  MEMB      308             0.0000000000
     38331       308  QMPE      H8X             1.3775013190       49.3660209848       -8.5842547329  MEMB      308             0.0000000000
     38332       308  QMPE      H8Y             0.9501898296       49.3203590814      -10.3921938966  MEMB      308             0.0000000000
     38333       308  QMPE      C39            -0.5598735574       48.8978259477       -8.9230734013  MEMB      308             0.0000000000
     38334       308  QMPE      H9X            -1.0820671296       47.9186170066       -8.9758463059  MEMB      308             0.0000000000
     38335       308  QMPE      H9Y            -1.1240839416       49.5427545510       -9.6302183446  MEMB      308             0.0000000000
     38336       308  QMPE      C310           -0.7760458075       49.5605709508       -7.5486830264  MEMB      308             0.0000000000
     38337       308  QMPE      H10X           -1.8746654389       49.7259467965       -7.5511797762  MEMB      308             0.0000000000
     38338       308  QMPE      H10Y           -0.2986221310       50.5563740848       -7.4271758668  MEMB      308             0.0000000000
     38339       308  QMPE      C311           -0.3940967326       48.6483916180       -6.3431968155  MEMB      308             0.0000000000
     38340       308  QMPE      H11X            0.7038074105       48.5214203379       -6.4563580207  MEMB      308             0.0000000000
     38341       308  QMPE      H11Y           -0.7422023478       47.6101403678       -6.5307535083  MEMB      308             0.0000000000
     38342       308  QMPE      C312           -0.6526173062       49.2330741347       -4.8858497442  MEMB      308             0.0000000000
     38343       308  QMPE      H12X           -1.7159795092       49.5548959332       -4.8822670278  MEMB      308             0.0000000000
     38344       308  QMPE      H12Y           -0.0029311565       50.1287289876       -4.7856945930  MEMB      308             0.0000000000
     38345       308  QMPE      C313           -0.2953944980       48.0844645765       -3.8689133544  MEMB      308             0.0000000000
     38346       308  QMPE      H13X           -0.5252391977       47.0635676025       -4.2420909018  MEMB      308             0.0000000000
     38347       308  QMPE      H13Y            0.7675994680       48.0292558644       -3.5506101829  MEMB      308             0.0000000000
     38348       308  QMPE      C314           -1.0537363591       48.2425150874       -2.4727933605  MEMB      308             0.0000000000
     38349       308  QMPE      H14X           -2.1601068894       48.3301344585       -2.5236688520  MEMB      308             0.0000000000
     38350       308  QMPE      H14Y           -0.7368644626       49.2017318009       -2.0103900432  MEMB      308             0.0000000000
     38351       308  QMPE      C315           -0.7361151597       46.9526438163       -1.7160641527  MEMB      308             0.0000000000
     38352       308  QMPE      H15X            0.3572113608       46.9312963756       -1.5198437998  MEMB      308             0.0000000000
     38353       308  QMPE      H15Y           -1.2623801368       46.9046913981       -0.7387885470  MEMB      308             0.0000000000
     38354       308  QMPE      H15Z           -0.8909202688       46.0280937667       -2.3123550986  MEMB      308             0.0000000000
     38355       309  PMPE      N              44.6349558205        8.5159364129      -21.8265401106  MEMB      309             0.0000000000
     38356       309  PMPE      HN1            45.2960352230        9.3165499778      -21.8864734785  MEMB      309             0.0000000000
     38357       309  PMPE      HN2            45.2360402979        7.6969176164      -21.6040414345  MEMB      309             0.0000000000
     38358       309  PMPE      HN3            44.1454483244        8.3685573912      -22.7322232193  MEMB      309             0.0000000000
     38359       309  PMPE      C12            43.6777868555        8.8087510814      -20.7277379428  MEMB      309             0.0000000000
     38360       309  PMPE      H12A           42.8850663729        8.0444396260      -20.8751934856  MEMB      309             0.0000000000
     38361       309  PMPE      H12B           43.2373229723        9.8014294426      -20.9620499973  MEMB      309             0.0000000000
     38362       309  PMPE      C11            44.2164672575        8.8640844088      -19.3011023694  MEMB      309             0.0000000000
     38363       309  PMPE      H11A           44.1079261135        7.8535126768      -18.8524549630  MEMB      309             0.0000000000
     38364       309  PMPE      H11B           43.4735838878        9.3996248925      -18.6721017099  MEMB      309             0.0000000000
     38365       309  PMPE      P              46.3957223237        9.2753287047      -17.9738035366  MEMB      309             0.0000000000
     38366       309  PMPE      O13            47.5460498494       10.1509136907      -18.2288826869  MEMB      309             0.0000000000
     38367       309  PMPE      O14            46.5832123797        7.8236566707      -17.8303361723  MEMB      309             0.0000000000
     38368       309  PMPE      O11            45.4504232147        9.9109818734      -16.8677069579  MEMB      309             0.0000000000
     38369       309  PMPE      O12            45.4964303230        9.4983714856      -19.2438902231  MEMB      309             0.0000000000
     38370       309  PMPE      C1             45.0242330710        9.1269479106      -15.8255795099  MEMB      309             0.0000000000
     38371       309  PMPE      HA             44.9741034293        8.0316835704      -16.0050341184  MEMB      309             0.0000000000
     38372       309  PMPE      HB             44.0525732214        9.5981358967      -15.5644663048  MEMB      309             0.0000000000
     38373       309  PMPE      C2             46.0347200593        9.3524790693      -14.5649570336  MEMB      309             0.0000000000
     38374       309  PMPE      HS             45.4560552601        9.1049698557      -13.6494203439  MEMB      309             0.0000000000
     38375       309  PMPE      O21            46.4301733634       10.7622378210      -14.5356620858  MEMB      309             0.0000000000
     38376       309  PMPE      C21            45.4749102860       11.5903739295      -14.1816161954  MEMB      309             0.0000000000
     38377       309  PMPE      O22            44.4482263292       11.3522023591      -13.5825422874  MEMB      309             0.0000000000
     38378       309  PMPE      C22            45.8560294270       13.0128202950      -14.6716492912  MEMB      309             0.0000000000
     38379       309  PMPE      H2R            45.1988921926       13.6077400974      -14.0019014372  MEMB      309             0.0000000000
     38380       309  PMPE      H2S            45.5970559620       13.1513314997      -15.7431287747  MEMB      309             0.0000000000
     38381       309  PMPE      C3             47.2817639762        8.3947323197      -14.7069853857  MEMB      309             0.0000000000
     38382       309  PMPE      HX             47.9714445258        8.9183674791      -15.4030227184  MEMB      309             0.0000000000
     38383       309  PMPE      HY             46.8887406895        7.4717758158      -15.1844836268  MEMB      309             0.0000000000
     38384       309  PMPE      O31            47.8760372533        8.2198793476      -13.3918266057  MEMB      309             0.0000000000
     38385       309  PMPE      C31            47.1750606954        7.4932446319      -12.5627763408  MEMB      309             0.0000000000
     38386       309  PMPE      O32            46.2299177683        6.7632574783      -12.7485074193  MEMB      309             0.0000000000
     38387       309  PMPE      C32            47.7974048390        7.7384478341      -11.1892691868  MEMB      309             0.0000000000
     38388       309  PMPE      H2X            48.3646857363        8.6828058321      -11.0453905390  MEMB      309             0.0000000000
     38389       309  PMPE      H2Y            48.5005403705        6.8855417669      -11.0775874260  MEMB      309             0.0000000000
     38390       309  PMPE      C23            47.2954378167       13.3523911897      -14.3550433289  MEMB      309             0.0000000000
     38391       309  PMPE      H3R            47.3861556002       14.3504971784      -14.8344968943  MEMB      309             0.0000000000
     38392       309  PMPE      H3S            47.8425141871       12.5635299519      -14.9142628189  MEMB      309             0.0000000000
     38393       309  PMPE      C24            47.7452590958       13.3009540328      -12.7976889972  MEMB      309             0.0000000000
     38394       309  PMPE      H4R            48.8499478621       13.3987783416      -12.7312488361  MEMB      309             0.0000000000
     38395       309  PMPE      H4S            47.7040154176       12.2590524566      -12.4142036776  MEMB      309             0.0000000000
     38396       309  PMPE      C25            46.8829079692       14.2060972686      -11.7991815830  MEMB      309             0.0000000000
     38397       309  PMPE      H5R            45.7911202171       14.0279249359      -11.9020169250  MEMB      309             0.0000000000
     38398       309  PMPE      H5S            47.1435686076       15.2712679224      -11.9774761802  MEMB      309             0.0000000000
     38399       309  PMPE      C26            47.3364065869       14.0935543918      -10.3105867432  MEMB      309             0.0000000000
     38400       309  PMPE      H6R            46.9797048367       15.0328016873       -9.8363509259  MEMB      309             0.0000000000
     38401       309  PMPE      H6S            48.4452616835       14.0831593615      -10.2423726047  MEMB      309             0.0000000000
     38402       309  PMPE      C27            46.8062761053       12.8089185598       -9.5130530752  MEMB      309             0.0000000000
     38403       309  PMPE      H7R            46.9776801004       11.7789946208       -9.8927871351  MEMB      309             0.0000000000
     38404       309  PMPE      H7S            45.7168891199       12.9827667670       -9.3813937432  MEMB      309             0.0000000000
     38405       309  PMPE      C28            47.4200113180       12.7459184129       -8.1207546660  MEMB      309             0.0000000000
     38406       309  PMPE      H8R            47.4368883652       13.8327732231       -7.8910099108  MEMB      309             0.0000000000
     38407       309  PMPE      H8S            48.4407207980       12.3074448812       -8.1353872943  MEMB      309             0.0000000000
     38408       309  PMPE      C29            46.6518913566       11.9380609844       -7.1144647501  MEMB      309             0.0000000000
     38409       309  PMPE      H9R            46.1492813185       10.9934798592       -7.4135812305  MEMB      309             0.0000000000
     38410       309  PMPE      C217           45.5598585147       12.7800241561       -6.4066604327  MEMB      309             0.0000000000
     38411       309  PMPE      H17R           44.7315313046       12.1407861324       -6.1271291217  MEMB      309             0.0000000000
     38412       309  PMPE      H17S           45.7423439052       13.8389725361       -6.5416286949  MEMB      309             0.0000000000
     38413       309  PMPE      C210           46.7837351511       12.1201926150       -5.6726430397  MEMB      309             0.0000000000
     38414       309  PMPE      H10R           46.5165575266       11.2433050762       -5.0449445878  MEMB      309             0.0000000000
     38415       309  PMPE      C211           47.6957850147       13.1855498199       -5.0383633769  MEMB      309             0.0000000000
     38416       309  PMPE      H11R           47.9780890865       14.0615933467       -5.6605962380  MEMB      309             0.0000000000
     38417       309  PMPE      H11S           48.6606014680       12.6843741140       -4.8097309691  MEMB      309             0.0000000000
     38418       309  PMPE      C212           47.2145698916       13.7250320170       -3.6868118611  MEMB      309             0.0000000000
     38419       309  PMPE      H12R           46.1883496744       14.1488811870       -3.6475053815  MEMB      309             0.0000000000
     38420       309  PMPE      H12S           47.7536119151       14.6580980080       -3.4163629309  MEMB      309             0.0000000000
     38421       309  PMPE      C213           47.2636357890       12.8517309050       -2.4547798959  MEMB      309             0.0000000000
     38422       309  PMPE      H13R           48.2949239727       12.4418863403       -2.4019300079  MEMB      309             0.0000000000
     38423       309  PMPE      H13S           46.5679174000       11.9861459093       -2.4222294952  MEMB      309             0.0000000000
     38424       309  PMPE      C214           47.1544786532       13.6556134072       -1.0800267398  MEMB      309             0.0000000000
     38425       309  PMPE      H14R           46.1153246874       14.0474924130       -1.0498428942  MEMB      309             0.0000000000
     38426       309  PMPE      H14S           47.9959486314       14.3803855995       -1.0491386471  MEMB      309             0.0000000000
     38427       309  PMPE      C215           47.2162727219       12.7594631401        0.1633013501  MEMB      309             0.0000000000
     38428       309  PMPE      H15R           48.1365299783       12.1377346439        0.1332791592  MEMB      309             0.0000000000
     38429       309  PMPE      H15S           46.3922694242       12.0169671217        0.0997443116  MEMB      309             0.0000000000
     38430       309  PMPE      C216           47.1318855889       13.5159248958        1.4760706331  MEMB      309             0.0000000000
     38431       309  PMPE      H16R           48.0718132514       14.0737930508        1.6751688018  MEMB      309             0.0000000000
     38432       309  PMPE      H16S           46.2195801061       14.1499320859        1.4686729410  MEMB      309             0.0000000000
     38433       309  PMPE      H16T           47.0425895519       12.7634952723        2.2885942006  MEMB      309             0.0000000000
     38434       309  PMPE      C33            46.7253273124        7.6251230294      -10.1132278210  MEMB      309             0.0000000000
     38435       309  PMPE      H3X            46.6038807307        6.5397228598       -9.9095660748  MEMB      309             0.0000000000
     38436       309  PMPE      H3Y            45.7482008389        8.0628685759      -10.4097468889  MEMB      309             0.0000000000
     38437       309  PMPE      C34            47.1264383899        8.4093829445       -8.8785863338  MEMB      309             0.0000000000
     38438       309  PMPE      H4X            46.2922597557        8.5091073395       -8.1515910803  MEMB      309             0.0000000000
     38439       309  PMPE      H4Y            47.4300249810        9.4077374000       -9.2599584557  MEMB      309             0.0000000000
     38440       309  PMPE      C35            48.4397824494        7.9901582501       -8.1100793373  MEMB      309             0.0000000000
     38441       309  PMPE      H5X            48.5290079687        8.7329492466       -7.2887260772  MEMB      309             0.0000000000
     38442       309  PMPE      H5Y            49.3887072886        7.9379758476       -8.6855266806  MEMB      309             0.0000000000
     38443       309  PMPE      C36            48.2821480741        6.5617625717       -7.5243545158  MEMB      309             0.0000000000
     38444       309  PMPE      H6X            48.2818551057        5.8917731645       -8.4106016045  MEMB      309             0.0000000000
     38445       309  PMPE      H6Y            47.2566479860        6.5242359380       -7.0986052063  MEMB      309             0.0000000000
     38446       309  PMPE      C37            49.3675953676        6.1539186907       -6.5406983830  MEMB      309             0.0000000000
     38447       309  PMPE      H7X            50.4054571559        5.9766554102       -6.8952994990  MEMB      309             0.0000000000
     38448       309  PMPE      H7Y            49.0655991035        5.1997994994       -6.0582298430  MEMB      309             0.0000000000
     38449       309  PMPE      C38            49.6436771027        7.1149837211       -5.3625025380  MEMB      309             0.0000000000
     38450       309  PMPE      H8X            50.0017708828        8.1156766001       -5.6860818829  MEMB      309             0.0000000000
     38451       309  PMPE      H8Y            50.4151173395        6.6219364392       -4.7331328573  MEMB      309             0.0000000000
     38452       309  PMPE      C39            48.3697384206        7.2836442580       -4.5183227968  MEMB      309             0.0000000000
     38453       309  PMPE      H9X            47.9733546128        6.2689612139       -4.3001048888  MEMB      309             0.0000000000
     38454       309  PMPE      H9Y            47.6031861024        7.8001602773       -5.1347077359  MEMB      309             0.0000000000
     38455       309  PMPE      C310           48.5621277223        8.0847909431       -3.2199969178  MEMB      309             0.0000000000
     38456       309  PMPE      H10X           49.0071328580        9.0680007219       -3.4837958730  MEMB      309             0.0000000000
     38457       309  PMPE      H10Y           49.3306041714        7.5797729789       -2.5965225190  MEMB      309             0.0000000000
     38458       309  PMPE      C311           47.2357752126        8.2002598941       -2.4774050803  MEMB      309             0.0000000000
     38459       309  PMPE      H11X           47.3870080388        8.7817806540       -1.5429106683  MEMB      309             0.0000000000
     38460       309  PMPE      H11Y           46.9574605121        7.2165346611       -2.0424957911  MEMB      309             0.0000000000
     38461       309  PMPE      C312           46.0938988138        8.9222694096       -3.1801466499  MEMB      309             0.0000000000
     38462       309  PMPE      H12X           45.8987201091        8.4589309169       -4.1708755331  MEMB      309             0.0000000000
     38463       309  PMPE      H12Y           46.4443536837        9.9725510479       -3.2718580285  MEMB      309             0.0000000000
     38464       309  PMPE      C313           44.6859160858        9.0710516476       -2.3767901286  MEMB      309             0.0000000000
     38465       309  PMPE      H13X           44.3053975470        8.0274263235       -2.3574894215  MEMB      309             0.0000000000
     38466       309  PMPE      H13Y           44.0538022165        9.7723266480       -2.9624237279  MEMB      309             0.0000000000
     38467       309  PMPE      C314           44.7733085181        9.6542437532       -0.9671257743  MEMB      309             0.0000000000
     38468       309  PMPE      H14X           43.8414202002       10.1693946107       -0.6500688702  MEMB      309             0.0000000000
     38469       309  PMPE      H14Y           45.5025534142       10.4922693871       -0.9517797760  MEMB      309             0.0000000000
     38470       309  PMPE      C315           45.0511321555        8.6755405144        0.1464403767  MEMB      309             0.0000000000
     38471       309  PMPE      H15X           46.1167689402        8.3687128310        0.0786465526  MEMB      309             0.0000000000
     38472       309  PMPE      H15Y           44.3938324017        7.8614994031       -0.2272107373  MEMB      309             0.0000000000
     38473       309  PMPE      C316           44.6442514468        9.0231231227        1.6247344064  MEMB      309             0.0000000000
     38474       309  PMPE      H16X           44.9135735906       10.0829196591        1.8212481332  MEMB      309             0.0000000000
     38475       309  PMPE      H16Y           45.2210049454        8.3553740671        2.2998548665  MEMB      309             0.0000000000
     38476       309  PMPE      H16Z           43.5533464368        8.8175391946        1.6692632279  MEMB      309             0.0000000000
     38477       310  PMPE      N             -43.1074351503        1.5722271631      -18.2719209068  MEMB      310             0.0000000000
     38478       310  PMPE      HN1           -42.6977741430        2.4751019264      -17.9579225995  MEMB      310             0.0000000000
     38479       310  PMPE      HN2           -43.2455340726        1.0018428051      -17.4133230676  MEMB      310             0.0000000000
     38480       310  PMPE      HN3           -42.4539161261        1.0851426370      -18.9178786813  MEMB      310             0.0000000000
     38481       310  PMPE      C12           -44.5208146162        1.8542614114      -18.9001902626  MEMB      310             0.0000000000
     38482       310  PMPE      H12A          -44.9540364115        0.8561323880      -19.1246415596  MEMB      310             0.0000000000
     38483       310  PMPE      H12B          -44.3369175155        2.3892270967      -19.8563882121  MEMB      310             0.0000000000
     38484       310  PMPE      C11           -45.5064554086        2.7889354413      -18.0896310991  MEMB      310             0.0000000000
     38485       310  PMPE      H11A          -44.9980242662        3.7394872904      -17.8208004963  MEMB      310             0.0000000000
     38486       310  PMPE      H11B          -45.7903812520        2.2669356225      -17.1508961518  MEMB      310             0.0000000000
     38487       310  PMPE      P             -47.6803349622        2.1231954084      -19.4265309715  MEMB      310             0.0000000000
     38488       310  PMPE      O13           -47.0322747656        1.1279192529      -20.3362506785  MEMB      310             0.0000000000
     38489       310  PMPE      O14           -48.9009365017        2.7437568152      -19.9693566672  MEMB      310             0.0000000000
     38490       310  PMPE      O11           -48.0816775218        1.4240631755      -18.0900578182  MEMB      310             0.0000000000
     38491       310  PMPE      O12           -46.6535814902        3.1701766900      -18.9160616239  MEMB      310             0.0000000000
     38492       310  PMPE      C1            -49.2773031094        0.6907196265      -17.9232986681  MEMB      310             0.0000000000
     38493       310  PMPE      HA            -49.0799591165       -0.0612528811      -17.1296277395  MEMB      310             0.0000000000
     38494       310  PMPE      HB            -49.7004828946        0.1956391491      -18.8233736568  MEMB      310             0.0000000000
     38495       310  PMPE      C2            -50.3889164222        1.4931381377      -17.1861672697  MEMB      310             0.0000000000
     38496       310  PMPE      HS            -50.8499407556        2.0599179606      -18.0231486658  MEMB      310             0.0000000000
     38497       310  PMPE      O21           -49.7415934898        2.3729562599      -16.3135860099  MEMB      310             0.0000000000
     38498       310  PMPE      C21           -50.3778981095        3.4160259232      -15.9853980393  MEMB      310             0.0000000000
     38499       310  PMPE      O22           -51.5393240834        3.6502167048      -16.1381439326  MEMB      310             0.0000000000
     38500       310  PMPE      C22           -49.4404014620        4.3949595216      -15.2659769554  MEMB      310             0.0000000000
     38501       310  PMPE      H2R           -49.1105920537        5.2204051186      -15.9324496111  MEMB      310             0.0000000000
     38502       310  PMPE      H2S           -48.5114542284        3.8350274570      -15.0254477632  MEMB      310             0.0000000000
     38503       310  PMPE      C3            -51.4971577111        0.6110105087      -16.4959557312  MEMB      310             0.0000000000
     38504       310  PMPE      HX            -52.0054725516        0.0815743325      -17.3300027175  MEMB      310             0.0000000000
     38505       310  PMPE      HY            -52.2918460571        1.1065513995      -15.8982678268  MEMB      310             0.0000000000
     38506       310  PMPE      O31           -50.8665668637       -0.3469506355      -15.5668576492  MEMB      310             0.0000000000
     38507       310  PMPE      C31           -50.5836221808        0.0684266140      -14.3146067396  MEMB      310             0.0000000000
     38508       310  PMPE      O32           -51.1903945541        0.9171495541      -13.6624221422  MEMB      310             0.0000000000
     38509       310  PMPE      C32           -49.5365395161       -0.8897075686      -13.6385261763  MEMB      310             0.0000000000
     38510       310  PMPE      H2X           -49.3828605813       -1.7726919960      -14.2950637829  MEMB      310             0.0000000000
     38511       310  PMPE      H2Y           -49.9556680578       -1.1699531056      -12.6485184868  MEMB      310             0.0000000000
     38512       310  PMPE      C23           -50.0727019088        4.9726479040      -13.9761459396  MEMB      310             0.0000000000
     38513       310  PMPE      H3R           -50.6065861970        4.2646109253      -13.3068387848  MEMB      310             0.0000000000
     38514       310  PMPE      H3S           -50.7223427957        5.8494551118      -14.1847041785  MEMB      310             0.0000000000
     38515       310  PMPE      C24           -49.0180132213        5.5874819778      -12.9686548843  MEMB      310             0.0000000000
     38516       310  PMPE      H4R           -49.5950178011        6.1907356564      -12.2355300932  MEMB      310             0.0000000000
     38517       310  PMPE      H4S           -48.4214970541        6.3014159024      -13.5759340963  MEMB      310             0.0000000000
     38518       310  PMPE      C25           -48.1498558027        4.6669872796      -12.1373883671  MEMB      310             0.0000000000
     38519       310  PMPE      H5R           -47.5272231038        5.3295897235      -11.4989470830  MEMB      310             0.0000000000
     38520       310  PMPE      H5S           -47.5629329899        4.1487292043      -12.9255835154  MEMB      310             0.0000000000
     38521       310  PMPE      C26           -48.8411156735        3.4964642295      -11.3353444586  MEMB      310             0.0000000000
     38522       310  PMPE      H6R           -48.0526716895        2.8202678679      -10.9410919108  MEMB      310             0.0000000000
     38523       310  PMPE      H6S           -49.5770753822        2.8656739208      -11.8782883255  MEMB      310             0.0000000000
     38524       310  PMPE      C27           -49.5798032255        4.1612870931      -10.0751957430  MEMB      310             0.0000000000
     38525       310  PMPE      H7R           -50.2738459796        4.9848263561      -10.3479751086  MEMB      310             0.0000000000
     38526       310  PMPE      H7S           -48.7449059606        4.5815370452       -9.4746485707  MEMB      310             0.0000000000
     38527       310  PMPE      C28           -50.3545827427        3.2261451933       -9.1124897334  MEMB      310             0.0000000000
     38528       310  PMPE      H8R           -51.4127288940        3.2039983210       -9.4503611875  MEMB      310             0.0000000000
     38529       310  PMPE      H8S           -50.5090200099        3.6738548763       -8.1074885637  MEMB      310             0.0000000000
     38530       310  PMPE      C29           -49.6515745002        1.9041444441       -8.8517437856  MEMB      310             0.0000000000
     38531       310  PMPE      H9R           -48.6524171191        1.9199989446       -8.3661983595  MEMB      310             0.0000000000
     38532       310  PMPE      C217          -50.0665170717        0.6561818513       -9.5866926931  MEMB      310             0.0000000000
     38533       310  PMPE      H17R          -49.1183955591        0.2027885182       -9.8482058724  MEMB      310             0.0000000000
     38534       310  PMPE      H17S          -50.8840826403        0.8567331914      -10.2680544101  MEMB      310             0.0000000000
     38535       310  PMPE      C210          -50.4245500462        0.7606171482       -8.1163602384  MEMB      310             0.0000000000
     38536       310  PMPE      H10R          -49.7806411817        0.1851827837       -7.4173773613  MEMB      310             0.0000000000
     38537       310  PMPE      C211          -51.9328174586        0.8884082930       -7.7106605960  MEMB      310             0.0000000000
     38538       310  PMPE      H11R          -52.3918690398       -0.0350458916       -7.2973516182  MEMB      310             0.0000000000
     38539       310  PMPE      H11S          -52.4522457404        1.1916559539       -8.6447678272  MEMB      310             0.0000000000
     38540       310  PMPE      C212          -52.2540223951        2.0503854551       -6.6651708438  MEMB      310             0.0000000000
     38541       310  PMPE      H12R          -53.3517585666        2.0346232907       -6.4947368781  MEMB      310             0.0000000000
     38542       310  PMPE      H12S          -52.0324922439        3.0683351316       -7.0512071444  MEMB      310             0.0000000000
     38543       310  PMPE      C213          -51.4541521449        1.8758025475       -5.4183251726  MEMB      310             0.0000000000
     38544       310  PMPE      H13R          -50.3757542190        2.0613597733       -5.6105422385  MEMB      310             0.0000000000
     38545       310  PMPE      H13S          -51.5749882961        0.8425547956       -5.0283010463  MEMB      310             0.0000000000
     38546       310  PMPE      C214          -51.8622116996        2.7601534541       -4.2446223324  MEMB      310             0.0000000000
     38547       310  PMPE      H14R          -51.3873074244        2.4372396555       -3.2935630619  MEMB      310             0.0000000000
     38548       310  PMPE      H14S          -52.9295660440        2.6585237806       -3.9535084538  MEMB      310             0.0000000000
     38549       310  PMPE      C215          -51.5732033045        4.2582729956       -4.4782259159  MEMB      310             0.0000000000
     38550       310  PMPE      H15R          -52.1795306876        4.5468281999       -5.3633384198  MEMB      310             0.0000000000
     38551       310  PMPE      H15S          -50.5181917994        4.3382976718       -4.8171482645  MEMB      310             0.0000000000
     38552       310  PMPE      C216          -51.9334279533        5.2627339084       -3.4142793863  MEMB      310             0.0000000000
     38553       310  PMPE      H16R          -51.6117924509        6.2609858782       -3.7808371545  MEMB      310             0.0000000000
     38554       310  PMPE      H16S          -53.0147928378        5.1939539290       -3.1688418374  MEMB      310             0.0000000000
     38555       310  PMPE      H16T          -51.3265390634        5.1786140430       -2.4874955896  MEMB      310             0.0000000000
     38556       310  PMPE      C33           -48.2466007171       -0.0971698085      -13.3842311060  MEMB      310             0.0000000000
     38557       310  PMPE      H3X           -48.4925286724        0.5415183343      -12.5090639009  MEMB      310             0.0000000000
     38558       310  PMPE      H3Y           -48.0265118116        0.4853579630      -14.3043090643  MEMB      310             0.0000000000
     38559       310  PMPE      C34           -46.9848230001       -0.9573521035      -12.9590419041  MEMB      310             0.0000000000
     38560       310  PMPE      H4X           -46.6141102844       -1.6486740147      -13.7457863843  MEMB      310             0.0000000000
     38561       310  PMPE      H4Y           -47.2144305105       -1.4913507901      -12.0122328764  MEMB      310             0.0000000000
     38562       310  PMPE      C35           -45.7738870495       -0.0129348649      -12.6348843450  MEMB      310             0.0000000000
     38563       310  PMPE      H5X           -45.6819624568        0.7431537642      -13.4437112224  MEMB      310             0.0000000000
     38564       310  PMPE      H5Y           -44.8707339234       -0.6599498732      -12.6321879351  MEMB      310             0.0000000000
     38565       310  PMPE      C36           -45.9006052686        0.5463345916      -11.2311112711  MEMB      310             0.0000000000
     38566       310  PMPE      H6X           -46.6492267591       -0.0192607872      -10.6361414752  MEMB      310             0.0000000000
     38567       310  PMPE      H6Y           -46.2414340356        1.6007729220      -11.3105897142  MEMB      310             0.0000000000
     38568       310  PMPE      C37           -44.5523359320        0.5854386180      -10.5346332938  MEMB      310             0.0000000000
     38569       310  PMPE      H7X           -43.8678884406       -0.2378429686      -10.8313811220  MEMB      310             0.0000000000
     38570       310  PMPE      H7Y           -44.7155453674        0.4233011082       -9.4477125438  MEMB      310             0.0000000000
     38571       310  PMPE      C38           -43.8439529066        1.9090622252      -10.8391938001  MEMB      310             0.0000000000
     38572       310  PMPE      H8X           -44.3712311765        2.4096965414      -11.6792321505  MEMB      310             0.0000000000
     38573       310  PMPE      H8Y           -42.8338907036        1.6330168886      -11.2105345638  MEMB      310             0.0000000000
     38574       310  PMPE      C39           -43.5849875179        2.8212019434       -9.6007609600  MEMB      310             0.0000000000
     38575       310  PMPE      H9X           -42.7007724033        3.4739229483       -9.7633648287  MEMB      310             0.0000000000
     38576       310  PMPE      H9Y           -43.4078758438        2.3293867592       -8.6204192528  MEMB      310             0.0000000000
     38577       310  PMPE      C310          -44.6828883565        3.9023698177       -9.5574113413  MEMB      310             0.0000000000
     38578       310  PMPE      H10X          -45.7099136700        3.5190446663       -9.3768513379  MEMB      310             0.0000000000
     38579       310  PMPE      H10Y          -44.8666002857        4.3626616073      -10.5517469076  MEMB      310             0.0000000000
     38580       310  PMPE      C311          -44.4108635741        5.0913596737       -8.5781323033  MEMB      310             0.0000000000
     38581       310  PMPE      H11X          -45.0718145683        5.9036386016       -8.9491682713  MEMB      310             0.0000000000
     38582       310  PMPE      H11Y          -43.3610948233        5.4448408629       -8.6639105499  MEMB      310             0.0000000000
     38583       310  PMPE      C312          -44.9355478972        4.8126894923       -7.1724401588  MEMB      310             0.0000000000
     38584       310  PMPE      H12X          -44.2941677358        4.1009618447       -6.6099488959  MEMB      310             0.0000000000
     38585       310  PMPE      H12Y          -45.8299347758        4.1611385880       -7.2718110291  MEMB      310             0.0000000000
     38586       310  PMPE      C313          -45.2795084796        6.0464539437       -6.2825500990  MEMB      310             0.0000000000
     38587       310  PMPE      H13X          -45.6826809311        6.8697898448       -6.9101580743  MEMB      310             0.0000000000
     38588       310  PMPE      H13Y          -44.4336812972        6.4909983519       -5.7157367414  MEMB      310             0.0000000000
     38589       310  PMPE      C314          -46.3676994152        5.7000126225       -5.1504486593  MEMB      310             0.0000000000
     38590       310  PMPE      H14X          -47.1666845869        5.1152667150       -5.6544482565  MEMB      310             0.0000000000
     38591       310  PMPE      H14Y          -46.7022832186        6.6842234339       -4.7583974663  MEMB      310             0.0000000000
     38592       310  PMPE      C315          -45.6290712779        4.8850412874       -4.0352687625  MEMB      310             0.0000000000
     38593       310  PMPE      H15X          -44.9555002931        5.6838104720       -3.6576561479  MEMB      310             0.0000000000
     38594       310  PMPE      H15Y          -44.9607680136        4.1036400450       -4.4561053213  MEMB      310             0.0000000000
     38595       310  PMPE      C316          -46.6815162830        4.4013190157       -2.9791979373  MEMB      310             0.0000000000
     38596       310  PMPE      H16X          -47.2257943906        3.5591424809       -3.4575495768  MEMB      310             0.0000000000
     38597       310  PMPE      H16Y          -47.3925255466        5.1838397600       -2.6379526098  MEMB      310             0.0000000000
     38598       310  PMPE      H16Z          -46.0413369633        4.0409624288       -2.1457492463  MEMB      310             0.0000000000
     38599       311  POPE      N              49.2575433502       -4.9993190750      -19.4898063411  MEMB      311             0.0000000000
     38600       311  POPE      HN1            49.0924758839       -5.6719470014      -18.7139685068  MEMB      311             0.0000000000
     38601       311  POPE      HN2            49.8354727564       -5.3634830145      -20.2740144171  MEMB      311             0.0000000000
     38602       311  POPE      HN3            49.7761147799       -4.2218553332      -19.0334798027  MEMB      311             0.0000000000
     38603       311  POPE      C12            47.9029517033       -4.6380081871      -19.9880057238  MEMB      311             0.0000000000
     38604       311  POPE      H12A           48.0225655279       -3.7894632800      -20.6951019087  MEMB      311             0.0000000000
     38605       311  POPE      H12B           47.4369654860       -4.1130924893      -19.1268196930  MEMB      311             0.0000000000
     38606       311  POPE      C11            47.1070717964       -5.7648034277      -20.6264142235  MEMB      311             0.0000000000
     38607       311  POPE      H11A           47.7401899025       -6.0638087266      -21.4890138851  MEMB      311             0.0000000000
     38608       311  POPE      H11B           46.1135180642       -5.4061705485      -20.9707313851  MEMB      311             0.0000000000
     38609       311  POPE      P              46.1542447776       -6.8898507578      -18.3783354307  MEMB      311             0.0000000000
     38610       311  POPE      O13            45.9278019796       -8.2994403724      -17.9390746965  MEMB      311             0.0000000000
     38611       311  POPE      O14            44.9003238892       -6.1123606398      -18.5994873608  MEMB      311             0.0000000000
     38612       311  POPE      O11            47.0722806859       -6.0671641609      -17.2555243802  MEMB      311             0.0000000000
     38613       311  POPE      O12            47.0042551171       -6.8769364542      -19.7233518483  MEMB      311             0.0000000000
     38614       311  POPE      C1             47.9561109419       -6.7594680840      -16.3960521208  MEMB      311             0.0000000000
     38615       311  POPE      HA             48.8057975114       -6.0438911017      -16.3786363808  MEMB      311             0.0000000000
     38616       311  POPE      HB             48.4170544304       -7.6516449501      -16.8713128582  MEMB      311             0.0000000000
     38617       311  POPE      C2             47.3019811005       -7.0585099522      -14.9904752969  MEMB      311             0.0000000000
     38618       311  POPE      HS             46.6437675933       -7.9302607925      -15.1932723779  MEMB      311             0.0000000000
     38619       311  POPE      O21            46.4559166531       -5.9166797038      -14.6307263852  MEMB      311             0.0000000000
     38620       311  POPE      C21            45.3930793546       -6.0802286781      -13.9232236859  MEMB      311             0.0000000000
     38621       311  POPE      O22            44.9382284159       -7.1844028867      -13.5883441286  MEMB      311             0.0000000000
     38622       311  POPE      C22            45.0409409663       -4.7036248083      -13.4183591612  MEMB      311             0.0000000000
     38623       311  POPE      H2R            43.9608536589       -4.6160446567      -13.1732833210  MEMB      311             0.0000000000
     38624       311  POPE      H2S            45.0404508702       -3.9767004166      -14.2585386386  MEMB      311             0.0000000000
     38625       311  POPE      C3             48.3325541704       -7.3713907689      -13.8822126002  MEMB      311             0.0000000000
     38626       311  POPE      HX             49.1486508783       -8.0591957809      -14.1908082970  MEMB      311             0.0000000000
     38627       311  POPE      HY             47.8092378043       -7.7559451398      -12.9807811997  MEMB      311             0.0000000000
     38628       311  POPE      O31            48.8954534776       -6.1274322725      -13.4280545654  MEMB      311             0.0000000000
     38629       311  POPE      C31            50.1256166121       -5.8834238525      -13.5918190774  MEMB      311             0.0000000000
     38630       311  POPE      O32            51.0106648361       -6.6884797890      -13.9909470579  MEMB      311             0.0000000000
     38631       311  POPE      C32            50.4886236050       -4.4673972225      -13.1290070058  MEMB      311             0.0000000000
     38632       311  POPE      H2X            50.0235063475       -3.7612509916      -13.8496625093  MEMB      311             0.0000000000
     38633       311  POPE      H2Y            51.5904397488       -4.3546340912      -13.0417907882  MEMB      311             0.0000000000
     38634       311  POPE      C23            45.8779299203       -4.3724938946      -12.2098203138  MEMB      311             0.0000000000
     38635       311  POPE      H3R            46.9307706671       -4.4360229933      -12.5588349115  MEMB      311             0.0000000000
     38636       311  POPE      H3S            45.7186899733       -5.1401481525      -11.4226286954  MEMB      311             0.0000000000
     38637       311  POPE      C24            45.6928086586       -2.9260905203      -11.7277783522  MEMB      311             0.0000000000
     38638       311  POPE      H4R            44.9432141023       -2.3976532887      -12.3548212538  MEMB      311             0.0000000000
     38639       311  POPE      H4S            46.7090951596       -2.5191621169      -11.9172303516  MEMB      311             0.0000000000
     38640       311  POPE      C25            45.2432243977       -2.7383852643      -10.2326778822  MEMB      311             0.0000000000
     38641       311  POPE      H5R            44.2143276549       -3.1122420787      -10.0431429624  MEMB      311             0.0000000000
     38642       311  POPE      H5S            45.2995569769       -1.6426655608      -10.0579027349  MEMB      311             0.0000000000
     38643       311  POPE      C26            46.2560344099       -3.4749992904       -9.3315850786  MEMB      311             0.0000000000
     38644       311  POPE      H6R            47.2828306251       -3.1523701910       -9.6071225601  MEMB      311             0.0000000000
     38645       311  POPE      H6S            46.0755680620       -4.5684817993       -9.4093590561  MEMB      311             0.0000000000
     38646       311  POPE      C27            45.9372275265       -3.2063592982       -7.8074492224  MEMB      311             0.0000000000
     38647       311  POPE      H7R            44.8363655110       -3.3255911210       -7.7168541390  MEMB      311             0.0000000000
     38648       311  POPE      H7S            46.2163782870       -2.1413538027       -7.6585907091  MEMB      311             0.0000000000
     38649       311  POPE      C28            46.8831624006       -4.0514049391       -6.9232170289  MEMB      311             0.0000000000
     38650       311  POPE      H8R            46.6455605721       -3.9291360040       -5.8448306696  MEMB      311             0.0000000000
     38651       311  POPE      H8S            47.8951063099       -3.6247248656       -7.0912486351  MEMB      311             0.0000000000
     38652       311  POPE      C29            46.8304156725       -5.5622751581       -7.2414305130  MEMB      311             0.0000000000
     38653       311  POPE      H91            47.4519049167       -5.7562301116       -8.1280720437  MEMB      311             0.0000000000
     38654       311  POPE      C210           46.1950706864       -6.5627010521       -6.6208938234  MEMB      311             0.0000000000
     38655       311  POPE      H101           46.3261892646       -7.6095537234       -6.9321925600  MEMB      311             0.0000000000
     38656       311  POPE      C211           45.3917645984       -6.3061676208       -5.3668475509  MEMB      311             0.0000000000
     38657       311  POPE      H11R           44.3966290027       -6.7971532608       -5.4212467054  MEMB      311             0.0000000000
     38658       311  POPE      H11S           45.0660190766       -5.2442169088       -5.3451284915  MEMB      311             0.0000000000
     38659       311  POPE      C212           46.1033753498       -6.6903825333       -4.0427616173  MEMB      311             0.0000000000
     38660       311  POPE      H12R           46.1959422109       -7.7953485964       -4.1120637402  MEMB      311             0.0000000000
     38661       311  POPE      H12S           45.4504433736       -6.5299814598       -3.1583005227  MEMB      311             0.0000000000
     38662       311  POPE      C213           47.4865455931       -6.0715379266       -3.9114576199  MEMB      311             0.0000000000
     38663       311  POPE      H13R           47.3414007776       -5.0013383551       -4.1720852421  MEMB      311             0.0000000000
     38664       311  POPE      H13S           48.1215555240       -6.5650841022       -4.6779401663  MEMB      311             0.0000000000
     38665       311  POPE      C214           48.2597736047       -6.3305162776       -2.6410011817  MEMB      311             0.0000000000
     38666       311  POPE      H14R           49.2097144032       -5.7572102124       -2.5839604782  MEMB      311             0.0000000000
     38667       311  POPE      H14S           48.6226016353       -7.3730346154       -2.5151766840  MEMB      311             0.0000000000
     38668       311  POPE      C215           47.5321843610       -5.8680247565       -1.4000408934  MEMB      311             0.0000000000
     38669       311  POPE      H15R           46.5783070642       -6.3486099897       -1.0943005414  MEMB      311             0.0000000000
     38670       311  POPE      H15S           47.4048937096       -4.7665087232       -1.4691817963  MEMB      311             0.0000000000
     38671       311  POPE      C216           48.3785557116       -6.3607122321       -0.2058448177  MEMB      311             0.0000000000
     38672       311  POPE      H16R           49.2957172316       -5.7337082304       -0.2072299368  MEMB      311             0.0000000000
     38673       311  POPE      H16S           48.7947800205       -7.3410495417       -0.5220993183  MEMB      311             0.0000000000
     38674       311  POPE      C217           47.7360678157       -6.3966131178        1.1662089783  MEMB      311             0.0000000000
     38675       311  POPE      H17R           48.5228210387       -6.6051351432        1.9224214213  MEMB      311             0.0000000000
     38676       311  POPE      H17S           47.0061048977       -7.2294709867        1.2546559785  MEMB      311             0.0000000000
     38677       311  POPE      C218           47.1875181824       -5.0707235205        1.6311406158  MEMB      311             0.0000000000
     38678       311  POPE      H18R           46.1748740888       -4.8471749340        1.2325187572  MEMB      311             0.0000000000
     38679       311  POPE      H18S           47.7792985554       -4.1974136104        1.2826477153  MEMB      311             0.0000000000
     38680       311  POPE      H18T           47.2631026150       -5.0152499549        2.7381765187  MEMB      311             0.0000000000
     38681       311  POPE      C33            49.9963170081       -4.2533391035      -11.6542927440  MEMB      311             0.0000000000
     38682       311  POPE      H3X            50.6302750182       -4.8957578748      -11.0064376099  MEMB      311             0.0000000000
     38683       311  POPE      H3Y            49.0073153809       -4.7587840760      -11.6274247470  MEMB      311             0.0000000000
     38684       311  POPE      C34            49.9163115624       -2.7852372586      -11.2332152238  MEMB      311             0.0000000000
     38685       311  POPE      H4X            48.9029513649       -2.6400906769      -10.8015265320  MEMB      311             0.0000000000
     38686       311  POPE      H4Y            49.8602637692       -2.1464629324      -12.1404894218  MEMB      311             0.0000000000
     38687       311  POPE      C35            51.0476414220       -2.1709707961      -10.3128115749  MEMB      311             0.0000000000
     38688       311  POPE      H5X            50.7000527065       -1.1247780503      -10.1750287901  MEMB      311             0.0000000000
     38689       311  POPE      H5Y            51.9726102077       -1.9841399016      -10.8991969596  MEMB      311             0.0000000000
     38690       311  POPE      C36            51.2009853237       -2.8948289811       -8.8895053272  MEMB      311             0.0000000000
     38691       311  POPE      H6X            51.3941521011       -3.9733992233       -9.0730635281  MEMB      311             0.0000000000
     38692       311  POPE      H6Y            50.1654758848       -2.7780145579       -8.5042833615  MEMB      311             0.0000000000
     38693       311  POPE      C37            52.2266529437       -2.4034669538       -7.8196169312  MEMB      311             0.0000000000
     38694       311  POPE      H7X            52.1771206744       -1.3144737794       -7.6052310130  MEMB      311             0.0000000000
     38695       311  POPE      H7Y            53.2058215821       -2.5377081895       -8.3270895449  MEMB      311             0.0000000000
     38696       311  POPE      C38            52.2533432525       -3.2463016929       -6.5527705842  MEMB      311             0.0000000000
     38697       311  POPE      H8X            52.9661807691       -2.8340134761       -5.8069802760  MEMB      311             0.0000000000
     38698       311  POPE      H8Y            52.3737170288       -4.3378574229       -6.7211066420  MEMB      311             0.0000000000
     38699       311  POPE      C39            50.9619096376       -3.0737850167       -5.6663353548  MEMB      311             0.0000000000
     38700       311  POPE      H9X            51.0268037634       -3.7337178413       -4.7749327928  MEMB      311             0.0000000000
     38701       311  POPE      H9Y            50.0991413670       -3.2652364502       -6.3396090978  MEMB      311             0.0000000000
     38702       311  POPE      C310           50.7552506501       -1.7171833918       -5.0175315133  MEMB      311             0.0000000000
     38703       311  POPE      H10X           50.8595079517       -0.9560714867       -5.8201279607  MEMB      311             0.0000000000
     38704       311  POPE      H10Y           51.5692384784       -1.4781564791       -4.3001679022  MEMB      311             0.0000000000
     38705       311  POPE      C311           49.2955444582       -1.5887736805       -4.4950828759  MEMB      311             0.0000000000
     38706       311  POPE      H11X           48.6567162772       -2.0700439929       -5.2661855986  MEMB      311             0.0000000000
     38707       311  POPE      H11Y           48.9575422485       -0.5311314931       -4.4567658847  MEMB      311             0.0000000000
     38708       311  POPE      C312           49.0804746956       -2.1980914196       -3.1019571562  MEMB      311             0.0000000000
     38709       311  POPE      H12X           49.9173064272       -1.9846472303       -2.4030463076  MEMB      311             0.0000000000
     38710       311  POPE      H12Y           49.0973136156       -3.3086528812       -3.1282289801  MEMB      311             0.0000000000
     38711       311  POPE      C313           47.8615673790       -1.7433107557       -2.2594480434  MEMB      311             0.0000000000
     38712       311  POPE      H13X           47.9809357071       -0.6645152613       -2.0222319330  MEMB      311             0.0000000000
     38713       311  POPE      H13Y           47.9042689839       -2.1917917532       -1.2438889955  MEMB      311             0.0000000000
     38714       311  POPE      C314           46.5264913303       -2.0045407376       -2.9566379259  MEMB      311             0.0000000000
     38715       311  POPE      H14X           46.2493970262       -3.0801246770       -2.9309649188  MEMB      311             0.0000000000
     38716       311  POPE      H14Y           46.5147916394       -1.7035540022       -4.0260263639  MEMB      311             0.0000000000
     38717       311  POPE      C315           45.2995175878       -1.2120205958       -2.4687810445  MEMB      311             0.0000000000
     38718       311  POPE      H15X           44.8462481727       -1.3562553835       -1.4647569732  MEMB      311             0.0000000000
     38719       311  POPE      H15Y           44.4368273091       -1.4734947934       -3.1181787427  MEMB      311             0.0000000000
     38720       311  POPE      C316           45.3324389142        0.2987898995       -2.5523145342  MEMB      311             0.0000000000
     38721       311  POPE      H16X           44.2899660284        0.6591487385       -2.4192249330  MEMB      311             0.0000000000
     38722       311  POPE      H16Y           45.7398386803        0.6556675327       -3.5223585784  MEMB      311             0.0000000000
     38723       311  POPE      H16Z           45.9081988658        0.7773784384       -1.7314778736  MEMB      311             0.0000000000
     38724       312  PMPE      N             -29.9657478116       35.5641592285      -19.4735817634  MEMB      312             0.0000000000
     38725       312  PMPE      HN1           -30.7617067160       35.9601298899      -20.0132640110  MEMB      312             0.0000000000
     38726       312  PMPE      HN2           -29.9231803585       36.0835947168      -18.5735957943  MEMB      312             0.0000000000
     38727       312  PMPE      HN3           -29.0695493982       35.6318823861      -19.9968806009  MEMB      312             0.0000000000
     38728       312  PMPE      C12           -30.1733057818       34.1327010518      -19.0659857317  MEMB      312             0.0000000000
     38729       312  PMPE      H12A          -29.3109995423       33.9397316343      -18.3925528945  MEMB      312             0.0000000000
     38730       312  PMPE      H12B          -30.1632370885       33.5316346143      -20.0002976444  MEMB      312             0.0000000000
     38731       312  PMPE      C11           -31.5770725930       33.9829669371      -18.3156601525  MEMB      312             0.0000000000
     38732       312  PMPE      H11A          -31.6701540701       34.6212356867      -17.4110775076  MEMB      312             0.0000000000
     38733       312  PMPE      H11B          -31.5881456688       32.9124637862      -18.0186392741  MEMB      312             0.0000000000
     38734       312  PMPE      P             -34.0008898444       33.3282780414      -19.0738157308  MEMB      312             0.0000000000
     38735       312  PMPE      O13           -33.5234840849       32.0340237453      -19.5973670573  MEMB      312             0.0000000000
     38736       312  PMPE      O14           -35.1624860686       33.9062140565      -19.8228130999  MEMB      312             0.0000000000
     38737       312  PMPE      O11           -34.4133961610       33.2306870927      -17.5417260055  MEMB      312             0.0000000000
     38738       312  PMPE      O12           -32.6845000549       34.2487530473      -19.1090504609  MEMB      312             0.0000000000
     38739       312  PMPE      C1            -34.5595127232       34.4743254768      -16.8288046465  MEMB      312             0.0000000000
     38740       312  PMPE      HA            -35.2498561815       35.1948689425      -17.3172351944  MEMB      312             0.0000000000
     38741       312  PMPE      HB            -33.5746854964       34.9884546989      -16.8184357197  MEMB      312             0.0000000000
     38742       312  PMPE      C2            -35.0491545914       34.2985833821      -15.4244365127  MEMB      312             0.0000000000
     38743       312  PMPE      HS            -34.9987901022       35.2720768454      -14.8914307606  MEMB      312             0.0000000000
     38744       312  PMPE      O21           -34.3759457804       33.1925326657      -14.7735643194  MEMB      312             0.0000000000
     38745       312  PMPE      C21           -33.0326848927       33.4045924587      -14.4827698789  MEMB      312             0.0000000000
     38746       312  PMPE      O22           -32.4652922174       34.4429315396      -14.7072261583  MEMB      312             0.0000000000
     38747       312  PMPE      C22           -32.4579576899       32.1232848989      -13.9759881390  MEMB      312             0.0000000000
     38748       312  PMPE      H2R           -32.1385113475       31.4157805733      -14.7707914832  MEMB      312             0.0000000000
     38749       312  PMPE      H2S           -33.2866669300       31.5438078109      -13.5158053487  MEMB      312             0.0000000000
     38750       312  PMPE      C3            -36.5474974511       33.9187228912      -15.4416206394  MEMB      312             0.0000000000
     38751       312  PMPE      HX            -36.6281928404       33.0805260161      -16.1663518243  MEMB      312             0.0000000000
     38752       312  PMPE      HY            -37.2004907630       34.6944743266      -15.8956369600  MEMB      312             0.0000000000
     38753       312  PMPE      O31           -36.9687068338       33.5537362740      -14.1519926773  MEMB      312             0.0000000000
     38754       312  PMPE      C31           -37.3658139400       34.5193912624      -13.3193387064  MEMB      312             0.0000000000
     38755       312  PMPE      O32           -37.3843416095       35.7078299356      -13.5409938988  MEMB      312             0.0000000000
     38756       312  PMPE      C32           -37.5687882208       33.8208981077      -12.0064215010  MEMB      312             0.0000000000
     38757       312  PMPE      H2X           -37.6268045160       32.7336381860      -12.2273759187  MEMB      312             0.0000000000
     38758       312  PMPE      H2Y           -38.5771214168       34.1402298590      -11.6664033679  MEMB      312             0.0000000000
     38759       312  PMPE      C23           -31.2092845690       32.3982608210      -13.1611596340  MEMB      312             0.0000000000
     38760       312  PMPE      H3R           -30.4057441298       32.8060957767      -13.8110166992  MEMB      312             0.0000000000
     38761       312  PMPE      H3S           -30.7997123204       31.4381768970      -12.7806202359  MEMB      312             0.0000000000
     38762       312  PMPE      C24           -31.2030312744       33.3811553008      -11.9018238876  MEMB      312             0.0000000000
     38763       312  PMPE      H4R           -32.0847409143       33.2786465775      -11.2336909885  MEMB      312             0.0000000000
     38764       312  PMPE      H4S           -31.3017403705       34.3841898907      -12.3692624139  MEMB      312             0.0000000000
     38765       312  PMPE      C25           -29.9446322470       33.2788695275      -10.9485577248  MEMB      312             0.0000000000
     38766       312  PMPE      H5R           -29.1852030295       33.9285294140      -11.4338730723  MEMB      312             0.0000000000
     38767       312  PMPE      H5S           -29.6630934632       32.2162386052      -10.7877080602  MEMB      312             0.0000000000
     38768       312  PMPE      C26           -30.2079948849       33.7897446894       -9.5819710872  MEMB      312             0.0000000000
     38769       312  PMPE      H6R           -30.9433663292       33.1028057037       -9.1111579885  MEMB      312             0.0000000000
     38770       312  PMPE      H6S           -30.3691190957       34.8889971802       -9.5839683622  MEMB      312             0.0000000000
     38771       312  PMPE      C27           -29.0123304964       33.6935403148       -8.5950313028  MEMB      312             0.0000000000
     38772       312  PMPE      H7R           -28.2430655791       34.4540451592       -8.8483776889  MEMB      312             0.0000000000
     38773       312  PMPE      H7S           -28.4680019828       32.7572568605       -8.8428232872  MEMB      312             0.0000000000
     38774       312  PMPE      C28           -29.2298449096       33.6795849466       -7.0659287309  MEMB      312             0.0000000000
     38775       312  PMPE      H8R           -28.1545443077       33.8240795957       -6.8268239723  MEMB      312             0.0000000000
     38776       312  PMPE      H8S           -29.5209980124       32.6498674494       -6.7672099359  MEMB      312             0.0000000000
     38777       312  PMPE      C29           -30.0602426039       34.9036721738       -6.5975803851  MEMB      312             0.0000000000
     38778       312  PMPE      H9R           -31.1043806390       34.7292097329       -6.9347146255  MEMB      312             0.0000000000
     38779       312  PMPE      C217          -29.4492777242       36.1931731343       -6.9354615631  MEMB      312             0.0000000000
     38780       312  PMPE      H17R          -30.1504230502       36.8846902261       -7.3861140433  MEMB      312             0.0000000000
     38781       312  PMPE      H17S          -28.3804872237       36.2121572651       -7.1092881951  MEMB      312             0.0000000000
     38782       312  PMPE      C210          -29.7481844974       35.8078030020       -5.4277813014  MEMB      312             0.0000000000
     38783       312  PMPE      H10R          -30.6015755638       36.3634875949       -4.9836415188  MEMB      312             0.0000000000
     38784       312  PMPE      C211          -28.6424871141       35.2976036695       -4.5314880347  MEMB      312             0.0000000000
     38785       312  PMPE      H11R          -28.4856534448       36.1162041272       -3.7969017803  MEMB      312             0.0000000000
     38786       312  PMPE      H11S          -27.6986741041       35.1189005150       -5.0897024612  MEMB      312             0.0000000000
     38787       312  PMPE      C212          -29.0604687365       34.0136968225       -3.7075660509  MEMB      312             0.0000000000
     38788       312  PMPE      H12R          -28.1445784470       33.3851190482       -3.6886984111  MEMB      312             0.0000000000
     38789       312  PMPE      H12S          -29.8180766133       33.3845611903       -4.2219001839  MEMB      312             0.0000000000
     38790       312  PMPE      C213          -29.5337478324       34.3976458041       -2.3489197449  MEMB      312             0.0000000000
     38791       312  PMPE      H13R          -30.5584953254       34.8264919880       -2.3663761094  MEMB      312             0.0000000000
     38792       312  PMPE      H13S          -28.8814607801       35.1813127974       -1.9076612392  MEMB      312             0.0000000000
     38793       312  PMPE      C214          -29.8047102563       33.1431660545       -1.4874972675  MEMB      312             0.0000000000
     38794       312  PMPE      H14R          -29.0124307620       32.3730053631       -1.6035437853  MEMB      312             0.0000000000
     38795       312  PMPE      H14S          -30.8254220190       32.7640187527       -1.7082147428  MEMB      312             0.0000000000
     38796       312  PMPE      C215          -29.7389333455       33.5724479536        0.0296434528  MEMB      312             0.0000000000
     38797       312  PMPE      H15R          -30.6490775222       34.1647300554        0.2645050010  MEMB      312             0.0000000000
     38798       312  PMPE      H15S          -28.7818369974       34.0094550611        0.3864518861  MEMB      312             0.0000000000
     38799       312  PMPE      C216          -29.8683106505       32.3192231174        0.9194375135  MEMB      312             0.0000000000
     38800       312  PMPE      H16R          -29.0443556345       31.6183153369        0.6661628370  MEMB      312             0.0000000000
     38801       312  PMPE      H16S          -29.7869311875       32.4833718853        2.0152261953  MEMB      312             0.0000000000
     38802       312  PMPE      H16T          -30.8475481055       31.8046851002        0.8161646135  MEMB      312             0.0000000000
     38803       312  PMPE      C33           -36.4110781380       34.2798608529      -11.1031440566  MEMB      312             0.0000000000
     38804       312  PMPE      H3X           -36.6614225120       34.0304544467      -10.0498421433  MEMB      312             0.0000000000
     38805       312  PMPE      H3Y           -36.3786645702       35.3816707069      -10.9642715943  MEMB      312             0.0000000000
     38806       312  PMPE      C34           -35.0456161827       33.5933202657      -11.2341131173  MEMB      312             0.0000000000
     38807       312  PMPE      H4X           -34.2432815093       34.2869136429      -10.9031929693  MEMB      312             0.0000000000
     38808       312  PMPE      H4Y           -34.8462986375       33.4506515808      -12.3177364392  MEMB      312             0.0000000000
     38809       312  PMPE      C35           -34.9732795736       32.2622816975      -10.6454050190  MEMB      312             0.0000000000
     38810       312  PMPE      H5X           -34.3394342188       31.5065332168      -11.1566828397  MEMB      312             0.0000000000
     38811       312  PMPE      H5Y           -35.9280418740       31.7137867651      -10.7934026615  MEMB      312             0.0000000000
     38812       312  PMPE      C36           -34.5052243851       32.3895084167       -9.1812620357  MEMB      312             0.0000000000
     38813       312  PMPE      H6X           -35.2681512269       32.9433732910       -8.5934710238  MEMB      312             0.0000000000
     38814       312  PMPE      H6Y           -33.5549062471       32.9576214992       -9.0892613882  MEMB      312             0.0000000000
     38815       312  PMPE      C37           -34.2285968576       30.9911064345       -8.5514714656  MEMB      312             0.0000000000
     38816       312  PMPE      H7X           -33.5862445605       30.3530972077       -9.1954037112  MEMB      312             0.0000000000
     38817       312  PMPE      H7Y           -35.2038397615       30.4636779787       -8.4804658402  MEMB      312             0.0000000000
     38818       312  PMPE      C38           -33.7173245339       30.8873683455       -7.0432106788  MEMB      312             0.0000000000
     38819       312  PMPE      H8X           -33.6997710118       29.8061682022       -6.7882228594  MEMB      312             0.0000000000
     38820       312  PMPE      H8Y           -34.3751463281       31.5073395952       -6.3972801525  MEMB      312             0.0000000000
     38821       312  PMPE      C39           -32.2861161299       31.4403768401       -6.9134921201  MEMB      312             0.0000000000
     38822       312  PMPE      H9X           -32.2125245077       32.5457620096       -6.9973302789  MEMB      312             0.0000000000
     38823       312  PMPE      H9Y           -31.6391861978       30.9382945473       -7.6643020441  MEMB      312             0.0000000000
     38824       312  PMPE      C310          -31.7136076443       31.1036403165       -5.5825198673  MEMB      312             0.0000000000
     38825       312  PMPE      H10X          -30.7130325368       31.5839240627       -5.5325384537  MEMB      312             0.0000000000
     38826       312  PMPE      H10Y          -31.5919393192       30.0134651028       -5.4063479545  MEMB      312             0.0000000000
     38827       312  PMPE      C311          -32.5375023503       31.7300192188       -4.3325544667  MEMB      312             0.0000000000
     38828       312  PMPE      H11X          -31.9492522315       31.3565553847       -3.4672176553  MEMB      312             0.0000000000
     38829       312  PMPE      H11Y          -33.5073951315       31.1961830575       -4.2395592994  MEMB      312             0.0000000000
     38830       312  PMPE      C312          -32.7104188814       33.2657235466       -4.2909786422  MEMB      312             0.0000000000
     38831       312  PMPE      H12X          -32.8090691259       33.6100382448       -5.3426612728  MEMB      312             0.0000000000
     38832       312  PMPE      H12Y          -31.8414336526       33.8824225280       -3.9765461165  MEMB      312             0.0000000000
     38833       312  PMPE      C313          -33.8840430646       33.8397764379       -3.4137738564  MEMB      312             0.0000000000
     38834       312  PMPE      H13X          -34.8264619073       33.6022581993       -3.9520610667  MEMB      312             0.0000000000
     38835       312  PMPE      H13Y          -33.6989010042       34.9336209879       -3.3542123602  MEMB      312             0.0000000000
     38836       312  PMPE      C314          -34.0847745538       33.1526375340       -2.0652240387  MEMB      312             0.0000000000
     38837       312  PMPE      H14X          -33.3304682276       33.4779366870       -1.3172106953  MEMB      312             0.0000000000
     38838       312  PMPE      H14Y          -33.9443499097       32.0527702349       -2.1351801726  MEMB      312             0.0000000000
     38839       312  PMPE      C315          -35.4931666709       33.4802015484       -1.5384410193  MEMB      312             0.0000000000
     38840       312  PMPE      H15X          -35.7892928610       32.6806033595       -0.8262106057  MEMB      312             0.0000000000
     38841       312  PMPE      H15Y          -36.2805816021       33.4898091060       -2.3221545403  MEMB      312             0.0000000000
     38842       312  PMPE      C316          -35.5482622197       34.8102093362       -0.7669058254  MEMB      312             0.0000000000
     38843       312  PMPE      H16X          -36.5900937003       34.9299970665       -0.4000819868  MEMB      312             0.0000000000
     38844       312  PMPE      H16Y          -35.4693215476       35.6289879103       -1.5136926546  MEMB      312             0.0000000000
     38845       312  PMPE      H16Z          -34.7901513086       34.9365343495        0.0353601634  MEMB      312             0.0000000000
     38846       313  QMPE      N             -43.4720047337      -11.4059102493      -20.8122474003  MEMB      313             0.0000000000
     38847       313  QMPE      HN1           -43.0502906999      -12.3231959017      -21.0619360955  MEMB      313             0.0000000000
     38848       313  QMPE      HN2           -44.2091625973      -11.1758510524      -21.5088612613  MEMB      313             0.0000000000
     38849       313  QMPE      HN3           -42.6311951541      -10.8039627992      -20.9231466100  MEMB      313             0.0000000000
     38850       313  QMPE      C12           -43.9404478619      -11.4436981785      -19.3930913728  MEMB      313             0.0000000000
     38851       313  QMPE      H12A          -43.8354995902      -10.4480709028      -18.9113931680  MEMB      313             0.0000000000
     38852       313  QMPE      H12B          -43.2468546482      -12.0818322177      -18.8048445851  MEMB      313             0.0000000000
     38853       313  QMPE      C11           -45.4179121354      -11.9693864908      -19.3415151108  MEMB      313             0.0000000000
     38854       313  QMPE      H11A          -46.0462342045      -11.6292725670      -20.1923117805  MEMB      313             0.0000000000
     38855       313  QMPE      H11B          -45.9206983136      -11.6064483100      -18.4196675670  MEMB      313             0.0000000000
     38856       313  QMPE      P             -46.0182808738      -14.3435700258      -18.4857908593  MEMB      313             0.0000000000
     38857       313  QMPE      O13           -46.1678884990      -15.6325502427      -19.2110749424  MEMB      313             0.0000000000
     38858       313  QMPE      O14           -47.2852526274      -13.8832392986      -17.8594463317  MEMB      313             0.0000000000
     38859       313  QMPE      O11           -44.8643774224      -14.3764071931      -17.3486096814  MEMB      313             0.0000000000
     38860       313  QMPE      O12           -45.3633077974      -13.3715223582      -19.5482243002  MEMB      313             0.0000000000
     38861       313  QMPE      C1            -43.7431586246      -15.2282423106      -17.4246873626  MEMB      313             0.0000000000
     38862       313  QMPE      HA            -42.8224342451      -14.6688092023      -17.6960211694  MEMB      313             0.0000000000
     38863       313  QMPE      HB            -43.8465730546      -16.0339909013      -18.1825762950  MEMB      313             0.0000000000
     38864       313  QMPE      C2            -43.4446945676      -15.8178977997      -16.0783091601  MEMB      313             0.0000000000
     38865       313  QMPE      HS            -42.7468470847      -16.6823642010      -16.0836064214  MEMB      313             0.0000000000
     38866       313  QMPE      O21           -44.5759765350      -16.2792668306      -15.2935558956  MEMB      313             0.0000000000
     38867       313  QMPE      C21           -45.1771051964      -17.3354156181      -15.8461387193  MEMB      313             0.0000000000
     38868       313  QMPE      O22           -44.6734757663      -17.9512198474      -16.7131632790  MEMB      313             0.0000000000
     38869       313  QMPE      C22           -46.2960285926      -17.9051093986      -14.8621399052  MEMB      313             0.0000000000
     38870       313  QMPE      H2R           -46.5207865625      -18.9020327382      -15.2979711337  MEMB      313             0.0000000000
     38871       313  QMPE      H2S           -47.1791115264      -17.2355575646      -14.7834911859  MEMB      313             0.0000000000
     38872       313  QMPE      C3            -42.6823123148      -14.7956908035      -15.1348835749  MEMB      313             0.0000000000
     38873       313  QMPE      HX            -43.2755650170      -13.8614010502      -15.2322240476  MEMB      313             0.0000000000
     38874       313  QMPE      HY            -41.6862576968      -14.6492670622      -15.6047305871  MEMB      313             0.0000000000
     38875       313  QMPE      O31           -42.5495208385      -15.2865094773      -13.7613357968  MEMB      313             0.0000000000
     38876       313  QMPE      C31           -42.5029002662      -14.2759652014      -12.9163887455  MEMB      313             0.0000000000
     38877       313  QMPE      O32           -42.7517513534      -13.1141438566      -13.1676329092  MEMB      313             0.0000000000
     38878       313  QMPE      C32           -41.9546066515      -14.8514895240      -11.4995202521  MEMB      313             0.0000000000
     38879       313  QMPE      H2X           -42.7526100984      -15.5522312280      -11.1732189800  MEMB      313             0.0000000000
     38880       313  QMPE      H2Y           -40.9674872983      -15.3459812787      -11.6235937959  MEMB      313             0.0000000000
     38881       313  QMPE      C23           -45.7559164487      -18.2241773649      -13.4350864487  MEMB      313             0.0000000000
     38882       313  QMPE      H3R           -44.7192219098      -17.8320932767      -13.3585648554  MEMB      313             0.0000000000
     38883       313  QMPE      H3S           -45.7740470497      -19.3159847514      -13.2302716853  MEMB      313             0.0000000000
     38884       313  QMPE      C24           -46.5979690598      -17.6121172698      -12.2361848901  MEMB      313             0.0000000000
     38885       313  QMPE      H4R           -47.6355940389      -17.9550772850      -12.4362697643  MEMB      313             0.0000000000
     38886       313  QMPE      H4S           -46.4234676325      -16.5206824295      -12.3486142093  MEMB      313             0.0000000000
     38887       313  QMPE      C25           -46.2511606982      -18.1349596671      -10.8067978466  MEMB      313             0.0000000000
     38888       313  QMPE      H5R           -45.1518267073      -18.0333528301      -10.6824523654  MEMB      313             0.0000000000
     38889       313  QMPE      H5S           -46.5458665456      -19.2052624448      -10.8506318943  MEMB      313             0.0000000000
     38890       313  QMPE      C26           -47.0469228780      -17.3792295103       -9.7485490215  MEMB      313             0.0000000000
     38891       313  QMPE      H6R           -46.7506342255      -17.6043511967       -8.7017177173  MEMB      313             0.0000000000
     38892       313  QMPE      H6S           -48.1399827268      -17.5761503615       -9.7761740803  MEMB      313             0.0000000000
     38893       313  QMPE      C27           -46.8393179017      -15.8540304890       -9.8244864979  MEMB      313             0.0000000000
     38894       313  QMPE      H7R           -47.3584195669      -15.5520343711      -10.7591802820  MEMB      313             0.0000000000
     38895       313  QMPE      H7S           -45.7759424961      -15.5616642857       -9.9589324589  MEMB      313             0.0000000000
     38896       313  QMPE      C28           -47.3120164351      -15.1427954424       -8.4878491153  MEMB      313             0.0000000000
     38897       313  QMPE      H8R           -47.2282793450      -14.0431695396       -8.6225040836  MEMB      313             0.0000000000
     38898       313  QMPE      H8S           -46.6146550750      -15.4662187403       -7.6857238240  MEMB      313             0.0000000000
     38899       313  QMPE      C29           -48.7289864332      -15.5738818773       -8.0545178422  MEMB      313             0.0000000000
     38900       313  QMPE      H9R           -48.8836500620      -16.6548269207       -7.8496824823  MEMB      313             0.0000000000
     38901       313  QMPE      C217          -49.9612472012      -14.7968309889       -8.6383853458  MEMB      313             0.0000000000
     38902       313  QMPE      H17R          -49.7964655686      -13.9878079089       -9.3392550503  MEMB      313             0.0000000000
     38903       313  QMPE      H17S          -50.8825157873      -15.3660534464       -8.6265898465  MEMB      313             0.0000000000
     38904       313  QMPE      C210          -49.5689986061      -14.7032196654       -7.1803130583  MEMB      313             0.0000000000
     38905       313  QMPE      H10R          -50.2376636166      -15.1963645297       -6.4427381192  MEMB      313             0.0000000000
     38906       313  QMPE      C211          -49.1550427682      -13.3288760130       -6.7781897265  MEMB      313             0.0000000000
     38907       313  QMPE      H11R          -48.8638398543      -12.6678318472       -7.6223117831  MEMB      313             0.0000000000
     38908       313  QMPE      H11S          -50.0547598130      -12.8119152162       -6.3812240999  MEMB      313             0.0000000000
     38909       313  QMPE      C212          -48.1878797485      -13.3860288989       -5.5254259897  MEMB      313             0.0000000000
     38910       313  QMPE      H12R          -47.8808107805      -12.3236977532       -5.4182721796  MEMB      313             0.0000000000
     38911       313  QMPE      H12S          -47.2406718933      -13.9277961842       -5.7342472707  MEMB      313             0.0000000000
     38912       313  QMPE      C213          -48.9405557505      -13.9887714256       -4.3664750534  MEMB      313             0.0000000000
     38913       313  QMPE      H13R          -48.4559760376      -14.9854035004       -4.2875573723  MEMB      313             0.0000000000
     38914       313  QMPE      H13S          -50.0148852753      -14.1730471708       -4.5813697740  MEMB      313             0.0000000000
     38915       313  QMPE      C214          -48.9657534715      -13.1488058271       -3.0868146619  MEMB      313             0.0000000000
     38916       313  QMPE      H14R          -47.9494969136      -12.8212038870       -2.7798608041  MEMB      313             0.0000000000
     38917       313  QMPE      H14S          -49.3543572397      -13.7728028294       -2.2537863333  MEMB      313             0.0000000000
     38918       313  QMPE      C215          -49.8917611343      -11.9473388296       -3.2342161628  MEMB      313             0.0000000000
     38919       313  QMPE      H15R          -50.9291832587      -12.2133246025       -3.5297298601  MEMB      313             0.0000000000
     38920       313  QMPE      H15S          -49.3595437976      -11.3308740782       -3.9898853616  MEMB      313             0.0000000000
     38921       313  QMPE      C216          -49.9111098320      -10.9519868794       -2.1238482417  MEMB      313             0.0000000000
     38922       313  QMPE      H16R          -48.9102129795      -10.4723884919       -2.0737279498  MEMB      313             0.0000000000
     38923       313  QMPE      H16S          -50.2053773334      -11.5292866590       -1.2213774704  MEMB      313             0.0000000000
     38924       313  QMPE      H16T          -50.7491936604      -10.2319697697       -2.2400875899  MEMB      313             0.0000000000
     38925       313  QMPE      C33           -41.5513598519      -13.6643749949      -10.5968891773  MEMB      313             0.0000000000
     38926       313  QMPE      H3X           -42.4813746550      -13.1690095409      -10.2447437075  MEMB      313             0.0000000000
     38927       313  QMPE      H3Y           -41.0695105453      -12.8854717410      -11.2257384586  MEMB      313             0.0000000000
     38928       313  QMPE      C34           -40.5298961431      -13.9684718941       -9.4807472887  MEMB      313             0.0000000000
     38929       313  QMPE      H4X           -40.2634203923      -13.0900693999       -8.8548708944  MEMB      313             0.0000000000
     38930       313  QMPE      H4Y           -39.6702031477      -14.4538469068       -9.9903155250  MEMB      313             0.0000000000
     38931       313  QMPE      C35           -41.0982189490      -14.9745836045       -8.5311487537  MEMB      313             0.0000000000
     38932       313  QMPE      H5X           -40.2591027843      -15.2354838201       -7.8513428702  MEMB      313             0.0000000000
     38933       313  QMPE      H5Y           -41.3215139547      -15.9427252905       -9.0283020512  MEMB      313             0.0000000000
     38934       313  QMPE      C36           -42.2492071838      -14.4426449871       -7.6931208285  MEMB      313             0.0000000000
     38935       313  QMPE      H6X           -42.9479048807      -13.9199004397       -8.3807846010  MEMB      313             0.0000000000
     38936       313  QMPE      H6Y           -41.9268200225      -13.6336935491       -7.0032043445  MEMB      313             0.0000000000
     38937       313  QMPE      C37           -43.0934630248      -15.4564348109       -7.0225188191  MEMB      313             0.0000000000
     38938       313  QMPE      H7X           -43.4912827651      -16.3016492531       -7.6239111407  MEMB      313             0.0000000000
     38939       313  QMPE      H7Y           -42.3403766231      -15.9825642810       -6.3977231618  MEMB      313             0.0000000000
     38940       313  QMPE      C38           -44.1849962962      -14.9306078362       -6.0741936283  MEMB      313             0.0000000000
     38941       313  QMPE      H8X           -43.6896590812      -14.3120383383       -5.2955189417  MEMB      313             0.0000000000
     38942       313  QMPE      H8Y           -44.9080972886      -14.3462137758       -6.6824113880  MEMB      313             0.0000000000
     38943       313  QMPE      C39           -44.9692703939      -16.0337312440       -5.2653384902  MEMB      313             0.0000000000
     38944       313  QMPE      H9X           -44.1729043948      -16.8006412956       -5.1559244235  MEMB      313             0.0000000000
     38945       313  QMPE      H9Y           -45.8765272449      -16.3801680845       -5.8049561774  MEMB      313             0.0000000000
     38946       313  QMPE      C310          -45.3133892466      -15.5799722520       -3.8536399352  MEMB      313             0.0000000000
     38947       313  QMPE      H10X          -45.7756595596      -14.5723829273       -3.7802165367  MEMB      313             0.0000000000
     38948       313  QMPE      H10Y          -44.3836137177      -15.4467174904       -3.2602756819  MEMB      313             0.0000000000
     38949       313  QMPE      C311          -46.2812916401      -16.6488817427       -3.2394846338  MEMB      313             0.0000000000
     38950       313  QMPE      H11X          -46.0641901039      -17.7366443563       -3.3024194662  MEMB      313             0.0000000000
     38951       313  QMPE      H11Y          -47.1925343622      -16.3878967482       -3.8190058625  MEMB      313             0.0000000000
     38952       313  QMPE      C312          -46.5808079474      -16.2874492302       -1.7915775785  MEMB      313             0.0000000000
     38953       313  QMPE      H12X          -47.4783114328      -16.8432643137       -1.4453438005  MEMB      313             0.0000000000
     38954       313  QMPE      H12Y          -46.7847765277      -15.1962660236       -1.7464466035  MEMB      313             0.0000000000
     38955       313  QMPE      C313          -45.4091001788      -16.5692234884       -0.7876850912  MEMB      313             0.0000000000
     38956       313  QMPE      H13X          -45.2914090657      -17.6693874259       -0.8882255499  MEMB      313             0.0000000000
     38957       313  QMPE      H13Y          -44.4704646126      -16.1106361571       -1.1658141069  MEMB      313             0.0000000000
     38958       313  QMPE      C314          -45.7499486573      -16.2926538430        0.6700730186  MEMB      313             0.0000000000
     38959       313  QMPE      H14X          -44.9572669402      -16.5983740373        1.3859725967  MEMB      313             0.0000000000
     38960       313  QMPE      H14Y          -46.5696290679      -16.9964816088        0.9290555843  MEMB      313             0.0000000000
     38961       313  QMPE      C315          -46.2861989208      -14.8799538810        0.9505673789  MEMB      313             0.0000000000
     38962       313  QMPE      H15X          -47.1899242747      -14.7552919210        0.3164861327  MEMB      313             0.0000000000
     38963       313  QMPE      H15Y          -46.7866401917      -14.9085258998        1.9420628051  MEMB      313             0.0000000000
     38964       313  QMPE      H15Z          -45.5438480655      -14.0684777333        0.7932695265  MEMB      313             0.0000000000
     38965       314  QMPE      N              22.3304085291      -42.5093967766      -21.3975211765  MEMB      314             0.0000000000
     38966       314  QMPE      HN1            21.3064281988      -42.3425321995      -21.4697739593  MEMB      314             0.0000000000
     38967       314  QMPE      HN2            22.8056488490      -41.6459477350      -21.7294884432  MEMB      314             0.0000000000
     38968       314  QMPE      HN3            22.6160408964      -43.3017849705      -22.0075499274  MEMB      314             0.0000000000
     38969       314  QMPE      C12            22.5359277801      -42.7898476621      -19.8666114402  MEMB      314             0.0000000000
     38970       314  QMPE      H12A           22.1992518515      -41.8847263888      -19.3173157215  MEMB      314             0.0000000000
     38971       314  QMPE      H12B           23.6285217137      -42.9386611762      -19.7309129929  MEMB      314             0.0000000000
     38972       314  QMPE      C11            21.7532184568      -44.0876594062      -19.5646452500  MEMB      314             0.0000000000
     38973       314  QMPE      H11A           22.1070422867      -44.6016325007      -18.6454275033  MEMB      314             0.0000000000
     38974       314  QMPE      H11B           21.9673076464      -44.7415606356      -20.4369410943  MEMB      314             0.0000000000
     38975       314  QMPE      P              19.5855405319      -43.5267241261      -18.2247475263  MEMB      314             0.0000000000
     38976       314  QMPE      O13            18.7200872460      -44.6732424507      -18.0891897691  MEMB      314             0.0000000000
     38977       314  QMPE      O14            18.9174645457      -42.1623230009      -18.2280674019  MEMB      314             0.0000000000
     38978       314  QMPE      O11            20.5347424591      -43.6483592865      -17.0404574517  MEMB      314             0.0000000000
     38979       314  QMPE      O12            20.3970936550      -43.7980504568      -19.5887599615  MEMB      314             0.0000000000
     38980       314  QMPE      C1             20.0030676422      -43.5775367583      -15.6844227230  MEMB      314             0.0000000000
     38981       314  QMPE      HA             20.3532209795      -44.4818652798      -15.1422938264  MEMB      314             0.0000000000
     38982       314  QMPE      HB             18.8922103309      -43.5688371645      -15.6688859816  MEMB      314             0.0000000000
     38983       314  QMPE      C2             20.5173947670      -42.2742506646      -15.0637948847  MEMB      314             0.0000000000
     38984       314  QMPE      HS             20.1224106797      -41.4356586878      -15.6762261951  MEMB      314             0.0000000000
     38985       314  QMPE      O21            21.8964324181      -42.2376592829      -15.1011121542  MEMB      314             0.0000000000
     38986       314  QMPE      C21            22.5366442920      -41.1566231806      -14.9915662991  MEMB      314             0.0000000000
     38987       314  QMPE      O22            22.1206078472      -40.0969945111      -14.6549523850  MEMB      314             0.0000000000
     38988       314  QMPE      C22            23.9686005667      -41.4929663976      -15.3248792433  MEMB      314             0.0000000000
     38989       314  QMPE      H2R            24.4711429907      -40.5080600390      -15.4331927274  MEMB      314             0.0000000000
     38990       314  QMPE      H2S            24.1489016383      -42.0382691766      -16.2759089415  MEMB      314             0.0000000000
     38991       314  QMPE      C3             19.9587509281      -42.1626417051      -13.6650064772  MEMB      314             0.0000000000
     38992       314  QMPE      HX             18.8650205749      -42.3423827007      -13.7409558263  MEMB      314             0.0000000000
     38993       314  QMPE      HY             20.2520109392      -41.1593092524      -13.2886509575  MEMB      314             0.0000000000
     38994       314  QMPE      O31            20.5659182653      -43.2193235623      -12.8815359573  MEMB      314             0.0000000000
     38995       314  QMPE      C31            20.4771282629      -43.0464455431      -11.5854840391  MEMB      314             0.0000000000
     38996       314  QMPE      O32            19.7579856354      -42.2282950812      -11.0282860486  MEMB      314             0.0000000000
     38997       314  QMPE      C32            21.2748729194      -44.0391045421      -10.7549924394  MEMB      314             0.0000000000
     38998       314  QMPE      H2X            20.9035029795      -45.0643334486      -10.9678566820  MEMB      314             0.0000000000
     38999       314  QMPE      H2Y            22.3372504763      -43.9909149780      -11.0764774206  MEMB      314             0.0000000000
     39000       314  QMPE      C23            24.6722039189      -42.2931717616      -14.1997642685  MEMB      314             0.0000000000
     39001       314  QMPE      H3R            25.6484451817      -42.4978743371      -14.6890200231  MEMB      314             0.0000000000
     39002       314  QMPE      H3S            24.1304189479      -43.2570583983      -14.0915399705  MEMB      314             0.0000000000
     39003       314  QMPE      C24            25.0006895779      -41.5811651631      -12.8887462267  MEMB      314             0.0000000000
     39004       314  QMPE      H4R            25.1374056676      -40.4983667996      -13.0965382037  MEMB      314             0.0000000000
     39005       314  QMPE      H4S            26.0583870157      -41.9107342007      -12.8051911033  MEMB      314             0.0000000000
     39006       314  QMPE      C25            24.1068736608      -41.7713427278      -11.6486996178  MEMB      314             0.0000000000
     39007       314  QMPE      H5R            24.0570334886      -42.8376171921      -11.3406477926  MEMB      314             0.0000000000
     39008       314  QMPE      H5S            23.0473306365      -41.4890849432      -11.8276408826  MEMB      314             0.0000000000
     39009       314  QMPE      C26            24.5380270243      -40.8964899698      -10.4583205035  MEMB      314             0.0000000000
     39010       314  QMPE      H6R            24.6600978995      -39.8611278148      -10.8423067753  MEMB      314             0.0000000000
     39011       314  QMPE      H6S            25.4937903886      -41.3626866278      -10.1366103501  MEMB      314             0.0000000000
     39012       314  QMPE      C27            23.4621329222      -40.8245845000       -9.4052373354  MEMB      314             0.0000000000
     39013       314  QMPE      H7R            23.2683674778      -41.8262483971       -8.9654129464  MEMB      314             0.0000000000
     39014       314  QMPE      H7S            22.6147354325      -40.3091711832       -9.9058257062  MEMB      314             0.0000000000
     39015       314  QMPE      C28            23.8267013921      -40.0289632185       -8.1904956186  MEMB      314             0.0000000000
     39016       314  QMPE      H8R            22.9817047237      -40.0706720292       -7.4703827647  MEMB      314             0.0000000000
     39017       314  QMPE      H8S            23.8467871934      -38.9966051142       -8.6005613709  MEMB      314             0.0000000000
     39018       314  QMPE      C29            25.1437771030      -40.3201959777       -7.4659948074  MEMB      314             0.0000000000
     39019       314  QMPE      H9R            26.0493007457      -39.8790528304       -7.9347606835  MEMB      314             0.0000000000
     39020       314  QMPE      C217           25.4028740158      -41.7659922682       -7.1817174206  MEMB      314             0.0000000000
     39021       314  QMPE      H17R           24.5953255970      -42.4818443715       -7.0905581525  MEMB      314             0.0000000000
     39022       314  QMPE      H17S           26.3826625449      -42.2197728030       -7.2653044491  MEMB      314             0.0000000000
     39023       314  QMPE      C210           25.2757805428      -40.7296031388       -6.0368699928  MEMB      314             0.0000000000
     39024       314  QMPE      H10R           26.2158729592      -40.3649980949       -5.5703825277  MEMB      314             0.0000000000
     39025       314  QMPE      C211           23.9896633267      -40.8247794365       -5.2285249499  MEMB      314             0.0000000000
     39026       314  QMPE      H11R           23.1112567707      -41.1934633405       -5.8001849959  MEMB      314             0.0000000000
     39027       314  QMPE      H11S           24.1730935298      -41.4918075644       -4.3591874229  MEMB      314             0.0000000000
     39028       314  QMPE      C212           23.7126069498      -39.4518335749       -4.6153518364  MEMB      314             0.0000000000
     39029       314  QMPE      H12R           23.7195463469      -38.7617325087       -5.4860024431  MEMB      314             0.0000000000
     39030       314  QMPE      H12S           24.5430535508      -39.1916319416       -3.9247180773  MEMB      314             0.0000000000
     39031       314  QMPE      C213           22.3421324256      -39.1868817393       -3.9617753022  MEMB      314             0.0000000000
     39032       314  QMPE      H13R           21.5808644145      -39.4389605004       -4.7307018923  MEMB      314             0.0000000000
     39033       314  QMPE      H13S           22.2243563522      -38.1089379083       -3.7199350664  MEMB      314             0.0000000000
     39034       314  QMPE      C214           22.0851397639      -39.9348513797       -2.6384008770  MEMB      314             0.0000000000
     39035       314  QMPE      H14R           22.6865315171      -39.4384821689       -1.8470311194  MEMB      314             0.0000000000
     39036       314  QMPE      H14S           22.3689758288      -41.0007875956       -2.7708325720  MEMB      314             0.0000000000
     39037       314  QMPE      C215           20.6219371133      -39.7902714853       -2.0849148733  MEMB      314             0.0000000000
     39038       314  QMPE      H15R           19.9217288650      -39.7911988220       -2.9474851398  MEMB      314             0.0000000000
     39039       314  QMPE      H15S           20.5115001310      -38.8238143420       -1.5481797726  MEMB      314             0.0000000000
     39040       314  QMPE      C216           20.2468967147      -41.0332267376       -1.2688102255  MEMB      314             0.0000000000
     39041       314  QMPE      H16R           20.1018427041      -41.8804753212       -1.9726912115  MEMB      314             0.0000000000
     39042       314  QMPE      H16S           19.2984866441      -40.8308227296       -0.7267100173  MEMB      314             0.0000000000
     39043       314  QMPE      H16T           21.0547851815      -41.2579776425       -0.5400263649  MEMB      314             0.0000000000
     39044       314  QMPE      C33            21.1225730751      -43.7539119161       -9.2499597064  MEMB      314             0.0000000000
     39045       314  QMPE      H3X            20.0477661539      -43.7709387727       -8.9692088114  MEMB      314             0.0000000000
     39046       314  QMPE      H3Y            21.5224535339      -42.7459717509       -9.0081464857  MEMB      314             0.0000000000
     39047       314  QMPE      C34            21.9027278713      -44.8045891442       -8.4206688282  MEMB      314             0.0000000000
     39048       314  QMPE      H4X            22.9938198329      -44.6248515956       -8.5280644191  MEMB      314             0.0000000000
     39049       314  QMPE      H4Y            21.7065475319      -45.8053179121       -8.8615505083  MEMB      314             0.0000000000
     39050       314  QMPE      C35            21.5280124156      -44.9710368809       -6.9161719804  MEMB      314             0.0000000000
     39051       314  QMPE      H5X            22.3100073812      -45.6346639172       -6.4890838094  MEMB      314             0.0000000000
     39052       314  QMPE      H5Y            20.5692280286      -45.5282774776       -6.8488202948  MEMB      314             0.0000000000
     39053       314  QMPE      C36            21.4952448390      -43.6517574777       -6.0865087545  MEMB      314             0.0000000000
     39054       314  QMPE      H6X            20.7444309907      -42.9977997400       -6.5793972240  MEMB      314             0.0000000000
     39055       314  QMPE      H6Y            22.4976297378      -43.1757352625       -6.1408074018  MEMB      314             0.0000000000
     39056       314  QMPE      C37            21.2418239162      -43.8556436755       -4.5842990229  MEMB      314             0.0000000000
     39057       314  QMPE      H7X            21.0715650682      -42.8074445443       -4.2577849902  MEMB      314             0.0000000000
     39058       314  QMPE      H7Y            20.3273633122      -44.4599262446       -4.4028449221  MEMB      314             0.0000000000
     39059       314  QMPE      C38            22.4060543608      -44.5270059868       -3.7999127694  MEMB      314             0.0000000000
     39060       314  QMPE      H8X            22.3880157145      -45.5972336503       -4.0975842017  MEMB      314             0.0000000000
     39061       314  QMPE      H8Y            23.3589780297      -44.0565147600       -4.1237884706  MEMB      314             0.0000000000
     39062       314  QMPE      C39            22.5161785543      -44.3661814633       -2.2517506796  MEMB      314             0.0000000000
     39063       314  QMPE      H9X            21.5700971724      -44.2600853774       -1.6790426156  MEMB      314             0.0000000000
     39064       314  QMPE      H9Y            22.9773275703      -43.3561589638       -2.2128008233  MEMB      314             0.0000000000
     39065       314  QMPE      C310           23.5338851711      -45.2888489248       -1.5474881633  MEMB      314             0.0000000000
     39066       314  QMPE      H10X           24.4421677457      -45.2788758689       -2.1872100197  MEMB      314             0.0000000000
     39067       314  QMPE      H10Y           23.2652103042      -46.3663697769       -1.5804019447  MEMB      314             0.0000000000
     39068       314  QMPE      C311           24.0317777526      -44.8194734726       -0.1504336865  MEMB      314             0.0000000000
     39069       314  QMPE      H11X           24.5905090965      -43.8749912134       -0.3239087252  MEMB      314             0.0000000000
     39070       314  QMPE      H11Y           24.6831816675      -45.6463692288        0.2048655294  MEMB      314             0.0000000000
     39071       314  QMPE      C312           22.9985376746      -44.5712165573        0.9082666979  MEMB      314             0.0000000000
     39072       314  QMPE      H12X           22.3482365829      -45.4669890477        0.8132899205  MEMB      314             0.0000000000
     39073       314  QMPE      H12Y           22.3565007800      -43.7506319864        0.5225847786  MEMB      314             0.0000000000
     39074       314  QMPE      C313           23.4850463289      -44.4934082029        2.3309018316  MEMB      314             0.0000000000
     39075       314  QMPE      H13X           22.6539878028      -44.4520404389        3.0670766954  MEMB      314             0.0000000000
     39076       314  QMPE      H13Y           24.1631309874      -45.3290910067        2.6068682993  MEMB      314             0.0000000000
     39077       314  QMPE      C314           24.4466263960      -43.3011948573        2.5827031587  MEMB      314             0.0000000000
     39078       314  QMPE      H14X           25.4473964378      -43.5744102198        2.1850431151  MEMB      314             0.0000000000
     39079       314  QMPE      H14Y           24.6510190680      -43.2900516615        3.6746831331  MEMB      314             0.0000000000
     39080       314  QMPE      C315           23.9054800890      -41.9807749167        2.0123506191  MEMB      314             0.0000000000
     39081       314  QMPE      H15X           24.2332837579      -41.8046881024        0.9655174086  MEMB      314             0.0000000000
     39082       314  QMPE      H15Y           22.8069994766      -41.9038466517        2.1598064437  MEMB      314             0.0000000000
     39083       314  QMPE      H15Z           24.3436882690      -41.1789088847        2.6442576210  MEMB      314             0.0000000000
     39084       315  POPE      N             -27.8098265129      -42.1508538202      -18.4823650694  MEMB      315             0.0000000000
     39085       315  POPE      HN1           -28.2198311678      -42.7948018453      -19.1886418930  MEMB      315             0.0000000000
     39086       315  POPE      HN2           -26.8702168322      -42.4819997728      -18.1839089611  MEMB      315             0.0000000000
     39087       315  POPE      HN3           -28.3852382299      -42.2168364067      -17.6185668199  MEMB      315             0.0000000000
     39088       315  POPE      C12           -27.7357660907      -40.6276991267      -18.8375601459  MEMB      315             0.0000000000
     39089       315  POPE      H12A          -27.4799904360      -40.1579289006      -17.8637963195  MEMB      315             0.0000000000
     39090       315  POPE      H12B          -28.7284673234      -40.2110552923      -19.1119197886  MEMB      315             0.0000000000
     39091       315  POPE      C11           -26.7226888521      -40.3010540772      -19.9984886032  MEMB      315             0.0000000000
     39092       315  POPE      H11A          -26.7157394397      -39.1993169123      -20.1414847708  MEMB      315             0.0000000000
     39093       315  POPE      H11B          -27.2562227091      -40.7040877865      -20.8857465025  MEMB      315             0.0000000000
     39094       315  POPE      P             -24.3726993259      -40.2501832612      -18.9527864616  MEMB      315             0.0000000000
     39095       315  POPE      O13           -24.7062345482      -38.7773395808      -18.7575158675  MEMB      315             0.0000000000
     39096       315  POPE      O14           -23.0204509966      -40.6237855498      -19.4406483629  MEMB      315             0.0000000000
     39097       315  POPE      O11           -24.8071819025      -41.0411999071      -17.6039335749  MEMB      315             0.0000000000
     39098       315  POPE      O12           -25.3990339440      -40.8780012045      -19.9267019145  MEMB      315             0.0000000000
     39099       315  POPE      C1            -24.5583483088      -42.4144408826      -17.5067175258  MEMB      315             0.0000000000
     39100       315  POPE      HA            -23.5639214953      -42.6689655273      -17.9317510163  MEMB      315             0.0000000000
     39101       315  POPE      HB            -25.3725272774      -42.9886740851      -17.9983372591  MEMB      315             0.0000000000
     39102       315  POPE      C2            -24.5000769121      -42.9341429583      -16.0430835804  MEMB      315             0.0000000000
     39103       315  POPE      HS            -24.0955169994      -43.9678794962      -15.9979091364  MEMB      315             0.0000000000
     39104       315  POPE      O21           -25.7152995366      -42.8443327886      -15.3665813026  MEMB      315             0.0000000000
     39105       315  POPE      C21           -26.7238347336      -43.7015434947      -15.7441164935  MEMB      315             0.0000000000
     39106       315  POPE      O22           -26.6410443586      -44.5668240703      -16.5626730634  MEMB      315             0.0000000000
     39107       315  POPE      C22           -27.9445151096      -43.3670080713      -14.8571574972  MEMB      315             0.0000000000
     39108       315  POPE      H2R           -28.8610954740      -43.4146852540      -15.4831991141  MEMB      315             0.0000000000
     39109       315  POPE      H2S           -27.7665064367      -42.4243303086      -14.2968070832  MEMB      315             0.0000000000
     39110       315  POPE      C3            -23.4826547009      -42.0835163114      -15.2314407277  MEMB      315             0.0000000000
     39111       315  POPE      HX            -22.4912427573      -41.9637773234      -15.7183552875  MEMB      315             0.0000000000
     39112       315  POPE      HY            -23.2142402430      -42.4508452398      -14.2178609428  MEMB      315             0.0000000000
     39113       315  POPE      O31           -24.0379314967      -40.7361900424      -15.0115473353  MEMB      315             0.0000000000
     39114       315  POPE      C31           -23.3005179912      -39.8650642634      -14.3097508118  MEMB      315             0.0000000000
     39115       315  POPE      O32           -22.2349583717      -39.9998479396      -13.8290199751  MEMB      315             0.0000000000
     39116       315  POPE      C32           -24.0945800382      -38.5219247687      -14.3318415269  MEMB      315             0.0000000000
     39117       315  POPE      H2X           -24.3834626290      -38.3208698126      -15.3856178753  MEMB      315             0.0000000000
     39118       315  POPE      H2Y           -23.5107800687      -37.6349227566      -14.0051520308  MEMB      315             0.0000000000
     39119       315  POPE      C23           -28.1078410806      -44.5159520010      -13.7984412756  MEMB      315             0.0000000000
     39120       315  POPE      H3R           -28.0891922239      -45.5520379692      -14.1990648309  MEMB      315             0.0000000000
     39121       315  POPE      H3S           -29.1151805942      -44.4129610994      -13.3412968777  MEMB      315             0.0000000000
     39122       315  POPE      C24           -27.0343019019      -44.5757751834      -12.7331965345  MEMB      315             0.0000000000
     39123       315  POPE      H4R           -26.0479342769      -44.6464341865      -13.2395631325  MEMB      315             0.0000000000
     39124       315  POPE      H4S           -27.1928043146      -45.5284949174      -12.1840852398  MEMB      315             0.0000000000
     39125       315  POPE      C25           -27.0199772057      -43.3988868626      -11.7994005185  MEMB      315             0.0000000000
     39126       315  POPE      H5R           -28.0450262485      -43.0663965425      -11.5291307877  MEMB      315             0.0000000000
     39127       315  POPE      H5S           -26.6663987262      -42.4406288175      -12.2364876574  MEMB      315             0.0000000000
     39128       315  POPE      C26           -26.1288271928      -43.5895036318      -10.5782280616  MEMB      315             0.0000000000
     39129       315  POPE      H6R           -25.1001886782      -43.8675764622      -10.8927116676  MEMB      315             0.0000000000
     39130       315  POPE      H6S           -26.4115038915      -44.4982631541      -10.0050171968  MEMB      315             0.0000000000
     39131       315  POPE      C27           -26.0360048992      -42.3020944565       -9.7030464941  MEMB      315             0.0000000000
     39132       315  POPE      H7R           -26.9771342565      -42.1086473163       -9.1452163043  MEMB      315             0.0000000000
     39133       315  POPE      H7S           -25.9561893772      -41.4347006243      -10.3926687903  MEMB      315             0.0000000000
     39134       315  POPE      C28           -24.9416297234      -42.3833103831       -8.6645890121  MEMB      315             0.0000000000
     39135       315  POPE      H8R           -24.6739285783      -41.3288443223       -8.4392926855  MEMB      315             0.0000000000
     39136       315  POPE      H8S           -24.1175868267      -42.9284610972       -9.1726102031  MEMB      315             0.0000000000
     39137       315  POPE      C29           -25.4275393257      -43.1116575171       -7.4530579822  MEMB      315             0.0000000000
     39138       315  POPE      H91           -25.7488579460      -44.1565730390       -7.5751474642  MEMB      315             0.0000000000
     39139       315  POPE      C210          -25.6911550168      -42.6424660926       -6.2496904176  MEMB      315             0.0000000000
     39140       315  POPE      H101          -25.8352341806      -43.3587687174       -5.4274054145  MEMB      315             0.0000000000
     39141       315  POPE      C211          -25.5844422655      -41.1757589626       -5.8102316641  MEMB      315             0.0000000000
     39142       315  POPE      H11R          -26.4465768342      -40.9812063322       -5.1370345555  MEMB      315             0.0000000000
     39143       315  POPE      H11S          -25.7952491275      -40.5474030080       -6.7018872176  MEMB      315             0.0000000000
     39144       315  POPE      C212          -24.3167312700      -40.7016094829       -5.1109627104  MEMB      315             0.0000000000
     39145       315  POPE      H12R          -24.4500205541      -39.5986485507       -5.1052993659  MEMB      315             0.0000000000
     39146       315  POPE      H12S          -23.4861425968      -40.8329605615       -5.8370411158  MEMB      315             0.0000000000
     39147       315  POPE      C213          -23.9271387464      -41.3197234039       -3.7547409496  MEMB      315             0.0000000000
     39148       315  POPE      H13R          -22.9772123449      -40.8665659428       -3.3989185647  MEMB      315             0.0000000000
     39149       315  POPE      H13S          -23.7598005469      -42.4165118463       -3.6966552202  MEMB      315             0.0000000000
     39150       315  POPE      C214          -25.2177834228      -41.1117848736       -2.8212847770  MEMB      315             0.0000000000
     39151       315  POPE      H14R          -26.0299284620      -41.7849659064       -3.1699515418  MEMB      315             0.0000000000
     39152       315  POPE      H14S          -25.5084524545      -40.0544065043       -2.9995624168  MEMB      315             0.0000000000
     39153       315  POPE      C215          -24.9445018882      -41.4179229484       -1.3015842642  MEMB      315             0.0000000000
     39154       315  POPE      H15R          -25.0579544771      -42.5053429466       -1.1041814176  MEMB      315             0.0000000000
     39155       315  POPE      H15S          -25.7973602892      -40.9394605145       -0.7743011929  MEMB      315             0.0000000000
     39156       315  POPE      C216          -23.6288361765      -40.9975138176       -0.5701015792  MEMB      315             0.0000000000
     39157       315  POPE      H16R          -22.8824769440      -41.5808527940       -1.1506053242  MEMB      315             0.0000000000
     39158       315  POPE      H16S          -23.6943694477      -41.3266517785        0.4889978399  MEMB      315             0.0000000000
     39159       315  POPE      C217          -23.3464441381      -39.4982276273       -0.6212570636  MEMB      315             0.0000000000
     39160       315  POPE      H17R          -23.7121419289      -39.1708246782       -1.6179481295  MEMB      315             0.0000000000
     39161       315  POPE      H17S          -22.2705089959      -39.2612849887       -0.4779329389  MEMB      315             0.0000000000
     39162       315  POPE      C218          -24.1324933336      -38.7321350142        0.4358862826  MEMB      315             0.0000000000
     39163       315  POPE      H18R          -24.1865433517      -37.6320316803        0.2903771278  MEMB      315             0.0000000000
     39164       315  POPE      H18S          -23.6650662592      -38.9143587473        1.4271609556  MEMB      315             0.0000000000
     39165       315  POPE      H18T          -25.1571912887      -39.1611977393        0.4210440317  MEMB      315             0.0000000000
     39166       315  POPE      C33           -25.4253215324      -38.6549469545      -13.4664164413  MEMB      315             0.0000000000
     39167       315  POPE      H3X           -26.0953882393      -39.3728705690      -13.9859522668  MEMB      315             0.0000000000
     39168       315  POPE      H3Y           -25.8544139963      -37.6309510538      -13.5068276704  MEMB      315             0.0000000000
     39169       315  POPE      C34           -25.1698098067      -39.1764399939      -12.0630333634  MEMB      315             0.0000000000
     39170       315  POPE      H4X           -24.1205371518      -38.9108503162      -11.8124133445  MEMB      315             0.0000000000
     39171       315  POPE      H4Y           -25.2404757034      -40.2768830307      -12.1985043673  MEMB      315             0.0000000000
     39172       315  POPE      C35           -26.2475077128      -38.6494195478      -11.0349193447  MEMB      315             0.0000000000
     39173       315  POPE      H5X           -26.1372937335      -37.5478596100      -11.1284063901  MEMB      315             0.0000000000
     39174       315  POPE      H5Y           -25.9758092388      -38.8530714665       -9.9770793428  MEMB      315             0.0000000000
     39175       315  POPE      C36           -27.7152774232      -39.0871755931      -11.3378350087  MEMB      315             0.0000000000
     39176       315  POPE      H6X           -27.8836514090      -40.1501448801      -11.0620319350  MEMB      315             0.0000000000
     39177       315  POPE      H6Y           -27.8341361991      -38.9509115163      -12.4340215520  MEMB      315             0.0000000000
     39178       315  POPE      C37           -28.7201814493      -38.1941166682      -10.6286216515  MEMB      315             0.0000000000
     39179       315  POPE      H7X           -29.6915702809      -38.5398910471      -11.0423420585  MEMB      315             0.0000000000
     39180       315  POPE      H7Y           -28.7267265540      -37.1352811309      -10.9649919767  MEMB      315             0.0000000000
     39181       315  POPE      C38           -28.8173529492      -38.2246811226       -9.0882494886  MEMB      315             0.0000000000
     39182       315  POPE      H8X           -29.4494021826      -37.4483030520       -8.6065109198  MEMB      315             0.0000000000
     39183       315  POPE      H8Y           -27.7606490973      -37.9645100608       -8.8646226385  MEMB      315             0.0000000000
     39184       315  POPE      C39           -29.0625508252      -39.6467856106       -8.4256123511  MEMB      315             0.0000000000
     39185       315  POPE      H9X           -28.6282115264      -39.4538012318       -7.4214072047  MEMB      315             0.0000000000
     39186       315  POPE      H9Y           -28.4199329559      -40.4518067245       -8.8419098362  MEMB      315             0.0000000000
     39187       315  POPE      C310          -30.5980321527      -39.9806752339       -8.4511966694  MEMB      315             0.0000000000
     39188       315  POPE      H10X          -30.9613148565      -39.7922387660       -9.4840748282  MEMB      315             0.0000000000
     39189       315  POPE      H10Y          -30.9771917445      -39.3253699952       -7.6380951530  MEMB      315             0.0000000000
     39190       315  POPE      C311          -30.9011501957      -41.4293570661       -8.1476382567  MEMB      315             0.0000000000
     39191       315  POPE      H11X          -30.1164749297      -42.0996485908       -8.5591174278  MEMB      315             0.0000000000
     39192       315  POPE      H11Y          -31.8517038143      -41.7251962586       -8.6408408410  MEMB      315             0.0000000000
     39193       315  POPE      C312          -30.9371270246      -41.8302579135       -6.6765036889  MEMB      315             0.0000000000
     39194       315  POPE      H12X          -31.3509504087      -42.8599859260       -6.7287632705  MEMB      315             0.0000000000
     39195       315  POPE      H12Y          -31.6832174000      -41.1799925788       -6.1717016696  MEMB      315             0.0000000000
     39196       315  POPE      C313          -29.6541607294      -42.0168262533       -5.8602812554  MEMB      315             0.0000000000
     39197       315  POPE      H13X          -29.1328468394      -41.0757740051       -5.5828407719  MEMB      315             0.0000000000
     39198       315  POPE      H13Y          -28.9583774159      -42.6190659489       -6.4827874261  MEMB      315             0.0000000000
     39199       315  POPE      C314          -29.7667808933      -42.9121348644       -4.5888647867  MEMB      315             0.0000000000
     39200       315  POPE      H14X          -28.9191700934      -42.6972787305       -3.9035077910  MEMB      315             0.0000000000
     39201       315  POPE      H14Y          -29.7066614309      -43.9532037559       -4.9721172394  MEMB      315             0.0000000000
     39202       315  POPE      C315          -31.0132673379      -42.8940209772       -3.7071253187  MEMB      315             0.0000000000
     39203       315  POPE      H15X          -30.8758126275      -43.7322432706       -2.9910166777  MEMB      315             0.0000000000
     39204       315  POPE      H15Y          -31.8327833961      -43.2153761384       -4.3849495468  MEMB      315             0.0000000000
     39205       315  POPE      C316          -31.1731620447      -41.6061894977       -2.9905825754  MEMB      315             0.0000000000
     39206       315  POPE      H16X          -31.8451081440      -41.6987122982       -2.1106687088  MEMB      315             0.0000000000
     39207       315  POPE      H16Y          -31.4789122940      -40.7758127947       -3.6623808580  MEMB      315             0.0000000000
     39208       315  POPE      H16Z          -30.1950229782      -41.3411085874       -2.5352838002  MEMB      315             0.0000000000
     39209       316  PMPE      N             -14.4120596371      -48.9517302290      -19.8745757272  MEMB      316             0.0000000000
     39210       316  PMPE      HN1           -14.8361111301      -49.8981885317      -19.9520125399  MEMB      316             0.0000000000
     39211       316  PMPE      HN2           -13.9512959816      -48.7115169883      -20.7754611639  MEMB      316             0.0000000000
     39212       316  PMPE      HN3           -13.6721459344      -49.0442531564      -19.1496154556  MEMB      316             0.0000000000
     39213       316  PMPE      C12           -15.3570438774      -47.8166287147      -19.4361280973  MEMB      316             0.0000000000
     39214       316  PMPE      H12A          -15.6755670443      -48.2075385300      -18.4461516546  MEMB      316             0.0000000000
     39215       316  PMPE      H12B          -16.1252032582      -47.6813695002      -20.2273025716  MEMB      316             0.0000000000
     39216       316  PMPE      C11           -14.5502926670      -46.4841841127      -19.2889370534  MEMB      316             0.0000000000
     39217       316  PMPE      H11A          -15.2371401128      -45.6335638186      -19.0914363802  MEMB      316             0.0000000000
     39218       316  PMPE      H11B          -14.2067030366      -46.2501756258      -20.3192317330  MEMB      316             0.0000000000
     39219       316  PMPE      P             -12.1470243859      -45.6728776331      -18.7042411289  MEMB      316             0.0000000000
     39220       316  PMPE      O13           -12.0685255856      -45.5256577573      -20.1811531339  MEMB      316             0.0000000000
     39221       316  PMPE      O14           -10.9479931788      -46.2182095653      -18.0078951779  MEMB      316             0.0000000000
     39222       316  PMPE      O11           -12.4412595959      -44.2195941224      -18.2122498551  MEMB      316             0.0000000000
     39223       316  PMPE      O12           -13.5026370722      -46.4405858672      -18.2948198233  MEMB      316             0.0000000000
     39224       316  PMPE      C1            -13.1983122363      -43.9537394302      -17.0400684635  MEMB      316             0.0000000000
     39225       316  PMPE      HA            -14.0968459982      -44.5971716837      -16.9262574679  MEMB      316             0.0000000000
     39226       316  PMPE      HB            -13.7322469298      -42.9902594240      -17.1847792581  MEMB      316             0.0000000000
     39227       316  PMPE      C2            -12.3583673819      -43.8812520566      -15.7596195239  MEMB      316             0.0000000000
     39228       316  PMPE      HS            -11.6320863296      -43.0476148817      -15.8686424164  MEMB      316             0.0000000000
     39229       316  PMPE      O21           -11.7382647205      -45.1506657412      -15.5474819592  MEMB      316             0.0000000000
     39230       316  PMPE      C21           -10.6219404260      -45.2300157797      -14.8736135605  MEMB      316             0.0000000000
     39231       316  PMPE      O22            -9.8373464334      -44.3301988651      -14.6769078283  MEMB      316             0.0000000000
     39232       316  PMPE      C22           -10.2546996734      -46.7466155760      -14.6143841334  MEMB      316             0.0000000000
     39233       316  PMPE      H2R            -9.1493132694      -46.8553699441      -14.5895989635  MEMB      316             0.0000000000
     39234       316  PMPE      H2S           -10.7387265315      -47.3510032916      -15.4110988598  MEMB      316             0.0000000000
     39235       316  PMPE      C3            -13.2286838720      -43.5440529104      -14.5186439606  MEMB      316             0.0000000000
     39236       316  PMPE      HX            -13.9593293810      -44.3548184162      -14.3109486856  MEMB      316             0.0000000000
     39237       316  PMPE      HY            -13.8461092585      -42.6711882495      -14.8206606923  MEMB      316             0.0000000000
     39238       316  PMPE      O31           -12.3639678834      -43.2611716974      -13.3822777663  MEMB      316             0.0000000000
     39239       316  PMPE      C31           -13.0321005430      -43.2788719850      -12.2910971603  MEMB      316             0.0000000000
     39240       316  PMPE      O32           -14.2480458081      -43.1221758992      -12.2072013327  MEMB      316             0.0000000000
     39241       316  PMPE      C32           -12.0704076973      -43.4952780593      -11.0755806956  MEMB      316             0.0000000000
     39242       316  PMPE      H2X           -11.1916856681      -42.8263923386      -11.1970742137  MEMB      316             0.0000000000
     39243       316  PMPE      H2Y           -11.7863577742      -44.5648134869      -11.1742255309  MEMB      316             0.0000000000
     39244       316  PMPE      C23           -10.9134073597      -47.2381851773      -13.2827038157  MEMB      316             0.0000000000
     39245       316  PMPE      H3R           -11.0826973814      -48.3352324578      -13.3290628064  MEMB      316             0.0000000000
     39246       316  PMPE      H3S           -11.9299774484      -46.7906491782      -13.2578516064  MEMB      316             0.0000000000
     39247       316  PMPE      C24           -10.1190720510      -46.8230712116      -11.9487629727  MEMB      316             0.0000000000
     39248       316  PMPE      H4R            -9.9920731573      -45.7232619559      -11.8559623636  MEMB      316             0.0000000000
     39249       316  PMPE      H4S            -9.1907821016      -47.4277126347      -11.8650493687  MEMB      316             0.0000000000
     39250       316  PMPE      C25           -10.8828918764      -47.3278758297      -10.7342396668  MEMB      316             0.0000000000
     39251       316  PMPE      H5R           -11.9566168971      -47.0569221367      -10.8237923784  MEMB      316             0.0000000000
     39252       316  PMPE      H5S           -10.5746716750      -46.8458925936       -9.7818669077  MEMB      316             0.0000000000
     39253       316  PMPE      C26           -10.8074332129      -48.8355629657      -10.3567911673  MEMB      316             0.0000000000
     39254       316  PMPE      H6R            -9.9455823942      -49.1156577069       -9.7140774233  MEMB      316             0.0000000000
     39255       316  PMPE      H6S           -10.7135718061      -49.4962067791      -11.2450820710  MEMB      316             0.0000000000
     39256       316  PMPE      C27           -12.0268063464      -49.3631732711       -9.6122620902  MEMB      316             0.0000000000
     39257       316  PMPE      H7R           -12.0562848897      -50.4737764518       -9.6086343641  MEMB      316             0.0000000000
     39258       316  PMPE      H7S           -12.9290174223      -48.9499268298      -10.1118246916  MEMB      316             0.0000000000
     39259       316  PMPE      C28           -12.0842419895      -48.7228000988       -8.1416090268  MEMB      316             0.0000000000
     39260       316  PMPE      H8R           -11.8655431752      -47.6389261140       -8.0334019727  MEMB      316             0.0000000000
     39261       316  PMPE      H8S           -11.4818172809      -49.3708665712       -7.4697348475  MEMB      316             0.0000000000
     39262       316  PMPE      C29           -13.6595056896      -48.7428433952       -7.8365356810  MEMB      316             0.0000000000
     39263       316  PMPE      H9R           -14.2181092471      -49.5758054610       -8.3145076024  MEMB      316             0.0000000000
     39264       316  PMPE      C217          -14.3150452843      -47.3564650401       -7.9778126553  MEMB      316             0.0000000000
     39265       316  PMPE      H17R          -15.1912503989      -47.5019492858       -8.5974803214  MEMB      316             0.0000000000
     39266       316  PMPE      H17S          -13.6884287072      -46.4778483906       -7.8868553253  MEMB      316             0.0000000000
     39267       316  PMPE      C210          -14.3480052798      -48.1464586856       -6.6650467118  MEMB      316             0.0000000000
     39268       316  PMPE      H10R          -15.3298211108      -48.6034654222       -6.4170477374  MEMB      316             0.0000000000
     39269       316  PMPE      C211          -13.5137299413      -47.6536853138       -5.5296858843  MEMB      316             0.0000000000
     39270       316  PMPE      H11R          -14.1560281144      -47.1086125772       -4.8053449317  MEMB      316             0.0000000000
     39271       316  PMPE      H11S          -12.7596715990      -46.9549985528       -5.9510574928  MEMB      316             0.0000000000
     39272       316  PMPE      C212          -12.8252893968      -48.7344950390       -4.6826944095  MEMB      316             0.0000000000
     39273       316  PMPE      H12R          -12.0249036397      -49.0875642915       -5.3675633637  MEMB      316             0.0000000000
     39274       316  PMPE      H12S          -13.5835682929      -49.5413800953       -4.5917511149  MEMB      316             0.0000000000
     39275       316  PMPE      C213          -12.4306996096      -48.2102962457       -3.2728138385  MEMB      316             0.0000000000
     39276       316  PMPE      H13R          -12.0268677009      -49.0109541855       -2.6169263504  MEMB      316             0.0000000000
     39277       316  PMPE      H13S          -13.2000411602      -47.7584415193       -2.6108004851  MEMB      316             0.0000000000
     39278       316  PMPE      C214          -11.2534937571      -47.2323354457       -3.5108106848  MEMB      316             0.0000000000
     39279       316  PMPE      H14R          -11.4860652529      -46.5340967813       -4.3430930619  MEMB      316             0.0000000000
     39280       316  PMPE      H14S          -10.3829698921      -47.8223253567       -3.8691697594  MEMB      316             0.0000000000
     39281       316  PMPE      C215          -10.8516643567      -46.5020652922       -2.2264865624  MEMB      316             0.0000000000
     39282       316  PMPE      H15R          -10.8049964885      -47.2158061649       -1.3763585496  MEMB      316             0.0000000000
     39283       316  PMPE      H15S          -11.6773094054      -45.7846206220       -2.0317965230  MEMB      316             0.0000000000
     39284       316  PMPE      C216           -9.5328020590      -45.8150967546       -2.4515815104  MEMB      316             0.0000000000
     39285       316  PMPE      H16R           -9.7463675810      -45.1158686885       -3.2881162745  MEMB      316             0.0000000000
     39286       316  PMPE      H16S           -9.2825882521      -45.2224049296       -1.5458046037  MEMB      316             0.0000000000
     39287       316  PMPE      H16T           -8.7344791004      -46.5251349511       -2.7562896473  MEMB      316             0.0000000000
     39288       316  PMPE      C33           -12.6958406866      -43.2158985592       -9.6932670066  MEMB      316             0.0000000000
     39289       316  PMPE      H3X           -13.5532932254      -43.8933483281       -9.4928723349  MEMB      316             0.0000000000
     39290       316  PMPE      H3Y           -12.9296313927      -42.1310740169       -9.6401740715  MEMB      316             0.0000000000
     39291       316  PMPE      C34           -11.7183965743      -43.4535103532       -8.5969944314  MEMB      316             0.0000000000
     39292       316  PMPE      H4X           -10.7486458931      -42.9276882737       -8.7289632234  MEMB      316             0.0000000000
     39293       316  PMPE      H4Y           -11.3246220173      -44.4905560702       -8.6586268768  MEMB      316             0.0000000000
     39294       316  PMPE      C35           -12.1538342717      -43.0373383592       -7.1845007004  MEMB      316             0.0000000000
     39295       316  PMPE      H5X           -13.1488465667      -43.5243893933       -7.1005189212  MEMB      316             0.0000000000
     39296       316  PMPE      H5Y           -12.3611568929      -41.9647759762       -6.9821449140  MEMB      316             0.0000000000
     39297       316  PMPE      C36           -11.1423415743      -43.3671377914       -6.1071572565  MEMB      316             0.0000000000
     39298       316  PMPE      H6X           -10.1863332589      -43.0058947080       -6.5429004087  MEMB      316             0.0000000000
     39299       316  PMPE      H6Y           -11.1027941912      -44.4471512301       -5.8496147784  MEMB      316             0.0000000000
     39300       316  PMPE      C37           -11.2889025083      -42.5288320047       -4.7682672860  MEMB      316             0.0000000000
     39301       316  PMPE      H7X           -11.2728577393      -41.4374178982       -4.9753405315  MEMB      316             0.0000000000
     39302       316  PMPE      H7Y           -10.3578730630      -42.8155892792       -4.2341560272  MEMB      316             0.0000000000
     39303       316  PMPE      C38           -12.4517194981      -42.8517950361       -3.7704809629  MEMB      316             0.0000000000
     39304       316  PMPE      H8X           -12.0651074751      -42.2496822595       -2.9205920994  MEMB      316             0.0000000000
     39305       316  PMPE      H8Y           -12.4186383695      -43.9609833576       -3.7163720094  MEMB      316             0.0000000000
     39306       316  PMPE      C39           -13.7365573408      -42.2059701385       -4.2163812305  MEMB      316             0.0000000000
     39307       316  PMPE      H9X           -14.0139541097      -42.3894338963       -5.2764336886  MEMB      316             0.0000000000
     39308       316  PMPE      H9Y           -13.5363492303      -41.1156559493       -4.1425378424  MEMB      316             0.0000000000
     39309       316  PMPE      C310          -14.8177779159      -42.4969345257       -3.1644728716  MEMB      316             0.0000000000
     39310       316  PMPE      H10X          -15.7223535657      -41.8926050305       -3.3899713585  MEMB      316             0.0000000000
     39311       316  PMPE      H10Y          -14.4725536078      -42.0325149257       -2.2160759337  MEMB      316             0.0000000000
     39312       316  PMPE      C311          -15.2901546422      -43.9709695049       -3.0567090976  MEMB      316             0.0000000000
     39313       316  PMPE      H11X          -14.8243540142      -44.4977031739       -2.1965336821  MEMB      316             0.0000000000
     39314       316  PMPE      H11Y          -14.8986954832      -44.6363563895       -3.8556707367  MEMB      316             0.0000000000
     39315       316  PMPE      C312          -16.7966250651      -44.1134997105       -2.8067347924  MEMB      316             0.0000000000
     39316       316  PMPE      H12X          -17.3478779966      -43.7700383538       -3.7081079366  MEMB      316             0.0000000000
     39317       316  PMPE      H12Y          -17.0274568922      -43.5643019379       -1.8689612834  MEMB      316             0.0000000000
     39318       316  PMPE      C313          -17.2594970069      -45.5472942090       -2.4967330818  MEMB      316             0.0000000000
     39319       316  PMPE      H13X          -16.8716861661      -46.2226085743       -3.2891186046  MEMB      316             0.0000000000
     39320       316  PMPE      H13Y          -18.3695767493      -45.5447981901       -2.5418779302  MEMB      316             0.0000000000
     39321       316  PMPE      C314          -16.7938577669      -46.1783888576       -1.1394027500  MEMB      316             0.0000000000
     39322       316  PMPE      H14X          -17.6976837471      -46.7600653757       -0.8582059184  MEMB      316             0.0000000000
     39323       316  PMPE      H14Y          -16.6526519726      -45.4117593734       -0.3477842327  MEMB      316             0.0000000000
     39324       316  PMPE      C315          -15.6007119347      -47.1951652772       -1.1377936687  MEMB      316             0.0000000000
     39325       316  PMPE      H15X          -14.6341391004      -46.6779631640       -1.3182383613  MEMB      316             0.0000000000
     39326       316  PMPE      H15Y          -15.9091749799      -47.9064372728       -1.9335723229  MEMB      316             0.0000000000
     39327       316  PMPE      C316          -15.4029053195      -48.0314205469        0.0992366459  MEMB      316             0.0000000000
     39328       316  PMPE      H16X          -15.4510600206      -47.5077142806        1.0778752864  MEMB      316             0.0000000000
     39329       316  PMPE      H16Y          -14.3854920465      -48.4750573567        0.0504744331  MEMB      316             0.0000000000
     39330       316  PMPE      H16Z          -15.9805803730      -48.9801416094        0.0759664238  MEMB      316             0.0000000000
     39331       317  PMPG      C13            30.1842190069       39.8316725248      -20.6089606360  MEMB      317             0.0000000000
     39332       317  PMPG      H13A           30.7686376886       40.0015541644      -19.6794898500  MEMB      317             0.0000000000
     39333       317  PMPG      H13B           30.8024338561       39.8712695966      -21.5312207713  MEMB      317             0.0000000000
     39334       317  PMPG      OC3            29.1665561858       40.7964336302      -20.6618375665  MEMB      317             0.0000000000
     39335       317  PMPG      HO3            29.5701045978       41.6163365299      -20.9559594693  MEMB      317             0.0000000000
     39336       317  PMPG      C12            29.5578779557       38.4354425240      -20.5464715430  MEMB      317             0.0000000000
     39337       317  PMPG      H12A           30.3331024558       37.7424322128      -20.1445477653  MEMB      317             0.0000000000
     39338       317  PMPG      OC2            29.2094611489       37.9932829272      -21.8591563908  MEMB      317             0.0000000000
     39339       317  PMPG      HO2            28.7037727125       37.1689125651      -21.6876642587  MEMB      317             0.0000000000
     39340       317  PMPG      C11            28.3468118871       38.3873984772      -19.6206946329  MEMB      317             0.0000000000
     39341       317  PMPG      H11A           28.0043893204       37.3363278811      -19.5097058286  MEMB      317             0.0000000000
     39342       317  PMPG      H11B           27.4911111596       38.9165065465      -20.0920139207  MEMB      317             0.0000000000
     39343       317  PMPG      P              27.6650797634       39.5063153327      -17.3533908695  MEMB      317             0.0000000000
     39344       317  PMPG      O13            26.3762305394       38.8630145391      -17.6119951783  MEMB      317             0.0000000000
     39345       317  PMPG      O14            27.7699805477       40.9256490147      -17.5942464636  MEMB      317             0.0000000000
     39346       317  PMPG      O11            28.1446350678       39.1260434468      -15.8541712684  MEMB      317             0.0000000000
     39347       317  PMPG      O12            28.6807748960       38.8006315801      -18.2890754471  MEMB      317             0.0000000000
     39348       317  PMPG      C1             29.5391409841       39.0425107514      -15.4880485436  MEMB      317             0.0000000000
     39349       317  PMPG      HA             30.0130509555       39.9275186778      -15.9639597391  MEMB      317             0.0000000000
     39350       317  PMPG      HB             30.0235041570       38.0987359176      -15.8182035505  MEMB      317             0.0000000000
     39351       317  PMPG      C2             29.5830867873       39.2581841622      -13.9662113081  MEMB      317             0.0000000000
     39352       317  PMPG      HS             30.5581688694       38.9456498806      -13.5350982752  MEMB      317             0.0000000000
     39353       317  PMPG      O21            28.5055817733       38.5460547287      -13.2391852206  MEMB      317             0.0000000000
     39354       317  PMPG      C21            28.1604334441       37.3152689679      -13.5209952132  MEMB      317             0.0000000000
     39355       317  PMPG      O22            28.6813139641       36.6896063072      -14.4201212153  MEMB      317             0.0000000000
     39356       317  PMPG      C22            27.0338406491       36.7760648358      -12.6183661054  MEMB      317             0.0000000000
     39357       317  PMPG      H2R            26.0919253825       37.0420909470      -13.1440529788  MEMB      317             0.0000000000
     39358       317  PMPG      H2S            27.0085076700       37.3647354598      -11.6764817804  MEMB      317             0.0000000000
     39359       317  PMPG      C3             29.4392018617       40.6810315566      -13.5932359826  MEMB      317             0.0000000000
     39360       317  PMPG      HX             28.5278447156       41.1337214614      -14.0391295828  MEMB      317             0.0000000000
     39361       317  PMPG      HY             30.2373978494       41.2562608587      -14.1092930460  MEMB      317             0.0000000000
     39362       317  PMPG      O31            29.6194634410       40.8972592377      -12.2209424649  MEMB      317             0.0000000000
     39363       317  PMPG      C31            28.5909204491       40.8324844621      -11.3827047591  MEMB      317             0.0000000000
     39364       317  PMPG      O32            27.4586036866       40.6079198822      -11.7159951198  MEMB      317             0.0000000000
     39365       317  PMPG      C32            29.1100920316       41.0126833596       -9.9569233418  MEMB      317             0.0000000000
     39366       317  PMPG      H2X            29.4766138246       42.0582890512       -9.8751241858  MEMB      317             0.0000000000
     39367       317  PMPG      H2Y            29.9729939008       40.3307461470       -9.7998154465  MEMB      317             0.0000000000
     39368       317  PMPG      C23            27.2365752381       35.3006401826      -12.3712621669  MEMB      317             0.0000000000
     39369       317  PMPG      H3R            27.7042674707       34.8454634558      -13.2703721839  MEMB      317             0.0000000000
     39370       317  PMPG      H3S            26.2130865834       34.8713629669      -12.3211366021  MEMB      317             0.0000000000
     39371       317  PMPG      C24            28.0318170044       34.9285825744      -11.0573371413  MEMB      317             0.0000000000
     39372       317  PMPG      H4R            27.9200921165       33.8468049295      -10.8301911358  MEMB      317             0.0000000000
     39373       317  PMPG      H4S            27.6615504940       35.5325321498      -10.2014939032  MEMB      317             0.0000000000
     39374       317  PMPG      C25            29.5537835529       35.1525345549      -11.2334182373  MEMB      317             0.0000000000
     39375       317  PMPG      H5R            29.7421127036       36.2424594221      -11.3379013139  MEMB      317             0.0000000000
     39376       317  PMPG      H5S            29.7856837940       34.5766389919      -12.1547689238  MEMB      317             0.0000000000
     39377       317  PMPG      C26            30.3900922667       34.5196306168      -10.0583769083  MEMB      317             0.0000000000
     39378       317  PMPG      H6R            31.4071798813       34.9502710299      -10.1783877606  MEMB      317             0.0000000000
     39379       317  PMPG      H6S            30.3730263901       33.4198717358      -10.2150934167  MEMB      317             0.0000000000
     39380       317  PMPG      C27            29.9815611617       35.0473599981       -8.6200016223  MEMB      317             0.0000000000
     39381       317  PMPG      H7R            30.4905016476       34.2913792998       -7.9845538081  MEMB      317             0.0000000000
     39382       317  PMPG      H7S            28.9150141026       34.9784542697       -8.3166031663  MEMB      317             0.0000000000
     39383       317  PMPG      C28            30.5354242243       36.4616305763       -8.3991787555  MEMB      317             0.0000000000
     39384       317  PMPG      H8R            29.7543001960       36.9518615568       -7.7796310397  MEMB      317             0.0000000000
     39385       317  PMPG      H8S            30.7455943273       36.9981854333       -9.3490521210  MEMB      317             0.0000000000
     39386       317  PMPG      C29            31.8591582607       36.4428178199       -7.5309784282  MEMB      317             0.0000000000
     39387       317  PMPG      H9R            31.9607528031       35.4496081737       -7.0436040029  MEMB      317             0.0000000000
     39388       317  PMPG      C217           33.0167391966       37.0785440945       -8.0250671649  MEMB      317             0.0000000000
     39389       317  PMPG      H17R           33.9447094961       36.5645386938       -7.8069878525  MEMB      317             0.0000000000
     39390       317  PMPG      H17S           32.8327354093       37.6397242138       -8.9328709774  MEMB      317             0.0000000000
     39391       317  PMPG      C210           32.2522207023       37.6345764425       -6.8348327053  MEMB      317             0.0000000000
     39392       317  PMPG      H10R           32.6962658486       37.4154019570       -5.8402935982  MEMB      317             0.0000000000
     39393       317  PMPG      C211           31.4489258882       38.9292524878       -7.0598922894  MEMB      317             0.0000000000
     39394       317  PMPG      H11R           31.3686555876       39.1279329730       -8.1500312129  MEMB      317             0.0000000000
     39395       317  PMPG      H11S           30.4333005081       38.9207715758       -6.6096099114  MEMB      317             0.0000000000
     39396       317  PMPG      C212           32.2194823836       40.1868241161       -6.5046301981  MEMB      317             0.0000000000
     39397       317  PMPG      H12R           31.6888776288       41.0322486748       -6.9925207031  MEMB      317             0.0000000000
     39398       317  PMPG      H12S           33.2857708521       40.1349207775       -6.8122919202  MEMB      317             0.0000000000
     39399       317  PMPG      C213           32.0606379523       40.3599357131       -4.9769006969  MEMB      317             0.0000000000
     39400       317  PMPG      H13R           31.1832065550       39.7749150802       -4.6273493976  MEMB      317             0.0000000000
     39401       317  PMPG      H13S           31.8239576071       41.4102886895       -4.7029258695  MEMB      317             0.0000000000
     39402       317  PMPG      C214           33.2895843812       40.0135927935       -4.0576272922  MEMB      317             0.0000000000
     39403       317  PMPG      H14R           34.2319234150       40.2879906476       -4.5782266343  MEMB      317             0.0000000000
     39404       317  PMPG      H14S           33.3237920413       38.9117356600       -3.9195627208  MEMB      317             0.0000000000
     39405       317  PMPG      C215           33.1557488503       40.5900586655       -2.5832802136  MEMB      317             0.0000000000
     39406       317  PMPG      H15R           33.1816133807       41.7004367703       -2.6099725352  MEMB      317             0.0000000000
     39407       317  PMPG      H15S           34.1263719015       40.3444648530       -2.1017244330  MEMB      317             0.0000000000
     39408       317  PMPG      C216           32.0858132393       39.8547846376       -1.7526256947  MEMB      317             0.0000000000
     39409       317  PMPG      H16R           31.8834753203       40.4738646614       -0.8525587158  MEMB      317             0.0000000000
     39410       317  PMPG      H16S           32.4953860414       38.8929868307       -1.3764395566  MEMB      317             0.0000000000
     39411       317  PMPG      H16T           31.0603464761       39.6621558384       -2.1342428674  MEMB      317             0.0000000000
     39412       317  PMPG      C33            27.9321192806       40.8495112520       -8.9063432513  MEMB      317             0.0000000000
     39413       317  PMPG      H3X            26.9715293582       41.3463698105       -9.1607439430  MEMB      317             0.0000000000
     39414       317  PMPG      H3Y            28.2106224157       41.2578832733       -7.9113612487  MEMB      317             0.0000000000
     39415       317  PMPG      C34            27.5391102087       39.3854072419       -8.6115378725  MEMB      317             0.0000000000
     39416       317  PMPG      H4X            28.4795879925       38.8009302535       -8.5209339353  MEMB      317             0.0000000000
     39417       317  PMPG      H4Y            27.0973970337       38.9562676000       -9.5362269516  MEMB      317             0.0000000000
     39418       317  PMPG      C35            26.5742496766       39.2172566756       -7.4345068654  MEMB      317             0.0000000000
     39419       317  PMPG      H5X            25.8772214437       38.3954782357       -7.7049752318  MEMB      317             0.0000000000
     39420       317  PMPG      H5Y            25.8870824229       40.0844377389       -7.3339120881  MEMB      317             0.0000000000
     39421       317  PMPG      C36            27.2393439295       38.9739100647       -6.0872384394  MEMB      317             0.0000000000
     39422       317  PMPG      H6X            26.4035753164       39.1148877474       -5.3689509387  MEMB      317             0.0000000000
     39423       317  PMPG      H6Y            28.0520181394       39.7078477224       -5.8995763258  MEMB      317             0.0000000000
     39424       317  PMPG      C37            27.7300752038       37.5525425803       -5.8985494947  MEMB      317             0.0000000000
     39425       317  PMPG      H7X            28.8093536807       37.4891255959       -5.6427027927  MEMB      317             0.0000000000
     39426       317  PMPG      H7Y            27.5708271537       36.9876351079       -6.8418629739  MEMB      317             0.0000000000
     39427       317  PMPG      C38            26.9842535323       36.8983791664       -4.6732417231  MEMB      317             0.0000000000
     39428       317  PMPG      H8X            27.1591830471       35.8114144693       -4.8223338118  MEMB      317             0.0000000000
     39429       317  PMPG      H8Y            25.9047967596       37.1087513374       -4.5156423010  MEMB      317             0.0000000000
     39430       317  PMPG      C39            27.7335970959       37.1164204683       -3.3185055712  MEMB      317             0.0000000000
     39431       317  PMPG      H9X            28.7947861042       36.9271063798       -3.5875019091  MEMB      317             0.0000000000
     39432       317  PMPG      H9Y            27.4272224557       36.3057106459       -2.6233757162  MEMB      317             0.0000000000
     39433       317  PMPG      C310           27.6550349014       38.5812786844       -2.7838321078  MEMB      317             0.0000000000
     39434       317  PMPG      H10X           27.8333357651       39.1960818119       -3.6918775779  MEMB      317             0.0000000000
     39435       317  PMPG      H10Y           28.5653008064       38.6199737354       -2.1480327705  MEMB      317             0.0000000000
     39436       317  PMPG      C311           26.3313887772       38.9107468333       -1.9705389364  MEMB      317             0.0000000000
     39437       317  PMPG      H11X           26.1322267056       38.0304145348       -1.3227183933  MEMB      317             0.0000000000
     39438       317  PMPG      H11Y           25.4924479752       39.2478847356       -2.6161682878  MEMB      317             0.0000000000
     39439       317  PMPG      C312           26.4535456277       40.2257875700       -1.1258838297  MEMB      317             0.0000000000
     39440       317  PMPG      H12X           25.6366580922       40.3674066816       -0.3863163106  MEMB      317             0.0000000000
     39441       317  PMPG      H12Y           26.4626469163       41.0615792382       -1.8577925648  MEMB      317             0.0000000000
     39442       317  PMPG      C313           27.7863403165       40.2823742081       -0.3088625300  MEMB      317             0.0000000000
     39443       317  PMPG      H13X           28.6287489101       40.3963571629       -1.0241777831  MEMB      317             0.0000000000
     39444       317  PMPG      H13Y           27.9138024028       39.3324727835        0.2530648330  MEMB      317             0.0000000000
     39445       317  PMPG      C314           27.7253766226       41.4804497937        0.6131156016  MEMB      317             0.0000000000
     39446       317  PMPG      H14X           27.0137581993       41.1859373801        1.4138555071  MEMB      317             0.0000000000
     39447       317  PMPG      H14Y           27.1925297055       42.3530787856        0.1784743814  MEMB      317             0.0000000000
     39448       317  PMPG      C315           29.1253418248       41.9229586487        1.2123496006  MEMB      317             0.0000000000
     39449       317  PMPG      H15X           29.7052292905       41.1686325080        1.7859736325  MEMB      317             0.0000000000
     39450       317  PMPG      H15Y           28.9032267478       42.6892265669        1.9855375598  MEMB      317             0.0000000000
     39451       317  PMPG      C316           29.9836868042       42.7014645764        0.1644456568  MEMB      317             0.0000000000
     39452       317  PMPG      H16X           30.8302279003       43.0720399121        0.7811816399  MEMB      317             0.0000000000
     39453       317  PMPG      H16Y           29.3727199787       43.6159831870        0.0072973587  MEMB      317             0.0000000000
     39454       317  PMPG      H16Z           30.3143549710       42.0707647117       -0.6883121034  MEMB      317             0.0000000000
     39455       318  PYPG      C13           -24.3462448463       40.9952960284      -18.9604945876  MEMB      318             0.0000000000
     39456       318  PYPG      H13A          -24.2315076783       39.9135330458      -18.7347842623  MEMB      318             0.0000000000
     39457       318  PYPG      H13B          -23.8138693639       41.5491139911      -18.1578844132  MEMB      318             0.0000000000
     39458       318  PYPG      OC3           -25.7276155158       41.5011162282      -19.0786083412  MEMB      318             0.0000000000
     39459       318  PYPG      HO3           -25.9788008389       40.9830715037      -19.8468112489  MEMB      318             0.0000000000
     39460       318  PYPG      C12           -23.5325600960       41.4552499657      -20.2246658039  MEMB      318             0.0000000000
     39461       318  PYPG      H12A          -24.2069868449       41.3558825952      -21.1067393417  MEMB      318             0.0000000000
     39462       318  PYPG      OC2           -22.4112290574       40.5942728215      -20.4280765924  MEMB      318             0.0000000000
     39463       318  PYPG      HO2           -21.9117324821       41.0470362460      -21.1423771544  MEMB      318             0.0000000000
     39464       318  PYPG      C11           -23.1120993401       42.9554257432      -20.0450049882  MEMB      318             0.0000000000
     39465       318  PYPG      H11A          -24.0938945007       43.4685751827      -19.9608813136  MEMB      318             0.0000000000
     39466       318  PYPG      H11B          -22.4797619280       43.4281298013      -20.8266834558  MEMB      318             0.0000000000
     39467       318  PYPG      P             -21.9244275460       44.4421972672      -18.2610210071  MEMB      318             0.0000000000
     39468       318  PYPG      O13           -21.2116586386       45.3081022522      -19.2215481955  MEMB      318             0.0000000000
     39469       318  PYPG      O14           -21.0741574612       44.1806988216      -17.0723010653  MEMB      318             0.0000000000
     39470       318  PYPG      O11           -23.2896974526       45.0976386496      -17.8571520680  MEMB      318             0.0000000000
     39471       318  PYPG      O12           -22.2916610174       43.0909432077      -18.8511273105  MEMB      318             0.0000000000
     39472       318  PYPG      C1            -24.3973112030       44.3656629798      -17.2647360278  MEMB      318             0.0000000000
     39473       318  PYPG      HA            -24.2500338171       43.2723324332      -17.1333636373  MEMB      318             0.0000000000
     39474       318  PYPG      HB            -25.2951482839       44.5753269823      -17.8846155082  MEMB      318             0.0000000000
     39475       318  PYPG      C2            -24.6574071932       45.0078370390      -15.9117903247  MEMB      318             0.0000000000
     39476       318  PYPG      HS            -24.9040919984       46.0795476026      -16.0696008821  MEMB      318             0.0000000000
     39477       318  PYPG      O21           -23.4712917323       44.8575215380      -15.1394958126  MEMB      318             0.0000000000
     39478       318  PYPG      C21           -23.2622058801       45.5840689795      -14.1603778349  MEMB      318             0.0000000000
     39479       318  PYPG      O22           -23.8718047476       46.6003332158      -13.7924430272  MEMB      318             0.0000000000
     39480       318  PYPG      C22           -22.0153389765       45.0643954433      -13.3969450739  MEMB      318             0.0000000000
     39481       318  PYPG      H2R           -21.2633026799       44.8804432132      -14.1937662049  MEMB      318             0.0000000000
     39482       318  PYPG      H2S           -22.1902129538       44.0993441791      -12.8750101718  MEMB      318             0.0000000000
     39483       318  PYPG      C3            -25.8520536812       44.4472880546      -15.1384953828  MEMB      318             0.0000000000
     39484       318  PYPG      HX            -26.7644410037       44.4730399807      -15.7719043325  MEMB      318             0.0000000000
     39485       318  PYPG      HY            -26.0164263833       45.0590213570      -14.2257603791  MEMB      318             0.0000000000
     39486       318  PYPG      O31           -25.5155006231       43.0914378165      -14.6382058560  MEMB      318             0.0000000000
     39487       318  PYPG      C31           -26.1932042722       42.1257548920      -15.1577461179  MEMB      318             0.0000000000
     39488       318  PYPG      O32           -27.1467193388       42.1553947245      -15.9479004580  MEMB      318             0.0000000000
     39489       318  PYPG      C32           -25.4357558993       40.8422896574      -14.8321191841  MEMB      318             0.0000000000
     39490       318  PYPG      H2X           -25.8918389649       40.3905024888      -13.9253682050  MEMB      318             0.0000000000
     39491       318  PYPG      H2Y           -25.5748081158       40.0521679559      -15.6006848220  MEMB      318             0.0000000000
     39492       318  PYPG      C23           -21.4785943028       46.1990434099      -12.4550417968  MEMB      318             0.0000000000
     39493       318  PYPG      H3R           -22.2930193384       46.4377945547      -11.7380823178  MEMB      318             0.0000000000
     39494       318  PYPG      H3S           -21.2670087482       47.0227533621      -13.1699223352  MEMB      318             0.0000000000
     39495       318  PYPG      C24           -20.1764754457       45.6104511406      -11.7511567852  MEMB      318             0.0000000000
     39496       318  PYPG      H4R           -19.5240412089       45.1295686945      -12.5110270144  MEMB      318             0.0000000000
     39497       318  PYPG      H4S           -20.3939275833       44.8606623750      -10.9606809814  MEMB      318             0.0000000000
     39498       318  PYPG      C25           -19.4334064845       46.8411521024      -11.1541488790  MEMB      318             0.0000000000
     39499       318  PYPG      H5R           -19.5715637457       47.6438170962      -11.9097696517  MEMB      318             0.0000000000
     39500       318  PYPG      H5S           -18.3780604602       46.5105710654      -11.0479313231  MEMB      318             0.0000000000
     39501       318  PYPG      C26           -19.9197071832       47.3730507244       -9.8143153878  MEMB      318             0.0000000000
     39502       318  PYPG      H6R           -21.0257799894       47.4770702192       -9.8244933473  MEMB      318             0.0000000000
     39503       318  PYPG      H6S           -19.6310997007       48.4302435434       -9.6316398201  MEMB      318             0.0000000000
     39504       318  PYPG      C27           -19.6364115248       46.5034643757       -8.5991206508  MEMB      318             0.0000000000
     39505       318  PYPG      H7R           -18.5759047841       46.1755686467       -8.6452816684  MEMB      318             0.0000000000
     39506       318  PYPG      H7S           -20.2125866205       45.5554858180       -8.5384588301  MEMB      318             0.0000000000
     39507       318  PYPG      C28           -19.6304393804       47.3385611338       -7.2390927263  MEMB      318             0.0000000000
     39508       318  PYPG      H8R           -18.7185443144       47.9719310940       -7.1989541136  MEMB      318             0.0000000000
     39509       318  PYPG      H8S           -19.4583061582       46.6263719276       -6.4039415148  MEMB      318             0.0000000000
     39510       318  PYPG      C29           -20.8637134761       48.1669047628       -7.0446900064  MEMB      318             0.0000000000
     39511       318  PYPG      H9R           -20.6473432562       49.2452552375       -7.0632425851  MEMB      318             0.0000000000
     39512       318  PYPG      C210          -22.1239238418       47.7429280958       -6.7736005597  MEMB      318             0.0000000000
     39513       318  PYPG      H10R          -22.9572955595       48.4543863755       -6.6770686427  MEMB      318             0.0000000000
     39514       318  PYPG      C211          -22.5109367959       46.2739631634       -6.6391774169  MEMB      318             0.0000000000
     39515       318  PYPG      H11R          -21.6165094974       45.6166847287       -6.6871965720  MEMB      318             0.0000000000
     39516       318  PYPG      H11S          -23.1761090165       46.0569208770       -7.5021716140  MEMB      318             0.0000000000
     39517       318  PYPG      C212          -23.2253993853       46.0053863896       -5.2727049129  MEMB      318             0.0000000000
     39518       318  PYPG      H12R          -23.6384156924       44.9869568681       -5.4356155401  MEMB      318             0.0000000000
     39519       318  PYPG      H12S          -24.0155681304       46.7740172066       -5.1342814785  MEMB      318             0.0000000000
     39520       318  PYPG      C213          -22.4542693429       46.0450803296       -3.9604771360  MEMB      318             0.0000000000
     39521       318  PYPG      H13R          -22.4342842887       47.0788913331       -3.5540826285  MEMB      318             0.0000000000
     39522       318  PYPG      H13S          -21.4034025496       45.7280920391       -4.1322861999  MEMB      318             0.0000000000
     39523       318  PYPG      C214          -23.0437865399       45.0634731116       -2.9298108445  MEMB      318             0.0000000000
     39524       318  PYPG      H14R          -23.3327754212       44.0437962908       -3.2630773690  MEMB      318             0.0000000000
     39525       318  PYPG      H14S          -22.1887430348       44.9837068784       -2.2249285352  MEMB      318             0.0000000000
     39526       318  PYPG      C215          -24.1670114676       45.6578949026       -2.0571091644  MEMB      318             0.0000000000
     39527       318  PYPG      H15R          -23.9108568716       46.5325857928       -1.4217959548  MEMB      318             0.0000000000
     39528       318  PYPG      H15S          -24.3419384113       44.9362194382       -1.2307277396  MEMB      318             0.0000000000
     39529       318  PYPG      C216          -25.4340836489       45.6993979117       -2.8094738247  MEMB      318             0.0000000000
     39530       318  PYPG      H16R          -26.2387613961       46.2110225443       -2.2393387616  MEMB      318             0.0000000000
     39531       318  PYPG      H16S          -25.8503489320       44.7200643909       -3.1287708535  MEMB      318             0.0000000000
     39532       318  PYPG      H16T          -25.3632609512       46.3910968169       -3.6759945591  MEMB      318             0.0000000000
     39533       318  PYPG      C33           -23.9837960634       41.1232916401      -14.4922607552  MEMB      318             0.0000000000
     39534       318  PYPG      H3X           -23.6551736080       41.9429223284      -15.1664519438  MEMB      318             0.0000000000
     39535       318  PYPG      H3Y           -23.4297483666       40.2281149209      -14.8472407532  MEMB      318             0.0000000000
     39536       318  PYPG      C34           -23.6801772159       41.2829768861      -12.9282965254  MEMB      318             0.0000000000
     39537       318  PYPG      H4X           -24.2052196442       40.5140044651      -12.3222167513  MEMB      318             0.0000000000
     39538       318  PYPG      H4Y           -24.0403649147       42.2653708696      -12.5548154548  MEMB      318             0.0000000000
     39539       318  PYPG      C35           -22.1465150541       41.1109177177      -12.5982232849  MEMB      318             0.0000000000
     39540       318  PYPG      H5X           -21.5802890873       41.8320115312      -13.2257045476  MEMB      318             0.0000000000
     39541       318  PYPG      H5Y           -21.8372286381       40.0778945475      -12.8656667631  MEMB      318             0.0000000000
     39542       318  PYPG      C36           -21.7436167843       41.3951943999      -11.1131972160  MEMB      318             0.0000000000
     39543       318  PYPG      H6X           -22.0911896823       40.5299530795      -10.5091512530  MEMB      318             0.0000000000
     39544       318  PYPG      H6Y           -22.2436024601       42.3216731546      -10.7582708504  MEMB      318             0.0000000000
     39545       318  PYPG      C37           -20.2655149066       41.3692456730      -10.9773728562  MEMB      318             0.0000000000
     39546       318  PYPG      H7X           -19.9184770440       40.4009534671      -11.3972484985  MEMB      318             0.0000000000
     39547       318  PYPG      H7Y           -19.7917951572       42.2915168596      -11.3765299516  MEMB      318             0.0000000000
     39548       318  PYPG      C38           -19.7987776703       41.2953913426       -9.4857625901  MEMB      318             0.0000000000
     39549       318  PYPG      H8X           -18.7569178774       40.9132822514       -9.4324517379  MEMB      318             0.0000000000
     39550       318  PYPG      H8Y           -20.3613430705       40.4532820087       -9.0289333075  MEMB      318             0.0000000000
     39551       318  PYPG      C39           -19.8502807991       42.6066813249       -8.6617678107  MEMB      318             0.0000000000
     39552       318  PYPG      H9X           -20.5379910155       43.2851827143       -9.2104126718  MEMB      318             0.0000000000
     39553       318  PYPG      H9Y           -18.8912016266       43.1674601898       -8.6578752642  MEMB      318             0.0000000000
     39554       318  PYPG      C310          -20.4083710092       42.4554737182       -7.2463448064  MEMB      318             0.0000000000
     39555       318  PYPG      H10X          -21.2952160121       41.8012400423       -7.3870763412  MEMB      318             0.0000000000
     39556       318  PYPG      H10Y          -20.7601442519       43.4300094885       -6.8452759292  MEMB      318             0.0000000000
     39557       318  PYPG      C311          -19.4592881852       41.7176509477       -6.3078346970  MEMB      318             0.0000000000
     39558       318  PYPG      H11X          -18.4384860622       42.1555645299       -6.2851292794  MEMB      318             0.0000000000
     39559       318  PYPG      H11Y          -19.4845541577       40.6324826419       -6.5446728204  MEMB      318             0.0000000000
     39560       318  PYPG      C312          -19.9547417682       41.5957420435       -4.9043751611  MEMB      318             0.0000000000
     39561       318  PYPG      H12X          -21.0511719313       41.4423126260       -4.8115260353  MEMB      318             0.0000000000
     39562       318  PYPG      H12Y          -19.5023266835       40.6543482528       -4.5256674885  MEMB      318             0.0000000000
     39563       318  PYPG      C313          -19.4272175884       42.7037604482       -3.9683129085  MEMB      318             0.0000000000
     39564       318  PYPG      H13X          -18.3591614278       42.4877519675       -3.7517075982  MEMB      318             0.0000000000
     39565       318  PYPG      H13Y          -19.4101331107       43.7139556064       -4.4304111610  MEMB      318             0.0000000000
     39566       318  PYPG      C314          -20.0317148585       42.7136188887       -2.6413598778  MEMB      318             0.0000000000
     39567       318  PYPG      H14X          -21.0500045195       43.1569867504       -2.6702031435  MEMB      318             0.0000000000
     39568       318  PYPG      H14Y          -20.1408447951       41.7388203428       -2.1196513119  MEMB      318             0.0000000000
     39569       318  PYPG      C315          -19.2355807327       43.5235949908       -1.5587727413  MEMB      318             0.0000000000
     39570       318  PYPG      H15X          -19.7624579542       43.5233684845       -0.5806515475  MEMB      318             0.0000000000
     39571       318  PYPG      H15Y          -18.2834581020       42.9848642540       -1.3649876716  MEMB      318             0.0000000000
     39572       318  PYPG      C316          -18.8842256566       44.9460869915       -1.9461657502  MEMB      318             0.0000000000
     39573       318  PYPG      H16X          -18.0032077150       44.9267782836       -2.6227425647  MEMB      318             0.0000000000
     39574       318  PYPG      H16Y          -18.5773007309       45.4950054890       -1.0303017625  MEMB      318             0.0000000000
     39575       318  PYPG      H16Z          -19.7527060941       45.4437777218       -2.4282092485  MEMB      318             0.0000000000
     39576       319  PVCL2     C3             34.0413121173      -32.3494398354      -17.9461848488  MEMB      319             0.0000000000
     39577       319  PVCL2     HG31           34.0416378681      -31.2432294973      -17.8431348300  MEMB      319             0.0000000000
     39578       319  PVCL2     HG32           33.2681155638      -32.6375629651      -17.2022272272  MEMB      319             0.0000000000
     39579       319  PVCL2     P3             35.5825554739      -34.3174680706      -17.0460533969  MEMB      319             0.0000000000
     39580       319  PVCL2     OP33           34.7226764504      -35.2333711046      -17.8060683716  MEMB      319             0.0000000000
     39581       319  PVCL2     OP34           35.3123308126      -34.3048403846      -15.6241458330  MEMB      319             0.0000000000
     39582       319  PVCL2     OP31           35.3509358093      -32.8191357071      -17.6392997709  MEMB      319             0.0000000000
     39583       319  PVCL2     OP32           37.0541949273      -34.5809488494      -17.4226612345  MEMB      319             0.0000000000
     39584       319  PVCL2     C31            37.9933384087      -33.7476552040      -18.1087258096  MEMB      319             0.0000000000
     39585       319  PVCL2     H31J           37.9239735893      -34.0096116963      -19.1861709989  MEMB      319             0.0000000000
     39586       319  PVCL2     H31K           37.8616578435      -32.6445490955      -18.1204870884  MEMB      319             0.0000000000
     39587       319  PVCL2     C2             33.5195817844      -32.7565394239      -19.3100112649  MEMB      319             0.0000000000
     39588       319  PVCL2     HG22           33.1399199965      -33.8005626524      -19.2961074037  MEMB      319             0.0000000000
     39589       319  PVCL2     OG12           32.3565025534      -32.0202444455      -19.7370887549  MEMB      319             0.0000000000
     39590       319  PVCL2     HO12           32.5143024119      -31.8522899763      -20.6690170503  MEMB      319             0.0000000000
     39591       319  PVCL2     C1             34.5894756020      -32.7491072346      -20.5298233704  MEMB      319             0.0000000000
     39592       319  PVCL2     HG11           35.0857542760      -31.7637908856      -20.3987507279  MEMB      319             0.0000000000
     39593       319  PVCL2     HG12           33.9747185983      -32.6441172218      -21.4492645072  MEMB      319             0.0000000000
     39594       319  PVCL2     P1             35.0785991341      -35.2648632638      -21.0639434575  MEMB      319             0.0000000000
     39595       319  PVCL2     OP13           34.8499267972      -35.0472134575      -22.5319314198  MEMB      319             0.0000000000
     39596       319  PVCL2     OP14           36.0594184385      -36.2434666119      -20.5969465310  MEMB      319             0.0000000000
     39597       319  PVCL2     OP11           35.4913842334      -33.8411983997      -20.4695859952  MEMB      319             0.0000000000
     39598       319  PVCL2     OP12           33.6731339472      -35.7062285643      -20.3851355539  MEMB      319             0.0000000000
     39599       319  PVCL2     C11            32.4480429310      -35.9331761775      -21.0742773472  MEMB      319             0.0000000000
     39600       319  PVCL2     H11J           32.5846353241      -36.5786335974      -21.9681723520  MEMB      319             0.0000000000
     39601       319  PVCL2     H11K           31.9660431256      -34.9666039975      -21.3345381387  MEMB      319             0.0000000000
     39602       319  PVCL2     C12            31.3564060502      -36.5669489757      -20.1463125368  MEMB      319             0.0000000000
     39603       319  PVCL2     H12J           30.3538848586      -36.5320218257      -20.6238607894  MEMB      319             0.0000000000
     39604       319  PVCL2     O12            31.4544038123      -35.8574435566      -18.8137513811  MEMB      319             0.0000000000
     39605       319  PVCL2     CA1            30.3358015751      -35.8249462409      -18.2089678061  MEMB      319             0.0000000000
     39606       319  PVCL2     OA1            29.2859525050      -36.4150374904      -18.5100902903  MEMB      319             0.0000000000
     39607       319  PVCL2     CA2            30.3911382048      -34.8564242254      -17.0587615788  MEMB      319             0.0000000000
     39608       319  PVCL2     H2A            29.5375467792      -34.1478793616      -17.1193151390  MEMB      319             0.0000000000
     39609       319  PVCL2     H2B            31.2791072299      -34.2034362214      -17.1981845477  MEMB      319             0.0000000000
     39610       319  PVCL2     C13            31.6781658841      -38.1148956461      -19.9497013981  MEMB      319             0.0000000000
     39611       319  PVCL2     H13J           31.7331437400      -38.5779054117      -20.9581260750  MEMB      319             0.0000000000
     39612       319  PVCL2     H13K           30.9093758847      -38.6016254863      -19.3122238158  MEMB      319             0.0000000000
     39613       319  PVCL2     O13            32.9994817530      -38.1654199209      -19.3877257764  MEMB      319             0.0000000000
     39614       319  PVCL2     CB1            33.2668160286      -39.0399019176      -18.4656466198  MEMB      319             0.0000000000
     39615       319  PVCL2     OB1            32.4986743110      -39.7255404653      -17.8804475097  MEMB      319             0.0000000000
     39616       319  PVCL2     CB2            34.8087177713      -38.9356588552      -18.1538785701  MEMB      319             0.0000000000
     39617       319  PVCL2     H2D            35.2745231508      -38.1264846588      -18.7560274307  MEMB      319             0.0000000000
     39618       319  PVCL2     H2E            35.2006295660      -39.9541638839      -18.3621420424  MEMB      319             0.0000000000
     39619       319  PVCL2     C32            39.4141239265      -34.0188199359      -17.5421507582  MEMB      319             0.0000000000
     39620       319  PVCL2     H32J           40.1391062797      -33.7766675351      -18.3484285261  MEMB      319             0.0000000000
     39621       319  PVCL2     O32            39.5079134225      -35.3687995107      -17.1532858012  MEMB      319             0.0000000000
     39622       319  PVCL2     CC1            40.7498976227      -35.8498279114      -17.0255396468  MEMB      319             0.0000000000
     39623       319  PVCL2     OC1            41.7420757878      -35.4635696807      -17.6148633646  MEMB      319             0.0000000000
     39624       319  PVCL2     CC2            40.7934136990      -36.8969627680      -15.9526001927  MEMB      319             0.0000000000
     39625       319  PVCL2     H2R            40.1662521220      -37.7401073295      -16.3132892978  MEMB      319             0.0000000000
     39626       319  PVCL2     H2S            40.1833701482      -36.5684796557      -15.0841151844  MEMB      319             0.0000000000
     39627       319  PVCL2     C33            39.6818806894      -33.0899941174      -16.2830493924  MEMB      319             0.0000000000
     39628       319  PVCL2     H33J           40.7567369712      -32.9099218408      -16.0672288306  MEMB      319             0.0000000000
     39629       319  PVCL2     H33K           39.3332605944      -32.1285855366      -16.7171904122  MEMB      319             0.0000000000
     39630       319  PVCL2     O33            38.9167101149      -33.5697413683      -15.2023796283  MEMB      319             0.0000000000
     39631       319  PVCL2     CD1            39.6333364695      -34.0266928538      -14.0670573437  MEMB      319             0.0000000000
     39632       319  PVCL2     OD1            40.8598818072      -33.9921567058      -13.8816504842  MEMB      319             0.0000000000
     39633       319  PVCL2     CD2            38.5954880507      -34.7754662832      -13.1490924509  MEMB      319             0.0000000000
     39634       319  PVCL2     H2X            39.0940153034      -35.5302187602      -12.5040033112  MEMB      319             0.0000000000
     39635       319  PVCL2     H2Y            37.8881702709      -35.2842989926      -13.8383762054  MEMB      319             0.0000000000
     39636       319  PVCL2     CA3            30.4172232988      -35.8316406863      -15.7853502263  MEMB      319             0.0000000000
     39637       319  PVCL2     H3A            29.5387760749      -36.5073118313      -15.8635806206  MEMB      319             0.0000000000
     39638       319  PVCL2     H3B            30.3488579941      -35.0898063510      -14.9611358967  MEMB      319             0.0000000000
     39639       319  PVCL2     CA4            31.7286903368      -36.5957302539      -15.5864869571  MEMB      319             0.0000000000
     39640       319  PVCL2     H4A            32.5837754915      -35.8952620679      -15.6982666604  MEMB      319             0.0000000000
     39641       319  PVCL2     H4B            31.7132360853      -37.2667199124      -16.4718429958  MEMB      319             0.0000000000
     39642       319  PVCL2     CA5            31.6818471614      -37.4721100603      -14.3446270169  MEMB      319             0.0000000000
     39643       319  PVCL2     H5A            32.4308769595      -38.2882587173      -14.4293423249  MEMB      319             0.0000000000
     39644       319  PVCL2     H5B            30.7033681055      -37.9981113110      -14.3297084476  MEMB      319             0.0000000000
     39645       319  PVCL2     CA6            31.7791376951      -36.7067730600      -13.0471687314  MEMB      319             0.0000000000
     39646       319  PVCL2     H6A            30.9133594291      -36.0163366922      -12.9574618388  MEMB      319             0.0000000000
     39647       319  PVCL2     H6B            32.7256908543      -36.1275153273      -13.1002578121  MEMB      319             0.0000000000
     39648       319  PVCL2     CA7            31.6761947782      -37.5771556680      -11.8092477767  MEMB      319             0.0000000000
     39649       319  PVCL2     H7A            30.8023078189      -38.2627105122      -11.8348759669  MEMB      319             0.0000000000
     39650       319  PVCL2     H7B            31.4144023026      -36.9264420276      -10.9476462614  MEMB      319             0.0000000000
     39651       319  PVCL2     CA8            33.0457495655      -38.3155869014      -11.4379274663  MEMB      319             0.0000000000
     39652       319  PVCL2     H8A            33.8780117927      -37.6094250316      -11.2305727536  MEMB      319             0.0000000000
     39653       319  PVCL2     H8B            33.3924206223      -38.9291871147      -12.2967840637  MEMB      319             0.0000000000
     39654       319  PVCL2     CA9            32.7686182867      -39.1750503592      -10.2129438041  MEMB      319             0.0000000000
     39655       319  PVCL2     H9A            32.0427331108      -39.9564013246      -10.5242351899  MEMB      319             0.0000000000
     39656       319  PVCL2     H9B            32.1928300740      -38.6565434716       -9.4167406825  MEMB      319             0.0000000000
     39657       319  PVCL2     CA10           34.0537298274      -39.8261776093       -9.5749643266  MEMB      319             0.0000000000
     39658       319  PVCL2     H10A           34.7204943536      -40.2166963702      -10.3732379445  MEMB      319             0.0000000000
     39659       319  PVCL2     H10B           33.7504034846      -40.7161193745       -8.9830870863  MEMB      319             0.0000000000
     39660       319  PVCL2     CA11           34.8119250104      -38.8566688938       -8.6063978356  MEMB      319             0.0000000000
     39661       319  PVCL2     H11A           35.7665630398      -38.4621303873       -8.9845585684  MEMB      319             0.0000000000
     39662       319  PVCL2     CA12           34.3094938507      -38.2454414685       -7.5371502266  MEMB      319             0.0000000000
     39663       319  PVCL2     H12A           35.0718158713      -37.6733140481       -6.9880274053  MEMB      319             0.0000000000
     39664       319  PVCL2     CA13           32.9242411342      -38.3207257662       -6.9576184598  MEMB      319             0.0000000000
     39665       319  PVCL2     H13A           32.5463186211      -39.3144822391       -7.2800210134  MEMB      319             0.0000000000
     39666       319  PVCL2     H13B           32.3132820108      -37.4585760343       -7.3007627721  MEMB      319             0.0000000000
     39667       319  PVCL2     CA14           32.7380517765      -38.2922170377       -5.4092031415  MEMB      319             0.0000000000
     39668       319  PVCL2     H14A           33.4867689560      -39.0157488119       -5.0215889778  MEMB      319             0.0000000000
     39669       319  PVCL2     H14B           31.6946982622      -38.5631195763       -5.1402315317  MEMB      319             0.0000000000
     39670       319  PVCL2     CA15           33.0313922655      -36.8952052925       -4.8729839023  MEMB      319             0.0000000000
     39671       319  PVCL2     H15A           32.2772402291      -36.2043516661       -5.3069161095  MEMB      319             0.0000000000
     39672       319  PVCL2     H15B           34.0118916946      -36.5835935993       -5.2923173175  MEMB      319             0.0000000000
     39673       319  PVCL2     CA16           33.0451268114      -36.7295557517       -3.3551868099  MEMB      319             0.0000000000
     39674       319  PVCL2     H16A           32.1423038496      -37.1685827010       -2.8792800121  MEMB      319             0.0000000000
     39675       319  PVCL2     H16B           33.0474909303      -35.6859500840       -2.9741317860  MEMB      319             0.0000000000
     39676       319  PVCL2     CA17           34.2778797192      -37.3757965098       -2.7277780240  MEMB      319             0.0000000000
     39677       319  PVCL2     H17A           35.0675395706      -37.4023854967       -3.5088353496  MEMB      319             0.0000000000
     39678       319  PVCL2     H17B           33.9822489453      -38.4437944691       -2.6483800699  MEMB      319             0.0000000000
     39679       319  PVCL2     CA18           34.6800775764      -36.7177110174       -1.4810474855  MEMB      319             0.0000000000
     39680       319  PVCL2     H18A           33.7628907921      -36.5479380253       -0.8775024162  MEMB      319             0.0000000000
     39681       319  PVCL2     H18B           35.2204593552      -35.7516741021       -1.5763432897  MEMB      319             0.0000000000
     39682       319  PVCL2     H18C           35.2543952209      -37.4466459229       -0.8702020890  MEMB      319             0.0000000000
     39683       319  PVCL2     CB3            34.8415878467      -38.6852803709      -16.7059811100  MEMB      319             0.0000000000
     39684       319  PVCL2     H3D            34.4741780437      -39.5247676940      -16.0778160184  MEMB      319             0.0000000000
     39685       319  PVCL2     H3E            34.2949800874      -37.7323582465      -16.5402083861  MEMB      319             0.0000000000
     39686       319  PVCL2     CB4            36.3492928716      -38.4303680448      -16.3704930669  MEMB      319             0.0000000000
     39687       319  PVCL2     H4D            36.7401168550      -37.8718085659      -17.2477553267  MEMB      319             0.0000000000
     39688       319  PVCL2     H4E            36.7808986571      -39.4500389887      -16.4616446860  MEMB      319             0.0000000000
     39689       319  PVCL2     CB5            36.4952138209      -37.7526874171      -15.0411053710  MEMB      319             0.0000000000
     39690       319  PVCL2     H5D            35.7450714404      -36.9331927990      -15.0351136262  MEMB      319             0.0000000000
     39691       319  PVCL2     H5E            37.4497772319      -37.1904120753      -14.9575832939  MEMB      319             0.0000000000
     39692       319  PVCL2     CB6            36.2424865106      -38.6000489489      -13.8404794959  MEMB      319             0.0000000000
     39693       319  PVCL2     H6D            35.4132404144      -39.2744289777      -14.1436026840  MEMB      319             0.0000000000
     39694       319  PVCL2     H6E            35.8731033768      -38.0220164897      -12.9665485053  MEMB      319             0.0000000000
     39695       319  PVCL2     CB7            37.4452598348      -39.4560393197      -13.3627934480  MEMB      319             0.0000000000
     39696       319  PVCL2     H7D            38.3914949967      -38.8963655371      -13.5231842391  MEMB      319             0.0000000000
     39697       319  PVCL2     H7E            37.5754718151      -40.2592911294      -14.1192014169  MEMB      319             0.0000000000
     39698       319  PVCL2     CB8            37.3350920637      -40.0725552264      -11.9551265572  MEMB      319             0.0000000000
     39699       319  PVCL2     H8D            37.5087022719      -41.1681798238      -12.0166706747  MEMB      319             0.0000000000
     39700       319  PVCL2     H8E            36.3003362874      -40.0518795089      -11.5511784673  MEMB      319             0.0000000000
     39701       319  PVCL2     CB9            38.2647020938      -39.6139074918      -10.8153459575  MEMB      319             0.0000000000
     39702       319  PVCL2     H9D            38.1440772057      -38.5095716344      -10.8007498952  MEMB      319             0.0000000000
     39703       319  PVCL2     H9E            39.3613674185      -39.6628845811      -10.9863641168  MEMB      319             0.0000000000
     39704       319  PVCL2     CB10           37.9395297153      -40.2784931260       -9.4708336500  MEMB      319             0.0000000000
     39705       319  PVCL2     H10D           38.2532204594      -41.3404494548       -9.5612094017  MEMB      319             0.0000000000
     39706       319  PVCL2     H10E           36.8590167910      -40.2974549282       -9.2130480793  MEMB      319             0.0000000000
     39707       319  PVCL2     CB11           38.8266602892      -39.4959870881       -8.4192479902  MEMB      319             0.0000000000
     39708       319  PVCL2     H11D           38.5245544488      -38.4269677305       -8.4034136730  MEMB      319             0.0000000000
     39709       319  PVCL2     H11E           39.9021319505      -39.6823199992       -8.6265205305  MEMB      319             0.0000000000
     39710       319  PVCL2     CB12           38.4945535469      -40.0010914154       -7.0308102055  MEMB      319             0.0000000000
     39711       319  PVCL2     H12D           37.4263836841      -39.8170933111       -6.7869270611  MEMB      319             0.0000000000
     39712       319  PVCL2     H12E           39.0295547827      -39.3706611747       -6.2887511398  MEMB      319             0.0000000000
     39713       319  PVCL2     CB13           38.8855782531      -41.3975392854       -6.7683566179  MEMB      319             0.0000000000
     39714       319  PVCL2     H13D           39.8308989203      -41.6739712701       -7.2824337869  MEMB      319             0.0000000000
     39715       319  PVCL2     H13E           38.2183927145      -42.0790383947       -7.3382179060  MEMB      319             0.0000000000
     39716       319  PVCL2     CB14           38.8280824553      -41.9676827411       -5.3603655291  MEMB      319             0.0000000000
     39717       319  PVCL2     H14D           39.5079347352      -41.2374207448       -4.8716528362  MEMB      319             0.0000000000
     39718       319  PVCL2     H14E           39.3576359255      -42.9439436806       -5.3319242709  MEMB      319             0.0000000000
     39719       319  PVCL2     CB15           37.4684002038      -42.0462997221       -4.7044639511  MEMB      319             0.0000000000
     39720       319  PVCL2     H15D           36.8409894609      -42.8976258380       -5.0449352035  MEMB      319             0.0000000000
     39721       319  PVCL2     H15E           36.8923920924      -41.1381188994       -4.9832899193  MEMB      319             0.0000000000
     39722       319  PVCL2     CB16           37.5339249320      -42.0753777189       -3.1993004503  MEMB      319             0.0000000000
     39723       319  PVCL2     H16D           38.0263776803      -43.0405565730       -2.9538592029  MEMB      319             0.0000000000
     39724       319  PVCL2     H16E           36.5183862036      -42.0896077261       -2.7489675502  MEMB      319             0.0000000000
     39725       319  PVCL2     H16F           38.0235320813      -41.1640772940       -2.7941617397  MEMB      319             0.0000000000
     39726       319  PVCL2     CC3            42.1972528655      -37.3328375750      -15.5651829350  MEMB      319             0.0000000000
     39727       319  PVCL2     H3R            42.8035074774      -36.4998537089      -15.1493534081  MEMB      319             0.0000000000
     39728       319  PVCL2     H3S            42.7449206033      -37.6038536722      -16.4930469005  MEMB      319             0.0000000000
     39729       319  PVCL2     CC4            42.1764006926      -38.5500714131      -14.6179615459  MEMB      319             0.0000000000
     39730       319  PVCL2     H4R            43.2400372346      -38.7225444581      -14.3473104593  MEMB      319             0.0000000000
     39731       319  PVCL2     H4S            41.7745998563      -39.4108984651      -15.1940292980  MEMB      319             0.0000000000
     39732       319  PVCL2     CC5            41.4085995453      -38.5615700291      -13.2751825643  MEMB      319             0.0000000000
     39733       319  PVCL2     H5R            41.4819951945      -39.6069769558      -12.9063220059  MEMB      319             0.0000000000
     39734       319  PVCL2     H5S            40.3230964095      -38.4043612975      -13.4520708330  MEMB      319             0.0000000000
     39735       319  PVCL2     CC6            42.0096139878      -37.6702558424      -12.1882451875  MEMB      319             0.0000000000
     39736       319  PVCL2     H6R            42.2792377874      -36.7164570894      -12.6901334473  MEMB      319             0.0000000000
     39737       319  PVCL2     H6S            42.9484533120      -38.0808756898      -11.7589518622  MEMB      319             0.0000000000
     39738       319  PVCL2     CC7            41.0102586964      -37.4195068263      -11.0984862516  MEMB      319             0.0000000000
     39739       319  PVCL2     H7R            40.7753524860      -38.4345188309      -10.7126229948  MEMB      319             0.0000000000
     39740       319  PVCL2     H7S            40.1509222154      -36.8844745718      -11.5563095924  MEMB      319             0.0000000000
     39741       319  PVCL2     CC8            41.5098433919      -36.4233422627      -10.0051245070  MEMB      319             0.0000000000
     39742       319  PVCL2     H8R            42.4515918280      -36.8553308340       -9.6041053732  MEMB      319             0.0000000000
     39743       319  PVCL2     H8S            40.7047874100      -36.5506994331       -9.2501505832  MEMB      319             0.0000000000
     39744       319  PVCL2     CC9            41.6650654266      -34.9453310169      -10.3709844090  MEMB      319             0.0000000000
     39745       319  PVCL2     H9R            40.8730998002      -34.7946896319      -11.1354578741  MEMB      319             0.0000000000
     39746       319  PVCL2     H9S            42.5199156664      -34.8472809820      -11.0737918511  MEMB      319             0.0000000000
     39747       319  PVCL2     CC10           41.5857950746      -33.8416558248       -9.3767228121  MEMB      319             0.0000000000
     39748       319  PVCL2     H10R           40.5706856760      -33.7883756438       -8.9283533015  MEMB      319             0.0000000000
     39749       319  PVCL2     H10S           41.6580715528      -32.9166491663       -9.9878354189  MEMB      319             0.0000000000
     39750       319  PVCL2     CC11           42.6528481596      -33.8094912121       -8.2942534468  MEMB      319             0.0000000000
     39751       319  PVCL2     H11R           43.6585975877      -33.4820169102       -8.5962940053  MEMB      319             0.0000000000
     39752       319  PVCL2     CC12           42.4578521350      -34.0466717420       -7.0025193980  MEMB      319             0.0000000000
     39753       319  PVCL2     H12R           43.2716009241      -33.9439548815       -6.2695373221  MEMB      319             0.0000000000
     39754       319  PVCL2     CC13           41.1423017576      -34.4400395159       -6.2632032302  MEMB      319             0.0000000000
     39755       319  PVCL2     H13R           40.5409961850      -35.1199072210       -6.9039314720  MEMB      319             0.0000000000
     39756       319  PVCL2     H13S           40.5419481860      -33.5062281054       -6.2196997995  MEMB      319             0.0000000000
     39757       319  PVCL2     CC14           41.3201335173      -35.1439921368       -4.9136763629  MEMB      319             0.0000000000
     39758       319  PVCL2     H14R           41.8786420106      -34.4923714067       -4.2081403813  MEMB      319             0.0000000000
     39759       319  PVCL2     H14S           41.8292501770      -36.1260090056       -5.0174274266  MEMB      319             0.0000000000
     39760       319  PVCL2     CC15           40.0340044959      -35.6058868125       -4.2124512638  MEMB      319             0.0000000000
     39761       319  PVCL2     H15R           39.4237062480      -36.0442548271       -5.0307972591  MEMB      319             0.0000000000
     39762       319  PVCL2     H15S           39.4111358915      -34.7613879864       -3.8475161615  MEMB      319             0.0000000000
     39763       319  PVCL2     CC16           40.3927857645      -36.6257297958       -3.1613395140  MEMB      319             0.0000000000
     39764       319  PVCL2     H16R           41.1754045991      -36.3043763246       -2.4412288371  MEMB      319             0.0000000000
     39765       319  PVCL2     H16S           40.8562550533      -37.5689562775       -3.5216743191  MEMB      319             0.0000000000
     39766       319  PVCL2     CC17           39.1620567673      -37.0305564499       -2.2929958165  MEMB      319             0.0000000000
     39767       319  PVCL2     H17R           38.5101784586      -36.2106106243       -1.9227735460  MEMB      319             0.0000000000
     39768       319  PVCL2     H17S           39.4972425405      -37.5610702236       -1.3761939789  MEMB      319             0.0000000000
     39769       319  PVCL2     CC18           38.2441848205      -37.9825119099       -3.0225602935  MEMB      319             0.0000000000
     39770       319  PVCL2     H18R           37.5161064040      -38.4860427014       -2.3512332530  MEMB      319             0.0000000000
     39771       319  PVCL2     H18S           38.9066613519      -38.7531861215       -3.4714558076  MEMB      319             0.0000000000
     39772       319  PVCL2     H18T           37.6928124961      -37.5250564143       -3.8717026507  MEMB      319             0.0000000000
     39773       319  PVCL2     CD3            37.7342176810      -33.8191341827      -12.2872385139  MEMB      319             0.0000000000
     39774       319  PVCL2     H3X            37.3915564699      -32.9551666699      -12.8958962821  MEMB      319             0.0000000000
     39775       319  PVCL2     H3Y            38.4806159423      -33.4541766785      -11.5496633622  MEMB      319             0.0000000000
     39776       319  PVCL2     CD4            36.5278591631      -34.5684566435      -11.7333527593  MEMB      319             0.0000000000
     39777       319  PVCL2     H4X            36.1060643422      -35.1310776789      -12.5935085019  MEMB      319             0.0000000000
     39778       319  PVCL2     H4Y            35.7518156616      -33.8523791314      -11.3879394851  MEMB      319             0.0000000000
     39779       319  PVCL2     CD5            36.8981340886      -35.4820588430      -10.5117275817  MEMB      319             0.0000000000
     39780       319  PVCL2     H5X            37.9201112926      -35.8966165431      -10.6459870074  MEMB      319             0.0000000000
     39781       319  PVCL2     H5Y            36.2134831727      -36.3499325099      -10.6229460477  MEMB      319             0.0000000000
     39782       319  PVCL2     CD6            36.7500873932      -34.7936904237       -9.1991600211  MEMB      319             0.0000000000
     39783       319  PVCL2     H6X            35.6613044015      -34.6597344329       -9.0232956208  MEMB      319             0.0000000000
     39784       319  PVCL2     H6Y            37.3314617854      -33.8477962733       -9.2392737743  MEMB      319             0.0000000000
     39785       319  PVCL2     CD7            37.3390852386      -35.4252730256       -7.9424990633  MEMB      319             0.0000000000
     39786       319  PVCL2     H7X            38.3836358260      -35.7011983552       -8.2015365138  MEMB      319             0.0000000000
     39787       319  PVCL2     H7Y            36.8489373495      -36.4104928245       -7.7894699393  MEMB      319             0.0000000000
     39788       319  PVCL2     CD8            37.3828576460      -34.4897392798       -6.7318676047  MEMB      319             0.0000000000
     39789       319  PVCL2     H8X            37.7848696947      -33.5516173959       -7.1707690605  MEMB      319             0.0000000000
     39790       319  PVCL2     H8Y            38.0791470150      -35.0128746671       -6.0420621829  MEMB      319             0.0000000000
     39791       319  PVCL2     CD9            36.0149059067      -34.1750589957       -6.2348386675  MEMB      319             0.0000000000
     39792       319  PVCL2     H9X            35.5305209398      -35.1271557230       -5.9295451834  MEMB      319             0.0000000000
     39793       319  PVCL2     H9Y            35.4121184241      -33.6878731597       -7.0308393122  MEMB      319             0.0000000000
     39794       319  PVCL2     CD10           36.0614447026      -33.2733193752       -5.0344804519  MEMB      319             0.0000000000
     39795       319  PVCL2     H10X           36.8925054487      -33.6382547364       -4.3937916682  MEMB      319             0.0000000000
     39796       319  PVCL2     H10Y           35.0925538405      -33.3164320418       -4.4925281097  MEMB      319             0.0000000000
     39797       319  PVCL2     CD11           36.2030697083      -31.7765861726       -5.3745742917  MEMB      319             0.0000000000
     39798       319  PVCL2     H11X           35.4382224490      -31.4227724654       -6.0985524578  MEMB      319             0.0000000000
     39799       319  PVCL2     H11Y           37.2268178338      -31.5309722276       -5.7294460067  MEMB      319             0.0000000000
     39800       319  PVCL2     CD12           36.2926625134      -30.8560288523       -4.1003587929  MEMB      319             0.0000000000
     39801       319  PVCL2     H12X           35.3633052838      -30.9104752624       -3.4940162380  MEMB      319             0.0000000000
     39802       319  PVCL2     H12Y           36.4587613764      -29.8191669735       -4.4631945913  MEMB      319             0.0000000000
     39803       319  PVCL2     CD13           37.5080804274      -31.0671518560       -3.2157727499  MEMB      319             0.0000000000
     39804       319  PVCL2     H13X           38.3661440759      -30.6634388183       -3.7946186577  MEMB      319             0.0000000000
     39805       319  PVCL2     H13Y           37.7752396038      -32.1311889890       -3.0403526544  MEMB      319             0.0000000000
     39806       319  PVCL2     CD14           37.4184274302      -30.5354739507       -1.7207313327  MEMB      319             0.0000000000
     39807       319  PVCL2     H14X           36.6002439365      -31.1632409451       -1.3074455059  MEMB      319             0.0000000000
     39808       319  PVCL2     H14Y           37.2440484312      -29.4471540241       -1.5811876219  MEMB      319             0.0000000000
     39809       319  PVCL2     CD15           38.6511203193      -30.7749620547       -0.9150567015  MEMB      319             0.0000000000
     39810       319  PVCL2     H15X           39.5288285509      -30.4385829058       -1.5073398655  MEMB      319             0.0000000000
     39811       319  PVCL2     H15Y           38.7363231828      -31.8795289861       -0.8314304579  MEMB      319             0.0000000000
     39812       319  PVCL2     CD16           38.5491770535      -30.1528856248        0.4612349266  MEMB      319             0.0000000000
     39813       319  PVCL2     H16X           39.5566300442      -30.2006166427        0.9271548770  MEMB      319             0.0000000000
     39814       319  PVCL2     H16Y           37.8442958772      -30.6519366110        1.1600995875  MEMB      319             0.0000000000
     39815       319  PVCL2     H16Z           38.1288611244      -29.1294441538        0.3601287862  MEMB      319             0.0000000000
     39816       320  QMPE      N              50.6885533252        2.3600291887      -16.4727790941  MEMB      320             0.0000000000
     39817       320  QMPE      HN1            50.5296684395        1.3444443403      -16.3148454261  MEMB      320             0.0000000000
     39818       320  QMPE      HN2            51.2123537814        2.6918168880      -15.6378240700  MEMB      320             0.0000000000
     39819       320  QMPE      HN3            49.7766912334        2.8514210976      -16.3798192813  MEMB      320             0.0000000000
     39820       320  QMPE      C12            51.4064544211        2.6084789470      -17.8227685704  MEMB      320             0.0000000000
     39821       320  QMPE      H12A           52.3861451432        2.0883994352      -17.7591728976  MEMB      320             0.0000000000
     39822       320  QMPE      H12B           51.6391515383        3.6948279143      -17.8183672421  MEMB      320             0.0000000000
     39823       320  QMPE      C11            50.5324646094        2.4260412959      -18.9927886173  MEMB      320             0.0000000000
     39824       320  QMPE      H11A           50.9112432902        2.9007490277      -19.9231112954  MEMB      320             0.0000000000
     39825       320  QMPE      H11B           49.5510537911        2.9444526816      -19.0418125511  MEMB      320             0.0000000000
     39826       320  QMPE      P              49.0109875594        0.5437824864      -19.8311742945  MEMB      320             0.0000000000
     39827       320  QMPE      O13            49.0683022131       -0.9112699875      -19.9645241800  MEMB      320             0.0000000000
     39828       320  QMPE      O14            48.7105653457        1.3464180829      -20.9993439720  MEMB      320             0.0000000000
     39829       320  QMPE      O11            47.9670550228        0.9560924933      -18.6859363495  MEMB      320             0.0000000000
     39830       320  QMPE      O12            50.4156759211        1.0673381924      -19.2306849220  MEMB      320             0.0000000000
     39831       320  QMPE      C1             48.0055550284        0.1584736150      -17.4709463423  MEMB      320             0.0000000000
     39832       320  QMPE      HA             48.9884892144        0.3064096052      -16.9746840031  MEMB      320             0.0000000000
     39833       320  QMPE      HB             48.0544455480       -0.9279934907      -17.6979266371  MEMB      320             0.0000000000
     39834       320  QMPE      C2             46.7357837987        0.4521811322      -16.5711059845  MEMB      320             0.0000000000
     39835       320  QMPE      HS             45.9027842179       -0.1511352522      -16.9911561763  MEMB      320             0.0000000000
     39836       320  QMPE      O21            46.3675246364        1.8826856982      -16.6132854663  MEMB      320             0.0000000000
     39837       320  QMPE      C21            45.1781340509        2.3313119228      -16.2773280568  MEMB      320             0.0000000000
     39838       320  QMPE      O22            44.1760044865        1.7238168245      -15.9731030399  MEMB      320             0.0000000000
     39839       320  QMPE      C22            45.1189572493        3.8250961400      -16.2522906338  MEMB      320             0.0000000000
     39840       320  QMPE      H2R            45.0457873930        4.2471826224      -17.2773810160  MEMB      320             0.0000000000
     39841       320  QMPE      H2S            46.0036338634        4.2778141558      -15.7555868404  MEMB      320             0.0000000000
     39842       320  QMPE      C3             46.7502263212        0.0444800211      -15.1588326978  MEMB      320             0.0000000000
     39843       320  QMPE      HX             47.0240685904       -1.0311665559      -15.2069587453  MEMB      320             0.0000000000
     39844       320  QMPE      HY             45.7687353395        0.1946892761      -14.6604015354  MEMB      320             0.0000000000
     39845       320  QMPE      O31            47.7307845205        0.6759746186      -14.4212671054  MEMB      320             0.0000000000
     39846       320  QMPE      C31            48.1276279122        0.0146711233      -13.3604418529  MEMB      320             0.0000000000
     39847       320  QMPE      O32            47.7662261441       -1.0248060335      -12.9467414556  MEMB      320             0.0000000000
     39848       320  QMPE      C32            49.1776903289        0.7698931317      -12.5207153599  MEMB      320             0.0000000000
     39849       320  QMPE      H2X            50.1500377093        0.3373456101      -12.8397195945  MEMB      320             0.0000000000
     39850       320  QMPE      H2Y            49.2641300223        1.8514810992      -12.7594968132  MEMB      320             0.0000000000
     39851       320  QMPE      C23            43.9123063315        4.4176626100      -15.4601423876  MEMB      320             0.0000000000
     39852       320  QMPE      H3R            42.9783555408        4.0462968784      -15.9335811450  MEMB      320             0.0000000000
     39853       320  QMPE      H3S            43.7768356674        5.5025548579      -15.6575696074  MEMB      320             0.0000000000
     39854       320  QMPE      C24            43.8402542363        4.1252858948      -13.9588345240  MEMB      320             0.0000000000
     39855       320  QMPE      H4R            43.6575956477        3.0618912909      -13.6939783260  MEMB      320             0.0000000000
     39856       320  QMPE      H4S            42.9323514368        4.5417551544      -13.4724328753  MEMB      320             0.0000000000
     39857       320  QMPE      C25            45.1780035015        4.3574907990      -13.2325990757  MEMB      320             0.0000000000
     39858       320  QMPE      H5R            45.7144894733        5.2678818271      -13.5756620672  MEMB      320             0.0000000000
     39859       320  QMPE      H5S            45.8166465705        3.4691831396      -13.4259014101  MEMB      320             0.0000000000
     39860       320  QMPE      C26            45.0227676274        4.4945063711      -11.7002787003  MEMB      320             0.0000000000
     39861       320  QMPE      H6R            44.2820112974        3.7566682549      -11.3245181000  MEMB      320             0.0000000000
     39862       320  QMPE      H6S            44.5605271699        5.4657684145      -11.4222435110  MEMB      320             0.0000000000
     39863       320  QMPE      C27            46.2826294269        4.1869389591      -10.9321047573  MEMB      320             0.0000000000
     39864       320  QMPE      H7R            47.1418079180        4.7379331564      -11.3708967133  MEMB      320             0.0000000000
     39865       320  QMPE      H7S            46.5617943693        3.1116976788      -10.9477270916  MEMB      320             0.0000000000
     39866       320  QMPE      C28            46.2314640133        4.4597722831       -9.4283368882  MEMB      320             0.0000000000
     39867       320  QMPE      H8R            47.0154335704        3.8604461416       -8.9179240338  MEMB      320             0.0000000000
     39868       320  QMPE      H8S            45.2340946043        4.1334775396       -9.0634980300  MEMB      320             0.0000000000
     39869       320  QMPE      C29            46.4226113262        5.9322045736       -9.0084983128  MEMB      320             0.0000000000
     39870       320  QMPE      H9R            45.7821032927        6.6491077271       -9.5653827012  MEMB      320             0.0000000000
     39871       320  QMPE      C217           47.9115313796        6.3766085025       -8.7552419707  MEMB      320             0.0000000000
     39872       320  QMPE      H17R           48.5342163736        5.4907736190       -8.7764250026  MEMB      320             0.0000000000
     39873       320  QMPE      H17S           48.1147806217        7.4403090133       -8.7661962265  MEMB      320             0.0000000000
     39874       320  QMPE      C210           46.8739706627        6.3141859127       -7.6439320463  MEMB      320             0.0000000000
     39875       320  QMPE      H10R           46.5702632795        7.3228959514       -7.2909632302  MEMB      320             0.0000000000
     39876       320  QMPE      C211           47.1467317133        5.2128570892       -6.6665821142  MEMB      320             0.0000000000
     39877       320  QMPE      H11R           47.4503757775        4.2895185279       -7.2046967012  MEMB      320             0.0000000000
     39878       320  QMPE      H11S           48.0490776953        5.3303472293       -6.0291744133  MEMB      320             0.0000000000
     39879       320  QMPE      C212           45.9352296911        5.0698301995       -5.8316907349  MEMB      320             0.0000000000
     39880       320  QMPE      H12R           45.0263558107        5.0487088647       -6.4703011699  MEMB      320             0.0000000000
     39881       320  QMPE      H12S           45.7283053188        6.0631231917       -5.3790630528  MEMB      320             0.0000000000
     39882       320  QMPE      C213           45.9698513704        4.0022221743       -4.8159193790  MEMB      320             0.0000000000
     39883       320  QMPE      H13R           46.6731838076        4.3007651756       -4.0093732254  MEMB      320             0.0000000000
     39884       320  QMPE      H13S           46.3819400434        3.0599416292       -5.2361707789  MEMB      320             0.0000000000
     39885       320  QMPE      C214           44.5162836917        3.5468855741       -4.3476166240  MEMB      320             0.0000000000
     39886       320  QMPE      H14R           44.0278968072        2.9878157637       -5.1741999510  MEMB      320             0.0000000000
     39887       320  QMPE      H14S           44.0378667999        4.5464019980       -4.2675827626  MEMB      320             0.0000000000
     39888       320  QMPE      C215           44.3638120948        2.6474606470       -2.9724480064  MEMB      320             0.0000000000
     39889       320  QMPE      H15R           45.0113163416        1.7511607236       -3.0806371536  MEMB      320             0.0000000000
     39890       320  QMPE      H15S           43.3015893438        2.3448030927       -2.8524402139  MEMB      320             0.0000000000
     39891       320  QMPE      C216           44.7933287731        3.4989892915       -1.7344646936  MEMB      320             0.0000000000
     39892       320  QMPE      H16R           43.9675623599        4.1958501233       -1.4759780268  MEMB      320             0.0000000000
     39893       320  QMPE      H16S           45.7431234353        3.9962277913       -2.0259528946  MEMB      320             0.0000000000
     39894       320  QMPE      H16T           44.9360220262        2.8072998714       -0.8768361747  MEMB      320             0.0000000000
     39895       320  QMPE      C33            49.0366851750        0.5275528838      -11.0787089883  MEMB      320             0.0000000000
     39896       320  QMPE      H3X            48.9334490884       -0.5780392156      -11.0422455750  MEMB      320             0.0000000000
     39897       320  QMPE      H3Y            48.0469613682        0.8781466781      -10.7155950878  MEMB      320             0.0000000000
     39898       320  QMPE      C34            50.1587318501        0.9871377164      -10.1101453774  MEMB      320             0.0000000000
     39899       320  QMPE      H4X            50.7917328414        1.7700794099      -10.5798619715  MEMB      320             0.0000000000
     39900       320  QMPE      H4Y            50.8035153821        0.0836098834      -10.0631056598  MEMB      320             0.0000000000
     39901       320  QMPE      C35            49.7031937010        1.5743111809       -8.7394343483  MEMB      320             0.0000000000
     39902       320  QMPE      H5X            48.9132767855        2.3005234357       -9.0274756862  MEMB      320             0.0000000000
     39903       320  QMPE      H5Y            50.6066846326        2.1308467121       -8.4103553903  MEMB      320             0.0000000000
     39904       320  QMPE      C36            49.2705553635        0.7001011129       -7.6301531410  MEMB      320             0.0000000000
     39905       320  QMPE      H6X            50.1148542959       -0.0148839433       -7.5287778733  MEMB      320             0.0000000000
     39906       320  QMPE      H6Y            48.2662365887        0.2519121186       -7.7876067513  MEMB      320             0.0000000000
     39907       320  QMPE      C37            49.1889938804        1.4654068510       -6.2551514941  MEMB      320             0.0000000000
     39908       320  QMPE      H7X            50.1980974992        1.6328424923       -5.8215661381  MEMB      320             0.0000000000
     39909       320  QMPE      H7Y            48.6251121435        2.4181777807       -6.3478114157  MEMB      320             0.0000000000
     39910       320  QMPE      C38            48.4735374665        0.4634394498       -5.3113863568  MEMB      320             0.0000000000
     39911       320  QMPE      H8X            47.5922596366        0.0452772587       -5.8431858570  MEMB      320             0.0000000000
     39912       320  QMPE      H8Y            49.1457835937       -0.4093924843       -5.1679611759  MEMB      320             0.0000000000
     39913       320  QMPE      C39            48.0744895978        1.0652359575       -3.9263024989  MEMB      320             0.0000000000
     39914       320  QMPE      H9X            46.9998252572        0.8587601302       -3.7345077177  MEMB      320             0.0000000000
     39915       320  QMPE      H9Y            48.1809243845        2.1561007880       -4.1079791824  MEMB      320             0.0000000000
     39916       320  QMPE      C310           49.0585915041        0.4379371843       -2.9489019674  MEMB      320             0.0000000000
     39917       320  QMPE      H10X           50.0697542167        0.7382072651       -3.2977684765  MEMB      320             0.0000000000
     39918       320  QMPE      H10Y           49.1344643406       -0.6683906676       -2.8810573977  MEMB      320             0.0000000000
     39919       320  QMPE      C311           48.7233541532        0.7987019934       -1.4356169637  MEMB      320             0.0000000000
     39920       320  QMPE      H11X           49.4160602730        0.2321674142       -0.7771952737  MEMB      320             0.0000000000
     39921       320  QMPE      H11Y           47.7129924392        0.4298896232       -1.1572880507  MEMB      320             0.0000000000
     39922       320  QMPE      C312           48.8296629723        2.2842548966       -1.2426344904  MEMB      320             0.0000000000
     39923       320  QMPE      H12X           48.6298676267        2.5336987591       -0.1785938112  MEMB      320             0.0000000000
     39924       320  QMPE      H12Y           47.9379168729        2.7245274362       -1.7378813696  MEMB      320             0.0000000000
     39925       320  QMPE      C313           50.1067975898        3.0447898402       -1.6001288831  MEMB      320             0.0000000000
     39926       320  QMPE      H13X           51.0071707014        2.4491586547       -1.3376936415  MEMB      320             0.0000000000
     39927       320  QMPE      H13Y           50.0137655737        3.2901766122       -2.6796896473  MEMB      320             0.0000000000
     39928       320  QMPE      C314           50.3161400581        4.4329459433       -0.9518468728  MEMB      320             0.0000000000
     39929       320  QMPE      H14X           51.1223246886        4.9642253795       -1.5015108482  MEMB      320             0.0000000000
     39930       320  QMPE      H14Y           50.8011518079        4.2236031610        0.0255278113  MEMB      320             0.0000000000
     39931       320  QMPE      C315           49.1885666526        5.3527673214       -0.6498403558  MEMB      320             0.0000000000
     39932       320  QMPE      H15X           49.3835570034        6.3069225642       -0.1151550965  MEMB      320             0.0000000000
     39933       320  QMPE      H15Y           48.7635557464        5.7923857370       -1.5774295617  MEMB      320             0.0000000000
     39934       320  QMPE      H15Z           48.4303644064        4.7925792061       -0.0619289118  MEMB      320             0.0000000000
     39935       321  PMPG      C13           -41.7389512014       26.0370488680      -17.6421016015  MEMB      321             0.0000000000
     39936       321  PMPG      H13A          -42.4886116701       26.6519816957      -17.0997107672  MEMB      321             0.0000000000
     39937       321  PMPG      H13B          -40.8672643148       25.9918625831      -16.9547580981  MEMB      321             0.0000000000
     39938       321  PMPG      OC3           -41.5952821628       26.6714528459      -18.8829287672  MEMB      321             0.0000000000
     39939       321  PMPG      HO3           -41.9930019665       26.0646117281      -19.5115487396  MEMB      321             0.0000000000
     39940       321  PMPG      C12           -42.2806114839       24.6188314669      -17.8861149030  MEMB      321             0.0000000000
     39941       321  PMPG      H12A          -42.5448721255       24.1896529885      -16.8917552161  MEMB      321             0.0000000000
     39942       321  PMPG      OC2           -41.2656748728       23.7973552001      -18.4650115334  MEMB      321             0.0000000000
     39943       321  PMPG      HO2           -41.7522528008       22.9768244316      -18.6988662278  MEMB      321             0.0000000000
     39944       321  PMPG      C11           -43.5728558993       24.4683246456      -18.7670604427  MEMB      321             0.0000000000
     39945       321  PMPG      H11A          -43.3432311160       25.0958459083      -19.6546472969  MEMB      321             0.0000000000
     39946       321  PMPG      H11B          -44.4419857353       24.8834647789      -18.2133520105  MEMB      321             0.0000000000
     39947       321  PMPG      P             -45.1755627303       22.7716122952      -19.7300659203  MEMB      321             0.0000000000
     39948       321  PMPG      O13           -44.9529650847       21.3892967816      -20.2311881141  MEMB      321             0.0000000000
     39949       321  PMPG      O14           -45.3721516184       23.7990296188      -20.8003785050  MEMB      321             0.0000000000
     39950       321  PMPG      O11           -46.3276927389       22.8602298167      -18.6284990705  MEMB      321             0.0000000000
     39951       321  PMPG      O12           -43.8352402307       23.0794754803      -18.9666511392  MEMB      321             0.0000000000
     39952       321  PMPG      C1            -46.3732765775       22.0475312954      -17.4670084219  MEMB      321             0.0000000000
     39953       321  PMPG      HA            -45.3648975715       22.0471017750      -17.0006473263  MEMB      321             0.0000000000
     39954       321  PMPG      HB            -46.7273672873       21.0516271987      -17.8092299697  MEMB      321             0.0000000000
     39955       321  PMPG      C2            -47.3025325624       22.7191639393      -16.4055470006  MEMB      321             0.0000000000
     39956       321  PMPG      HS            -48.3560604463       22.7385856823      -16.7577156224  MEMB      321             0.0000000000
     39957       321  PMPG      O21           -46.9598917020       24.0813500616      -16.1886320076  MEMB      321             0.0000000000
     39958       321  PMPG      C21           -47.8990409567       24.9349757730      -15.8385919927  MEMB      321             0.0000000000
     39959       321  PMPG      O22           -49.0314232869       24.6710552396      -15.5439577512  MEMB      321             0.0000000000
     39960       321  PMPG      C22           -47.5158883030       26.4191303132      -16.0590872769  MEMB      321             0.0000000000
     39961       321  PMPG      H2R           -48.1774797699       27.0271194093      -15.4056603364  MEMB      321             0.0000000000
     39962       321  PMPG      H2S           -47.7568001193       26.6106795926      -17.1266035162  MEMB      321             0.0000000000
     39963       321  PMPG      C3            -47.2568543012       21.8817515133      -15.0891212090  MEMB      321             0.0000000000
     39964       321  PMPG      HX            -47.4518561803       20.8075069286      -15.2947762231  MEMB      321             0.0000000000
     39965       321  PMPG      HY            -48.0394435838       22.2077902943      -14.3710865969  MEMB      321             0.0000000000
     39966       321  PMPG      O31           -45.9491326674       21.9830432077      -14.4865954385  MEMB      321             0.0000000000
     39967       321  PMPG      C31           -45.8024677728       22.5306640920      -13.2664891890  MEMB      321             0.0000000000
     39968       321  PMPG      O32           -46.6310263879       23.2088243764      -12.6520403357  MEMB      321             0.0000000000
     39969       321  PMPG      C32           -44.4324467263       22.2710223857      -12.7424553032  MEMB      321             0.0000000000
     39970       321  PMPG      H2X           -43.8444302293       23.2024420252      -12.8874211497  MEMB      321             0.0000000000
     39971       321  PMPG      H2Y           -43.9524323374       21.4638532982      -13.3360760321  MEMB      321             0.0000000000
     39972       321  PMPG      C23           -45.9981400840       26.6986871871      -15.8469222551  MEMB      321             0.0000000000
     39973       321  PMPG      H3R           -45.7430297479       27.6961800362      -16.2643523395  MEMB      321             0.0000000000
     39974       321  PMPG      H3S           -45.4739194977       25.9313972697      -16.4558392622  MEMB      321             0.0000000000
     39975       321  PMPG      C24           -45.5315759127       26.5462372525      -14.4022942600  MEMB      321             0.0000000000
     39976       321  PMPG      H4R           -44.4250078678       26.6127612837      -14.3287899530  MEMB      321             0.0000000000
     39977       321  PMPG      H4S           -45.8309945706       25.5481502262      -14.0169478977  MEMB      321             0.0000000000
     39978       321  PMPG      C25           -46.1339907043       27.5326545530      -13.4738714601  MEMB      321             0.0000000000
     39979       321  PMPG      H5R           -47.1487164533       27.1706064375      -13.2026265546  MEMB      321             0.0000000000
     39980       321  PMPG      H5S           -46.1862424160       28.5139938650      -13.9921033125  MEMB      321             0.0000000000
     39981       321  PMPG      C26           -45.1563851481       27.6673488526      -12.2384664022  MEMB      321             0.0000000000
     39982       321  PMPG      H6R           -45.6700434097       28.3322673006      -11.5115833653  MEMB      321             0.0000000000
     39983       321  PMPG      H6S           -44.1538946095       27.9663791123      -12.6125180245  MEMB      321             0.0000000000
     39984       321  PMPG      C27           -44.9641411054       26.3980799614      -11.3370665734  MEMB      321             0.0000000000
     39985       321  PMPG      H7R           -44.5312871407       25.5998618375      -11.9772279509  MEMB      321             0.0000000000
     39986       321  PMPG      H7S           -45.9367345348       26.0679154474      -10.9135400345  MEMB      321             0.0000000000
     39987       321  PMPG      C28           -44.0534302226       26.6690348234      -10.0713973590  MEMB      321             0.0000000000
     39988       321  PMPG      H8R           -44.6013414846       27.3246308968       -9.3612513374  MEMB      321             0.0000000000
     39989       321  PMPG      H8S           -43.1115200730       27.1375045334      -10.4286969919  MEMB      321             0.0000000000
     39990       321  PMPG      C29           -43.5249807415       25.4712649000       -9.3412190046  MEMB      321             0.0000000000
     39991       321  PMPG      H9R           -42.9005972196       24.6977721431       -9.8373796164  MEMB      321             0.0000000000
     39992       321  PMPG      C217          -43.3534049979       25.6750534629       -7.7918483665  MEMB      321             0.0000000000
     39993       321  PMPG      H17R          -42.5071619135       25.1410965924       -7.3775394673  MEMB      321             0.0000000000
     39994       321  PMPG      H17S          -43.5760918541       26.7062081035       -7.5468591700  MEMB      321             0.0000000000
     39995       321  PMPG      C210          -44.4237872975       24.7690205046       -8.3502349655  MEMB      321             0.0000000000
     39996       321  PMPG      H10R          -44.2099965619       23.7123365458       -8.0818443811  MEMB      321             0.0000000000
     39997       321  PMPG      C211          -45.8006460132       25.3239942150       -8.0026301684  MEMB      321             0.0000000000
     39998       321  PMPG      H11R          -45.7594458943       26.4300962485       -7.9069122584  MEMB      321             0.0000000000
     39999       321  PMPG      H11S          -46.5371951751       24.9831943772       -8.7613607502  MEMB      321             0.0000000000
     40000       321  PMPG      C212          -46.1924178625       24.7635936729       -6.5793054422  MEMB      321             0.0000000000
     40001       321  PMPG      H12R          -46.1803595297       23.6550159348       -6.6516293832  MEMB      321             0.0000000000
     40002       321  PMPG      H12S          -47.2453464630       25.0880269687       -6.4364569651  MEMB      321             0.0000000000
     40003       321  PMPG      C213          -45.5061333070       25.4358306220       -5.3979766471  MEMB      321             0.0000000000
     40004       321  PMPG      H13R          -45.5651433520       26.5433323385       -5.4633893596  MEMB      321             0.0000000000
     40005       321  PMPG      H13S          -44.4294018053       25.1780818504       -5.4903661964  MEMB      321             0.0000000000
     40006       321  PMPG      C214          -45.9477485253       24.8961182252       -4.0263781774  MEMB      321             0.0000000000
     40007       321  PMPG      H14R          -45.2544870078       25.4818142381       -3.3855425206  MEMB      321             0.0000000000
     40008       321  PMPG      H14S          -45.6341197987       23.8361181013       -3.9152126431  MEMB      321             0.0000000000
     40009       321  PMPG      C215          -47.4202091646       25.0768802163       -3.6617328347  MEMB      321             0.0000000000
     40010       321  PMPG      H15R          -47.8873707069       24.4084104218       -4.4162055737  MEMB      321             0.0000000000
     40011       321  PMPG      H15S          -47.6717526267       26.1251656943       -3.9303296701  MEMB      321             0.0000000000
     40012       321  PMPG      C216          -47.7015443116       24.9406366317       -2.1928959449  MEMB      321             0.0000000000
     40013       321  PMPG      H16R          -47.1811819863       25.7387191215       -1.6213991542  MEMB      321             0.0000000000
     40014       321  PMPG      H16S          -47.3474338074       23.9682453273       -1.7886908833  MEMB      321             0.0000000000
     40015       321  PMPG      H16T          -48.7869418114       25.0874069400       -2.0066392727  MEMB      321             0.0000000000
     40016       321  PMPG      C33           -44.4726051818       21.8461250231      -11.2204428082  MEMB      321             0.0000000000
     40017       321  PMPG      H3X           -45.3550392457       21.1933292372      -11.0487194384  MEMB      321             0.0000000000
     40018       321  PMPG      H3Y           -44.6682609221       22.7177283048      -10.5598766937  MEMB      321             0.0000000000
     40019       321  PMPG      C34           -43.3059419705       20.8602719386      -10.8013544751  MEMB      321             0.0000000000
     40020       321  PMPG      H4X           -42.4173003715       21.2274757989      -11.3579500971  MEMB      321             0.0000000000
     40021       321  PMPG      H4Y           -43.4003176748       19.8547532405      -11.2643300683  MEMB      321             0.0000000000
     40022       321  PMPG      C35           -42.9191288486       20.8552419066       -9.3069535354  MEMB      321             0.0000000000
     40023       321  PMPG      H5X           -42.4680843305       19.8925104134       -8.9844207603  MEMB      321             0.0000000000
     40024       321  PMPG      H5Y           -43.9003270591       21.0070209641       -8.8084215937  MEMB      321             0.0000000000
     40025       321  PMPG      C36           -41.8915330087       21.8176872702       -8.7842096769  MEMB      321             0.0000000000
     40026       321  PMPG      H6X           -41.9784081160       22.8142849506       -9.2674972944  MEMB      321             0.0000000000
     40027       321  PMPG      H6Y           -40.9019753615       21.5035967765       -9.1797388820  MEMB      321             0.0000000000
     40028       321  PMPG      C37           -41.8581581363       21.9368599963       -7.2261082418  MEMB      321             0.0000000000
     40029       321  PMPG      H7X           -41.6441279871       23.0019077638       -6.9933304399  MEMB      321             0.0000000000
     40030       321  PMPG      H7Y           -40.9894261143       21.3269304696       -6.8980657609  MEMB      321             0.0000000000
     40031       321  PMPG      C38           -42.9879864065       21.4754335254       -6.3217624470  MEMB      321             0.0000000000
     40032       321  PMPG      H8X           -43.2872887747       20.4465909352       -6.6153983931  MEMB      321             0.0000000000
     40033       321  PMPG      H8Y           -43.8387863234       22.1783153960       -6.4498929331  MEMB      321             0.0000000000
     40034       321  PMPG      C39           -42.6732007230       21.2531552408       -4.8194697878  MEMB      321             0.0000000000
     40035       321  PMPG      H9X           -42.0577314297       20.3282498833       -4.8111688015  MEMB      321             0.0000000000
     40036       321  PMPG      H9Y           -43.7052142350       21.1392476767       -4.4241285988  MEMB      321             0.0000000000
     40037       321  PMPG      C310          -41.9662477280       22.3778769851       -3.9596893708  MEMB      321             0.0000000000
     40038       321  PMPG      H10X          -41.0126951920       22.5878927921       -4.4897380078  MEMB      321             0.0000000000
     40039       321  PMPG      H10Y          -41.6603311255       21.8501723974       -3.0311069929  MEMB      321             0.0000000000
     40040       321  PMPG      C311          -42.5395560377       23.7192038053       -3.5765539234  MEMB      321             0.0000000000
     40041       321  PMPG      H11X          -43.2965721250       23.5219685743       -2.7876646752  MEMB      321             0.0000000000
     40042       321  PMPG      H11Y          -42.9936215840       24.3213515757       -4.3923749258  MEMB      321             0.0000000000
     40043       321  PMPG      C312          -41.4637320185       24.6257167607       -2.8977974885  MEMB      321             0.0000000000
     40044       321  PMPG      H12X          -41.9248079747       25.6295603763       -3.0162364082  MEMB      321             0.0000000000
     40045       321  PMPG      H12Y          -40.5458284355       24.6465297157       -3.5233698908  MEMB      321             0.0000000000
     40046       321  PMPG      C313          -41.2058961499       24.4669350031       -1.3536594943  MEMB      321             0.0000000000
     40047       321  PMPG      H13X          -42.2183925542       24.4873300029       -0.8967617528  MEMB      321             0.0000000000
     40048       321  PMPG      H13Y          -40.5815732779       25.3404406885       -1.0681243466  MEMB      321             0.0000000000
     40049       321  PMPG      C314          -40.3585758979       23.2831146683       -0.8796230202  MEMB      321             0.0000000000
     40050       321  PMPG      H14X          -39.2954186002       23.2081142104       -1.1932989639  MEMB      321             0.0000000000
     40051       321  PMPG      H14Y          -40.8422747820       22.4004020494       -1.3499146077  MEMB      321             0.0000000000
     40052       321  PMPG      C315          -40.4072165833       23.0932391776        0.6314120420  MEMB      321             0.0000000000
     40053       321  PMPG      H15X          -39.6945606284       22.2643890298        0.8300323782  MEMB      321             0.0000000000
     40054       321  PMPG      H15Y          -41.3572414118       22.5638915387        0.8584926733  MEMB      321             0.0000000000
     40055       321  PMPG      C316          -40.1184895227       24.2211319170        1.5324856688  MEMB      321             0.0000000000
     40056       321  PMPG      H16X          -40.2244481311       23.7932003633        2.5522746499  MEMB      321             0.0000000000
     40057       321  PMPG      H16Y          -40.7803268275       25.1123708602        1.4879271233  MEMB      321             0.0000000000
     40058       321  PMPG      H16Z          -39.0746603078       24.5679897799        1.3761827757  MEMB      321             0.0000000000
     40059       322  PMPE      N              17.7509711764       49.2833445056      -17.2329213236  MEMB      322             0.0000000000
     40060       322  PMPE      HN1            18.4143549431       48.5747676176      -16.8595035539  MEMB      322             0.0000000000
     40061       322  PMPE      HN2            18.0448320964       50.1941811616      -16.8259540626  MEMB      322             0.0000000000
     40062       322  PMPE      HN3            16.8114081734       49.0166210462      -16.8755977006  MEMB      322             0.0000000000
     40063       322  PMPE      C12            17.5920154444       49.3008025789      -18.6887579907  MEMB      322             0.0000000000
     40064       322  PMPE      H12A           18.4258322426       49.9105775266      -19.0977138373  MEMB      322             0.0000000000
     40065       322  PMPE      H12B           16.6635077228       49.8173072469      -19.0134382046  MEMB      322             0.0000000000
     40066       322  PMPE      C11            17.5172696069       47.9027834441      -19.3009300808  MEMB      322             0.0000000000
     40067       322  PMPE      H11A           18.4542658838       47.3058358440      -19.2973775649  MEMB      322             0.0000000000
     40068       322  PMPE      H11B           17.1777269965       48.0817193094      -20.3435296234  MEMB      322             0.0000000000
     40069       322  PMPE      P              15.8082243537       45.9259763717      -19.4734599623  MEMB      322             0.0000000000
     40070       322  PMPE      O13            16.8398114859       44.9549119263      -19.8447881013  MEMB      322             0.0000000000
     40071       322  PMPE      O14            14.9304277907       46.4873761801      -20.5361178900  MEMB      322             0.0000000000
     40072       322  PMPE      O11            14.8882473474       45.3117790171      -18.3450730682  MEMB      322             0.0000000000
     40073       322  PMPE      O12            16.5302232075       47.0976251393      -18.5779515832  MEMB      322             0.0000000000
     40074       322  PMPE      C1             14.2450283936       46.2181275796      -17.4503223595  MEMB      322             0.0000000000
     40075       322  PMPE      HA             13.2028378502       45.8339772646      -17.4260685072  MEMB      322             0.0000000000
     40076       322  PMPE      HB             14.2381880048       47.2871478114      -17.7527624586  MEMB      322             0.0000000000
     40077       322  PMPE      C2             14.8119867475       46.1517254418      -16.0739798053  MEMB      322             0.0000000000
     40078       322  PMPE      HS             14.2707319970       46.9119664605      -15.4711548337  MEMB      322             0.0000000000
     40079       322  PMPE      O21            16.2283797177       46.3783552601      -15.9244937600  MEMB      322             0.0000000000
     40080       322  PMPE      C21            16.5487068492       47.1835427873      -14.8582393204  MEMB      322             0.0000000000
     40081       322  PMPE      O22            15.7218923812       47.8135598711      -14.1923437643  MEMB      322             0.0000000000
     40082       322  PMPE      C22            18.0954551026       47.1280595744      -14.6440278073  MEMB      322             0.0000000000
     40083       322  PMPE      H2R            18.5582332812       47.1199930524      -15.6540239612  MEMB      322             0.0000000000
     40084       322  PMPE      H2S            18.3031510095       46.1092738299      -14.2525446007  MEMB      322             0.0000000000
     40085       322  PMPE      C3             14.5299925697       44.6588871512      -15.5140691158  MEMB      322             0.0000000000
     40086       322  PMPE      HX             14.8546209954       43.9534792265      -16.3086363478  MEMB      322             0.0000000000
     40087       322  PMPE      HY             13.4610586802       44.4034979879      -15.3513481561  MEMB      322             0.0000000000
     40088       322  PMPE      O31            15.3363163312       44.4276408551      -14.3530393938  MEMB      322             0.0000000000
     40089       322  PMPE      C31            14.8256447096       44.6814949455      -13.0894513405  MEMB      322             0.0000000000
     40090       322  PMPE      O32            13.6150867803       44.7206543406      -12.8656305856  MEMB      322             0.0000000000
     40091       322  PMPE      C32            15.9226223566       44.9553892871      -12.0634129283  MEMB      322             0.0000000000
     40092       322  PMPE      H2X            16.6455239419       45.5086448236      -12.7003140795  MEMB      322             0.0000000000
     40093       322  PMPE      H2Y            16.4399604882       44.0136560361      -11.7808873417  MEMB      322             0.0000000000
     40094       322  PMPE      C23            18.5529670454       48.3033432738      -13.6959879581  MEMB      322             0.0000000000
     40095       322  PMPE      H3R            17.9677265528       49.2082341810      -13.9661487144  MEMB      322             0.0000000000
     40096       322  PMPE      H3S            19.6029853428       48.5007885299      -14.0006153836  MEMB      322             0.0000000000
     40097       322  PMPE      C24            18.5208701319       47.9833277036      -12.1803624558  MEMB      322             0.0000000000
     40098       322  PMPE      H4R            17.5869307592       47.4816379857      -11.8481184820  MEMB      322             0.0000000000
     40099       322  PMPE      H4S            18.6567935329       48.9082211421      -11.5800143463  MEMB      322             0.0000000000
     40100       322  PMPE      C25            19.6883873753       46.9844159456      -11.7065887808  MEMB      322             0.0000000000
     40101       322  PMPE      H5R            20.6815369229       47.4811297609      -11.6712286969  MEMB      322             0.0000000000
     40102       322  PMPE      H5S            19.8878307968       46.1704805725      -12.4360080430  MEMB      322             0.0000000000
     40103       322  PMPE      C26            19.4977276446       46.4206863560      -10.2251420802  MEMB      322             0.0000000000
     40104       322  PMPE      H6R            18.4874387741       46.8139326204       -9.9822541530  MEMB      322             0.0000000000
     40105       322  PMPE      H6S            20.1618242744       46.8976092298       -9.4729182881  MEMB      322             0.0000000000
     40106       322  PMPE      C27            19.4595388925       44.8619646402      -10.1979105277  MEMB      322             0.0000000000
     40107       322  PMPE      H7R            20.4737438128       44.4772531789      -10.4381331009  MEMB      322             0.0000000000
     40108       322  PMPE      H7S            18.6822018528       44.4520932750      -10.8776708290  MEMB      322             0.0000000000
     40109       322  PMPE      C28            19.1849070217       44.3751544100       -8.7334258118  MEMB      322             0.0000000000
     40110       322  PMPE      H8R            18.2103538967       44.8266740159       -8.4493525857  MEMB      322             0.0000000000
     40111       322  PMPE      H8S            19.8880323132       44.5670156218       -7.8949003500  MEMB      322             0.0000000000
     40112       322  PMPE      C29            18.9895490979       42.8168906856       -8.6839822317  MEMB      322             0.0000000000
     40113       322  PMPE      H9R            19.8218650305       42.2481763476       -9.1510310491  MEMB      322             0.0000000000
     40114       322  PMPE      C217           17.5777979595       42.2467949872       -8.8381508143  MEMB      322             0.0000000000
     40115       322  PMPE      H17R           17.4801705360       41.2335485080       -9.2078662334  MEMB      322             0.0000000000
     40116       322  PMPE      H17S           16.8233597950       43.0151261856       -8.9538190809  MEMB      322             0.0000000000
     40117       322  PMPE      C210           18.3159093446       42.2037974001       -7.4407239718  MEMB      322             0.0000000000
     40118       322  PMPE      H10R           18.7932480546       41.2513711700       -7.1255216065  MEMB      322             0.0000000000
     40119       322  PMPE      C211           17.8980105545       43.0367979720       -6.2844654262  MEMB      322             0.0000000000
     40120       322  PMPE      H11R           16.9766122773       42.5282439685       -5.9284887252  MEMB      322             0.0000000000
     40121       322  PMPE      H11S           17.5267634283       44.0710179938       -6.4484343775  MEMB      322             0.0000000000
     40122       322  PMPE      C212           19.0971886538       43.1021902336       -5.3240088338  MEMB      322             0.0000000000
     40123       322  PMPE      H12R           20.0730182303       43.2172381057       -5.8425085924  MEMB      322             0.0000000000
     40124       322  PMPE      H12S           19.1494132732       42.1142647829       -4.8184431728  MEMB      322             0.0000000000
     40125       322  PMPE      C213           19.0187451332       44.2894442292       -4.3598622069  MEMB      322             0.0000000000
     40126       322  PMPE      H13R           18.7717420356       45.2167831080       -4.9196407527  MEMB      322             0.0000000000
     40127       322  PMPE      H13S           19.9920181611       44.5163764268       -3.8745140383  MEMB      322             0.0000000000
     40128       322  PMPE      C214           17.9606732099       44.1601934408       -3.2387914045  MEMB      322             0.0000000000
     40129       322  PMPE      H14R           17.8555004787       43.1131314204       -2.8825315838  MEMB      322             0.0000000000
     40130       322  PMPE      H14S           16.9706134230       44.4526742534       -3.6493493800  MEMB      322             0.0000000000
     40131       322  PMPE      C215           18.1082698316       45.1500949186       -2.0313636402  MEMB      322             0.0000000000
     40132       322  PMPE      H15R           17.9964488560       46.2227556375       -2.2982284083  MEMB      322             0.0000000000
     40133       322  PMPE      H15S           19.1071185771       45.1152626623       -1.5461750561  MEMB      322             0.0000000000
     40134       322  PMPE      C216           17.1019944976       44.9627140283       -0.9411390670  MEMB      322             0.0000000000
     40135       322  PMPE      H16R           17.4855331356       45.5995556869       -0.1155173911  MEMB      322             0.0000000000
     40136       322  PMPE      H16S           16.1281125024       45.3507447065       -1.3089807460  MEMB      322             0.0000000000
     40137       322  PMPE      H16T           16.9647097658       43.9010810557       -0.6438015800  MEMB      322             0.0000000000
     40138       322  PMPE      C33            15.5625581089       45.7819054307      -10.8857945396  MEMB      322             0.0000000000
     40139       322  PMPE      H3X            15.1833848268       46.7543964654      -11.2663334350  MEMB      322             0.0000000000
     40140       322  PMPE      H3Y            16.5160430512       45.9403164779      -10.3379868605  MEMB      322             0.0000000000
     40141       322  PMPE      C34            14.3945717855       45.2070323219       -9.8978030636  MEMB      322             0.0000000000
     40142       322  PMPE      H4X            14.5805614026       44.1117232628       -9.9029883689  MEMB      322             0.0000000000
     40143       322  PMPE      H4Y            13.4562111194       45.3295470779      -10.4798594057  MEMB      322             0.0000000000
     40144       322  PMPE      C35            14.3131942482       45.7909482689       -8.4768076048  MEMB      322             0.0000000000
     40145       322  PMPE      H5X            13.3427644221       45.4123353370       -8.0904917777  MEMB      322             0.0000000000
     40146       322  PMPE      H5Y            14.2119237483       46.8898302303       -8.6053509351  MEMB      322             0.0000000000
     40147       322  PMPE      C36            15.4921784335       45.4503254985       -7.5598356983  MEMB      322             0.0000000000
     40148       322  PMPE      H6X            16.4339176512       45.8924795571       -7.9496414131  MEMB      322             0.0000000000
     40149       322  PMPE      H6Y            15.7351351878       44.3720201988       -7.4478056186  MEMB      322             0.0000000000
     40150       322  PMPE      C37            15.6291179711       46.0855572213       -6.1193433885  MEMB      322             0.0000000000
     40151       322  PMPE      H7X            16.6081444085       45.8417731325       -5.6541584355  MEMB      322             0.0000000000
     40152       322  PMPE      H7Y            14.7450728561       45.6267801693       -5.6270953991  MEMB      322             0.0000000000
     40153       322  PMPE      C38            15.2295085855       47.5740371594       -6.0570689181  MEMB      322             0.0000000000
     40154       322  PMPE      H8X            14.2983209490       47.6123177911       -6.6618381172  MEMB      322             0.0000000000
     40155       322  PMPE      H8Y            16.1328908772       48.0452871216       -6.4999521078  MEMB      322             0.0000000000
     40156       322  PMPE      C39            14.8475140198       48.2934107367       -4.7094745632  MEMB      322             0.0000000000
     40157       322  PMPE      H9X            14.3569077903       49.2738083987       -4.8896049762  MEMB      322             0.0000000000
     40158       322  PMPE      H9Y            15.6935930711       48.3609056214       -3.9925955096  MEMB      322             0.0000000000
     40159       322  PMPE      C310           13.8061472963       47.4202968373       -3.9490096399  MEMB      322             0.0000000000
     40160       322  PMPE      H10X           14.2980437838       46.4365610388       -3.7920928908  MEMB      322             0.0000000000
     40161       322  PMPE      H10Y           12.9911467946       47.3716751424       -4.7024889160  MEMB      322             0.0000000000
     40162       322  PMPE      C311           13.3378288427       48.0127119444       -2.6516939398  MEMB      322             0.0000000000
     40163       322  PMPE      H11X           13.1858380254       49.1072267194       -2.7668344320  MEMB      322             0.0000000000
     40164       322  PMPE      H11Y           14.1942548086       47.8853691377       -1.9555328891  MEMB      322             0.0000000000
     40165       322  PMPE      C312           12.2450379187       47.2209425348       -1.9686517289  MEMB      322             0.0000000000
     40166       322  PMPE      H12X           11.4823242196       46.9795804743       -2.7395808156  MEMB      322             0.0000000000
     40167       322  PMPE      H12Y           11.8513846350       47.9246228999       -1.2043271969  MEMB      322             0.0000000000
     40168       322  PMPE      C313           12.6942372745       45.9390998226       -1.1499695008  MEMB      322             0.0000000000
     40169       322  PMPE      H13X           13.4971763537       46.1720721750       -0.4183027958  MEMB      322             0.0000000000
     40170       322  PMPE      H13Y           13.0747795402       45.1538204127       -1.8376054277  MEMB      322             0.0000000000
     40171       322  PMPE      C314           11.5059660414       45.2010018375       -0.3448993913  MEMB      322             0.0000000000
     40172       322  PMPE      H14X           10.8013345491       44.9596373053       -1.1692527699  MEMB      322             0.0000000000
     40173       322  PMPE      H14Y           11.0709584290       45.9518365288        0.3488841643  MEMB      322             0.0000000000
     40174       322  PMPE      C315           11.8031891258       43.8935169309        0.3372297800  MEMB      322             0.0000000000
     40175       322  PMPE      H15X           12.2870173098       43.1774909988       -0.3610101560  MEMB      322             0.0000000000
     40176       322  PMPE      H15Y           10.8693689713       43.4481865674        0.7421762844  MEMB      322             0.0000000000
     40177       322  PMPE      C316           12.7209657727       44.0735383396        1.5937623431  MEMB      322             0.0000000000
     40178       322  PMPE      H16X           12.1069603355       44.5537817434        2.3853959092  MEMB      322             0.0000000000
     40179       322  PMPE      H16Y           13.6243638055       44.7039983709        1.4498419236  MEMB      322             0.0000000000
     40180       322  PMPE      H16Z           13.1079577438       43.0683277667        1.8659936500  MEMB      322             0.0000000000
     40181       323  PMPE      N             -49.9867949258       -2.4025846076      -20.6634328992  MEMB      323             0.0000000000
     40182       323  PMPE      HN1           -49.3132223039       -1.7034408505      -21.0363908648  MEMB      323             0.0000000000
     40183       323  PMPE      HN2           -50.3132312055       -3.0356775131      -21.4212144022  MEMB      323             0.0000000000
     40184       323  PMPE      HN3           -50.7679080227       -1.9694293867      -20.1306675229  MEMB      323             0.0000000000
     40185       323  PMPE      C12           -49.0348698899       -3.1300450943      -19.7508896023  MEMB      323             0.0000000000
     40186       323  PMPE      H12A          -48.5403097732       -2.3263729211      -19.1645087694  MEMB      323             0.0000000000
     40187       323  PMPE      H12B          -48.2963067069       -3.6956954713      -20.3582487754  MEMB      323             0.0000000000
     40188       323  PMPE      C11           -49.5777468760       -4.1956785187      -18.8314233237  MEMB      323             0.0000000000
     40189       323  PMPE      H11A          -50.5567325395       -3.8221120304      -18.4621587826  MEMB      323             0.0000000000
     40190       323  PMPE      H11B          -48.9868197894       -4.3374522315      -17.9013553953  MEMB      323             0.0000000000
     40191       323  PMPE      P             -50.1842743581       -6.6955295506      -18.5785887167  MEMB      323             0.0000000000
     40192       323  PMPE      O13           -48.9816501078       -7.2928003190      -17.8784957711  MEMB      323             0.0000000000
     40193       323  PMPE      O14           -50.9835301760       -7.5836482122      -19.4753150440  MEMB      323             0.0000000000
     40194       323  PMPE      O11           -51.1239756955       -6.2126961203      -17.3859420799  MEMB      323             0.0000000000
     40195       323  PMPE      O12           -49.7535579855       -5.4641665398      -19.4359125610  MEMB      323             0.0000000000
     40196       323  PMPE      C1            -51.4615556418       -6.9621798298      -16.2335789745  MEMB      323             0.0000000000
     40197       323  PMPE      HA            -50.5258856743       -7.4808360988      -15.9338482861  MEMB      323             0.0000000000
     40198       323  PMPE      HB            -52.1027495878       -7.8251869200      -16.5135965617  MEMB      323             0.0000000000
     40199       323  PMPE      C2            -51.8300212466       -6.0233754328      -15.1159685420  MEMB      323             0.0000000000
     40200       323  PMPE      HS            -51.9373417277       -6.6439463425      -14.2007118626  MEMB      323             0.0000000000
     40201       323  PMPE      O21           -53.0382168746       -5.2584462472      -15.4649680638  MEMB      323             0.0000000000
     40202       323  PMPE      C21           -54.1725276560       -5.8735475985      -15.2122585148  MEMB      323             0.0000000000
     40203       323  PMPE      O22           -54.3229144396       -7.1027965157      -14.9987179909  MEMB      323             0.0000000000
     40204       323  PMPE      C22           -55.2741122626       -4.8108309525      -14.9429976368  MEMB      323             0.0000000000
     40205       323  PMPE      H2R           -56.1494183201       -5.1451789973      -15.5399660229  MEMB      323             0.0000000000
     40206       323  PMPE      H2S           -55.0134618665       -3.8305043271      -15.3961444376  MEMB      323             0.0000000000
     40207       323  PMPE      C3            -50.7112130308       -4.9781664731      -14.7269710911  MEMB      323             0.0000000000
     40208       323  PMPE      HX            -50.5607798785       -4.3538245686      -15.6335515993  MEMB      323             0.0000000000
     40209       323  PMPE      HY            -49.8351991414       -5.6301730751      -14.5225009817  MEMB      323             0.0000000000
     40210       323  PMPE      O31           -51.1696629389       -4.0970733118      -13.6673667009  MEMB      323             0.0000000000
     40211       323  PMPE      C31           -50.1370586147       -3.8501051288      -12.7800054102  MEMB      323             0.0000000000
     40212       323  PMPE      O32           -49.0417393246       -4.3941035577      -12.7920536619  MEMB      323             0.0000000000
     40213       323  PMPE      C32           -50.6025664304       -2.6452676016      -11.8908954554  MEMB      323             0.0000000000
     40214       323  PMPE      H2X           -51.7009269446       -2.6756140782      -11.7265664917  MEMB      323             0.0000000000
     40215       323  PMPE      H2Y           -50.2379431016       -1.6710472428      -12.2811078474  MEMB      323             0.0000000000
     40216       323  PMPE      C23           -55.6202761901       -4.6410971834      -13.4553111039  MEMB      323             0.0000000000
     40217       323  PMPE      H3R           -55.8219121429       -5.6605248988      -13.0623332808  MEMB      323             0.0000000000
     40218       323  PMPE      H3S           -56.5293763625       -4.0136801061      -13.3361239835  MEMB      323             0.0000000000
     40219       323  PMPE      C24           -54.3837369466       -3.9867427220      -12.7121677632  MEMB      323             0.0000000000
     40220       323  PMPE      H4R           -54.1431098969       -3.0235307217      -13.2108085469  MEMB      323             0.0000000000
     40221       323  PMPE      H4S           -53.5145599499       -4.6785626931      -12.7275789403  MEMB      323             0.0000000000
     40222       323  PMPE      C25           -54.6740073852       -3.7067580854      -11.2348160299  MEMB      323             0.0000000000
     40223       323  PMPE      H5R           -55.5217173851       -2.9945634609      -11.3269430729  MEMB      323             0.0000000000
     40224       323  PMPE      H5S           -53.8370039142       -3.1236664494      -10.7946451570  MEMB      323             0.0000000000
     40225       323  PMPE      C26           -55.2513102357       -4.8390223351      -10.3336239618  MEMB      323             0.0000000000
     40226       323  PMPE      H6R           -56.0805844929       -5.3327782167      -10.8839242362  MEMB      323             0.0000000000
     40227       323  PMPE      H6S           -55.5821922667       -4.4039138509       -9.3664024324  MEMB      323             0.0000000000
     40228       323  PMPE      C27           -54.1924953118       -5.9425438395      -10.1153393590  MEMB      323             0.0000000000
     40229       323  PMPE      H7R           -53.1473401619       -5.6026933963      -10.2780449453  MEMB      323             0.0000000000
     40230       323  PMPE      H7S           -54.3055338160       -6.7226625861      -10.8982558430  MEMB      323             0.0000000000
     40231       323  PMPE      C28           -54.2227379881       -6.5233465302       -8.7116671993  MEMB      323             0.0000000000
     40232       323  PMPE      H8R           -55.1987588464       -7.0261074573       -8.5415603462  MEMB      323             0.0000000000
     40233       323  PMPE      H8S           -54.2228516562       -5.6543623132       -8.0194329874  MEMB      323             0.0000000000
     40234       323  PMPE      C29           -53.0523376017       -7.5158023548       -8.4014861735  MEMB      323             0.0000000000
     40235       323  PMPE      H9R           -52.0263583026       -7.1933336223       -8.6802348017  MEMB      323             0.0000000000
     40236       323  PMPE      C217          -53.3110399477       -8.9506080546       -8.8822306451  MEMB      323             0.0000000000
     40237       323  PMPE      H17R          -52.3923390684       -9.3658370791       -9.2777835774  MEMB      323             0.0000000000
     40238       323  PMPE      H17S          -54.2826031197       -9.0748971781       -9.3442979443  MEMB      323             0.0000000000
     40239       323  PMPE      C210          -53.2458539253       -8.6761030351       -7.4126977215  MEMB      323             0.0000000000
     40240       323  PMPE      H10R          -52.3753345270       -9.0680741715       -6.8444763183  MEMB      323             0.0000000000
     40241       323  PMPE      C211          -54.4973967078       -8.7674115946       -6.5231796818  MEMB      323             0.0000000000
     40242       323  PMPE      H11R          -54.6883953061       -9.8270407569       -6.2492680400  MEMB      323             0.0000000000
     40243       323  PMPE      H11S          -55.3541155619       -8.4652911627       -7.1627704270  MEMB      323             0.0000000000
     40244       323  PMPE      C212          -54.4385280680       -7.8587280927       -5.2722732274  MEMB      323             0.0000000000
     40245       323  PMPE      H12R          -55.4403863368       -7.9939691559       -4.8115016723  MEMB      323             0.0000000000
     40246       323  PMPE      H12S          -54.3493611586       -6.8244616225       -5.6680806924  MEMB      323             0.0000000000
     40247       323  PMPE      C213          -53.4000275697       -8.1409791589       -4.1531615045  MEMB      323             0.0000000000
     40248       323  PMPE      H13R          -52.4004391294       -7.9987302490       -4.6167446900  MEMB      323             0.0000000000
     40249       323  PMPE      H13S          -53.4957023421       -9.1906992026       -3.8020847896  MEMB      323             0.0000000000
     40250       323  PMPE      C214          -53.5499115069       -7.1948631449       -3.0150052973  MEMB      323             0.0000000000
     40251       323  PMPE      H14R          -54.6096436145       -7.0794906615       -2.7019928129  MEMB      323             0.0000000000
     40252       323  PMPE      H14S          -53.1578107319       -6.2317588363       -3.4061684340  MEMB      323             0.0000000000
     40253       323  PMPE      C215          -52.6606856869       -7.5362410164       -1.8219923053  MEMB      323             0.0000000000
     40254       323  PMPE      H15R          -51.6488643290       -7.7405500084       -2.2328420851  MEMB      323             0.0000000000
     40255       323  PMPE      H15S          -52.9963615269       -8.4542222748       -1.2938339611  MEMB      323             0.0000000000
     40256       323  PMPE      C216          -52.5524285053       -6.2916775003       -0.9133367512  MEMB      323             0.0000000000
     40257       323  PMPE      H16R          -51.9892811255       -5.5015868867       -1.4545801770  MEMB      323             0.0000000000
     40258       323  PMPE      H16S          -53.4784328641       -5.7267034529       -0.6732533607  MEMB      323             0.0000000000
     40259       323  PMPE      H16T          -52.0835084734       -6.5259182618        0.0662375346  MEMB      323             0.0000000000
     40260       323  PMPE      C33           -49.9446664833       -2.7825471972      -10.4760815878  MEMB      323             0.0000000000
     40261       323  PMPE      H3X           -50.3014257702       -1.8423297325      -10.0038166448  MEMB      323             0.0000000000
     40262       323  PMPE      H3Y           -48.8413874089       -2.6550011542      -10.5048652386  MEMB      323             0.0000000000
     40263       323  PMPE      C34           -50.4104629286       -4.0254044165       -9.7566092338  MEMB      323             0.0000000000
     40264       323  PMPE      H4X           -49.7682839558       -4.8958663162      -10.0100319479  MEMB      323             0.0000000000
     40265       323  PMPE      H4Y           -51.4463698880       -4.2727621820      -10.0728873264  MEMB      323             0.0000000000
     40266       323  PMPE      C35           -50.3749280815       -3.9429362186       -8.2628041923  MEMB      323             0.0000000000
     40267       323  PMPE      H5X           -49.3605020379       -3.5230345780       -8.0926762600  MEMB      323             0.0000000000
     40268       323  PMPE      H5Y           -50.6262182759       -4.9026210775       -7.7626246522  MEMB      323             0.0000000000
     40269       323  PMPE      C36           -51.4135087455       -2.9964442133       -7.7512104545  MEMB      323             0.0000000000
     40270       323  PMPE      H6X           -52.3571768427       -3.1998727035       -8.3011451121  MEMB      323             0.0000000000
     40271       323  PMPE      H6Y           -51.1605005325       -1.9458830004       -8.0093360366  MEMB      323             0.0000000000
     40272       323  PMPE      C37           -51.8721824623       -3.2548365936       -6.3325117135  MEMB      323             0.0000000000
     40273       323  PMPE      H7X           -50.9863602897       -2.9981680222       -5.7130269847  MEMB      323             0.0000000000
     40274       323  PMPE      H7Y           -52.1974260899       -4.3043320257       -6.1679002121  MEMB      323             0.0000000000
     40275       323  PMPE      C38           -53.0065418784       -2.3332531986       -5.9221477777  MEMB      323             0.0000000000
     40276       323  PMPE      H8X           -53.9422750726       -2.7375642066       -6.3640260772  MEMB      323             0.0000000000
     40277       323  PMPE      H8Y           -52.9071068989       -1.3207052919       -6.3684439537  MEMB      323             0.0000000000
     40278       323  PMPE      C39           -53.0893830565       -2.2555485883       -4.4005756547  MEMB      323             0.0000000000
     40279       323  PMPE      H9X           -53.0257934119       -3.2547707709       -3.9190857920  MEMB      323             0.0000000000
     40280       323  PMPE      H9Y           -54.0734233102       -1.8155076393       -4.1315971611  MEMB      323             0.0000000000
     40281       323  PMPE      C310          -51.9419928891       -1.3886978273       -3.7921149617  MEMB      323             0.0000000000
     40282       323  PMPE      H10X          -51.5462916308       -0.7753346166       -4.6296873043  MEMB      323             0.0000000000
     40283       323  PMPE      H10Y          -51.1495200872       -2.0528806144       -3.3857051378  MEMB      323             0.0000000000
     40284       323  PMPE      C311          -52.3239810982       -0.4452385834       -2.6571619574  MEMB      323             0.0000000000
     40285       323  PMPE      H11X          -52.9899038777        0.3393345929       -3.0758659302  MEMB      323             0.0000000000
     40286       323  PMPE      H11Y          -51.4904137974        0.0167027954       -2.0861130451  MEMB      323             0.0000000000
     40287       323  PMPE      C312          -53.1951949140       -1.1929321663       -1.5556369805  MEMB      323             0.0000000000
     40288       323  PMPE      H12X          -53.9117356686       -1.8622167818       -2.0780821131  MEMB      323             0.0000000000
     40289       323  PMPE      H12Y          -53.8163856792       -0.3957932194       -1.0941049226  MEMB      323             0.0000000000
     40290       323  PMPE      C313          -52.4367676457       -1.9060706346       -0.3017378690  MEMB      323             0.0000000000
     40291       323  PMPE      H13X          -51.8247847091       -2.7232342277       -0.7399633968  MEMB      323             0.0000000000
     40292       323  PMPE      H13Y          -53.1853567351       -2.4602487806        0.3039202464  MEMB      323             0.0000000000
     40293       323  PMPE      C314          -51.6479663167       -0.9093127047        0.5615328935  MEMB      323             0.0000000000
     40294       323  PMPE      H14X          -52.3407766811       -0.7417239512        1.4137336730  MEMB      323             0.0000000000
     40295       323  PMPE      H14Y          -51.4878734894        0.0155885717       -0.0328146298  MEMB      323             0.0000000000
     40296       323  PMPE      C315          -50.3917449360       -1.5167468482        1.1562060753  MEMB      323             0.0000000000
     40297       323  PMPE      H15X          -50.7065050588       -2.3100789557        1.8674526729  MEMB      323             0.0000000000
     40298       323  PMPE      H15Y          -49.9060982322       -0.7581092158        1.8065418803  MEMB      323             0.0000000000
     40299       323  PMPE      C316          -49.3712597716       -2.0915914414        0.1191754938  MEMB      323             0.0000000000
     40300       323  PMPE      H16X          -48.3586929774       -2.1911714701        0.5653968740  MEMB      323             0.0000000000
     40301       323  PMPE      H16Y          -49.3063211117       -1.3688350205       -0.7220902929  MEMB      323             0.0000000000
     40302       323  PMPE      H16Z          -49.7277769798       -3.0780831335       -0.2469529610  MEMB      323             0.0000000000
     40303       324  QMPE      N             -49.3192244846       18.0557083796      -20.0096580617  MEMB      324             0.0000000000
     40304       324  QMPE      HN1           -48.5004940764       18.6962236961      -19.9777103045  MEMB      324             0.0000000000
     40305       324  QMPE      HN2           -49.0011067932       17.2435065568      -20.5759875178  MEMB      324             0.0000000000
     40306       324  QMPE      HN3           -50.0670458706       18.5563702036      -20.5309074506  MEMB      324             0.0000000000
     40307       324  QMPE      C12           -49.5887155164       17.5631810223      -18.6245857407  MEMB      324             0.0000000000
     40308       324  QMPE      H12A          -50.3530794814       16.7569813859      -18.6351165462  MEMB      324             0.0000000000
     40309       324  QMPE      H12B          -50.0950934788       18.3923786807      -18.0857594009  MEMB      324             0.0000000000
     40310       324  QMPE      C11           -48.4074765471       16.9425423791      -17.9149282171  MEMB      324             0.0000000000
     40311       324  QMPE      H11A          -48.7820470254       16.5456987294      -16.9471817156  MEMB      324             0.0000000000
     40312       324  QMPE      H11B          -47.6798197480       17.7744707287      -17.8020927936  MEMB      324             0.0000000000
     40313       324  QMPE      P             -46.4601294702       15.9118926049      -19.1861219306  MEMB      324             0.0000000000
     40314       324  QMPE      O13           -46.2697817200       17.1036950001      -20.0017270816  MEMB      324             0.0000000000
     40315       324  QMPE      O14           -46.0445753950       14.5679717124      -19.7447338188  MEMB      324             0.0000000000
     40316       324  QMPE      O11           -45.7056907400       16.2052358297      -17.8639282500  MEMB      324             0.0000000000
     40317       324  QMPE      O12           -47.9210781262       15.8404866735      -18.6543169004  MEMB      324             0.0000000000
     40318       324  QMPE      C1            -45.0525891814       15.3296733367      -17.0049902950  MEMB      324             0.0000000000
     40319       324  QMPE      HA            -43.9608398354       15.2138846419      -17.1752764332  MEMB      324             0.0000000000
     40320       324  QMPE      HB            -45.6323066025       14.3838077664      -16.9450999835  MEMB      324             0.0000000000
     40321       324  QMPE      C2            -45.2275544475       15.6881628029      -15.5136629185  MEMB      324             0.0000000000
     40322       324  QMPE      HS            -44.7698183606       14.8771593576      -14.9077982411  MEMB      324             0.0000000000
     40323       324  QMPE      O21           -46.5804128436       15.8984224531      -15.1718364473  MEMB      324             0.0000000000
     40324       324  QMPE      C21           -47.1830683921       14.9039321981      -14.6359036714  MEMB      324             0.0000000000
     40325       324  QMPE      O22           -46.6882969437       13.8102183849      -14.4907139095  MEMB      324             0.0000000000
     40326       324  QMPE      C22           -48.6390434426       15.2378107930      -14.1705552271  MEMB      324             0.0000000000
     40327       324  QMPE      H2R           -49.3155654105       15.2607897350      -15.0515270121  MEMB      324             0.0000000000
     40328       324  QMPE      H2S           -48.5277780590       16.2257940899      -13.6747426408  MEMB      324             0.0000000000
     40329       324  QMPE      C3            -44.4717803771       16.9373251706      -15.1278069883  MEMB      324             0.0000000000
     40330       324  QMPE      HX            -44.5991616917       17.6778061617      -15.9462097564  MEMB      324             0.0000000000
     40331       324  QMPE      HY            -43.3992359012       16.6537843900      -15.0680257041  MEMB      324             0.0000000000
     40332       324  QMPE      O31           -44.9490230468       17.4687700044      -13.8807121620  MEMB      324             0.0000000000
     40333       324  QMPE      C31           -44.1720305871       17.3246005993      -12.8149680384  MEMB      324             0.0000000000
     40334       324  QMPE      O32           -43.1649884518       16.6421846933      -12.7014941827  MEMB      324             0.0000000000
     40335       324  QMPE      C32           -44.5445651721       18.3556002332      -11.6907037610  MEMB      324             0.0000000000
     40336       324  QMPE      H2X           -43.9097595048       18.4246989685      -10.7815461534  MEMB      324             0.0000000000
     40337       324  QMPE      H2Y           -44.4773823318       19.3742430359      -12.1290808826  MEMB      324             0.0000000000
     40338       324  QMPE      C23           -49.1668929046       14.1041762511      -13.2279110760  MEMB      324             0.0000000000
     40339       324  QMPE      H3R           -48.6705060470       14.2013360028      -12.2387291531  MEMB      324             0.0000000000
     40340       324  QMPE      H3S           -48.9602243713       13.0969434967      -13.6487333468  MEMB      324             0.0000000000
     40341       324  QMPE      C24           -50.6654269473       14.2482043890      -13.0069454262  MEMB      324             0.0000000000
     40342       324  QMPE      H4R           -51.0571055799       13.4067989626      -12.3962524226  MEMB      324             0.0000000000
     40343       324  QMPE      H4S           -51.1151250289       14.1075821895      -14.0130855408  MEMB      324             0.0000000000
     40344       324  QMPE      C25           -51.1735857253       15.6500208928      -12.4473755022  MEMB      324             0.0000000000
     40345       324  QMPE      H5R           -52.2726582306       15.5448198766      -12.3237101860  MEMB      324             0.0000000000
     40346       324  QMPE      H5S           -51.0411002067       16.4667384077      -13.1888207067  MEMB      324             0.0000000000
     40347       324  QMPE      C26           -50.6212834358       16.0576410771      -11.0219620398  MEMB      324             0.0000000000
     40348       324  QMPE      H6R           -49.5158509864       16.1391919427      -11.0973907579  MEMB      324             0.0000000000
     40349       324  QMPE      H6S           -50.9191275512       15.4488069271      -10.1416605455  MEMB      324             0.0000000000
     40350       324  QMPE      C27           -51.1003433797       17.5304280185      -10.6372908613  MEMB      324             0.0000000000
     40351       324  QMPE      H7R           -52.2110839605       17.5134499912      -10.6203270305  MEMB      324             0.0000000000
     40352       324  QMPE      H7S           -50.6252567518       18.2104892596      -11.3762971556  MEMB      324             0.0000000000
     40353       324  QMPE      C28           -50.5997482117       18.1044149117       -9.3084568980  MEMB      324             0.0000000000
     40354       324  QMPE      H8R           -49.4916745590       18.0279661744       -9.3339442521  MEMB      324             0.0000000000
     40355       324  QMPE      H8S           -51.0159348916       17.5213727967       -8.4592384376  MEMB      324             0.0000000000
     40356       324  QMPE      C29           -50.9887555382       19.5712754017       -9.2110623079  MEMB      324             0.0000000000
     40357       324  QMPE      H9R           -52.0594953497       19.8578238461       -9.1353859293  MEMB      324             0.0000000000
     40358       324  QMPE      C217          -50.0453437518       20.6287521214       -9.9924198163  MEMB      324             0.0000000000
     40359       324  QMPE      H17R          -49.0922136827       20.2847543247      -10.3746465576  MEMB      324             0.0000000000
     40360       324  QMPE      H17S          -50.6883655769       21.3297525612      -10.5101167686  MEMB      324             0.0000000000
     40361       324  QMPE      C210          -50.1647369706       20.6206923250       -8.4239455349  MEMB      324             0.0000000000
     40362       324  QMPE      H10R          -50.8866603561       21.4046921967       -8.1101123595  MEMB      324             0.0000000000
     40363       324  QMPE      C211          -48.8898863311       20.3752836516       -7.5907840308  MEMB      324             0.0000000000
     40364       324  QMPE      H11R          -47.9952141544       20.1092380024       -8.1933635681  MEMB      324             0.0000000000
     40365       324  QMPE      H11S          -48.7456491666       21.3893232484       -7.1603883754  MEMB      324             0.0000000000
     40366       324  QMPE      C212          -49.2093001806       19.6337423192       -6.3278368872  MEMB      324             0.0000000000
     40367       324  QMPE      H12R          -49.5731198750       18.6179622264       -6.5926891885  MEMB      324             0.0000000000
     40368       324  QMPE      H12S          -50.0860822044       20.0063770020       -5.7562438911  MEMB      324             0.0000000000
     40369       324  QMPE      C213          -47.9705752500       19.3939423238       -5.4082957702  MEMB      324             0.0000000000
     40370       324  QMPE      H13R          -47.0719651524       18.9197791897       -5.8577292097  MEMB      324             0.0000000000
     40371       324  QMPE      H13S          -48.4276257822       18.7413031083       -4.6340300429  MEMB      324             0.0000000000
     40372       324  QMPE      C214          -47.5501479423       20.6600765054       -4.6537711281  MEMB      324             0.0000000000
     40373       324  QMPE      H14R          -48.5087548902       21.1658543590       -4.4096756788  MEMB      324             0.0000000000
     40374       324  QMPE      H14S          -46.9696770108       21.3393678949       -5.3140273866  MEMB      324             0.0000000000
     40375       324  QMPE      C215          -46.9287974263       20.4150806078       -3.2141592907  MEMB      324             0.0000000000
     40376       324  QMPE      H15R          -46.6193241344       21.3914808207       -2.7838217362  MEMB      324             0.0000000000
     40377       324  QMPE      H15S          -45.9867902709       19.8904396166       -3.4819187830  MEMB      324             0.0000000000
     40378       324  QMPE      C216          -47.6864271357       19.6574993169       -2.1349842512  MEMB      324             0.0000000000
     40379       324  QMPE      H16R          -48.1116330981       18.7442289197       -2.6034484384  MEMB      324             0.0000000000
     40380       324  QMPE      H16S          -48.4666757918       20.3440448564       -1.7423163181  MEMB      324             0.0000000000
     40381       324  QMPE      H16T          -47.0416966376       19.3427629488       -1.2867006294  MEMB      324             0.0000000000
     40382       324  QMPE      C33           -45.9851697665       18.3671203016      -11.2497036415  MEMB      324             0.0000000000
     40383       324  QMPE      H3X           -46.7325341164       18.3501278773      -12.0715788142  MEMB      324             0.0000000000
     40384       324  QMPE      H3Y           -46.1983942174       19.3754467702      -10.8348135942  MEMB      324             0.0000000000
     40385       324  QMPE      C34           -46.3164118877       17.3234746796      -10.0817382976  MEMB      324             0.0000000000
     40386       324  QMPE      H4X           -47.4169405064       17.1713522792      -10.0858227246  MEMB      324             0.0000000000
     40387       324  QMPE      H4Y           -45.9937115730       17.8787513357       -9.1751764079  MEMB      324             0.0000000000
     40388       324  QMPE      C35           -45.6080685464       15.9851175331      -10.1578640276  MEMB      324             0.0000000000
     40389       324  QMPE      H5X           -44.5059888684       16.1220969386      -10.1265939059  MEMB      324             0.0000000000
     40390       324  QMPE      H5Y           -45.8651352055       15.4711738523      -11.1087050181  MEMB      324             0.0000000000
     40391       324  QMPE      C36           -46.0549117450       15.0184931507       -8.9915722410  MEMB      324             0.0000000000
     40392       324  QMPE      H6X           -46.0787854648       15.6044044229       -8.0479305092  MEMB      324             0.0000000000
     40393       324  QMPE      H6Y           -45.3411813601       14.1723557471       -8.8969081155  MEMB      324             0.0000000000
     40394       324  QMPE      C37           -47.3781502202       14.2918956185       -9.3101784673  MEMB      324             0.0000000000
     40395       324  QMPE      H7X           -48.1691444795       15.0059409036       -9.6244852999  MEMB      324             0.0000000000
     40396       324  QMPE      H7Y           -47.1865075617       13.5986726670      -10.1569584058  MEMB      324             0.0000000000
     40397       324  QMPE      C38           -47.9012344916       13.4644207752       -8.2236757043  MEMB      324             0.0000000000
     40398       324  QMPE      H8X           -48.7821819333       12.8936797950       -8.5876915264  MEMB      324             0.0000000000
     40399       324  QMPE      H8Y           -47.1659718799       12.7363115718       -7.8192417465  MEMB      324             0.0000000000
     40400       324  QMPE      C39           -48.4835367585       14.3534174023       -7.0620398497  MEMB      324             0.0000000000
     40401       324  QMPE      H9X           -49.4129169583       13.8303672571       -6.7506048002  MEMB      324             0.0000000000
     40402       324  QMPE      H9Y           -48.8358808048       15.2829825058       -7.5581076353  MEMB      324             0.0000000000
     40403       324  QMPE      C310          -47.6135533072       14.6496627178       -5.8457469950  MEMB      324             0.0000000000
     40404       324  QMPE      H10X          -46.6881159063       15.1623799443       -6.1848745213  MEMB      324             0.0000000000
     40405       324  QMPE      H10Y          -47.3630706898       13.6274116694       -5.4899623596  MEMB      324             0.0000000000
     40406       324  QMPE      C311          -48.1569371343       15.4187278316       -4.6540829848  MEMB      324             0.0000000000
     40407       324  QMPE      H11X          -48.3205270020       16.4674373955       -4.9823630854  MEMB      324             0.0000000000
     40408       324  QMPE      H11Y          -47.3870270940       15.4455610233       -3.8535590441  MEMB      324             0.0000000000
     40409       324  QMPE      C312          -49.5002285102       14.7131098153       -4.2319600810  MEMB      324             0.0000000000
     40410       324  QMPE      H12X          -49.2399890671       13.6334303723       -4.2617713708  MEMB      324             0.0000000000
     40411       324  QMPE      H12Y          -50.1947311047       14.8717765639       -5.0844922351  MEMB      324             0.0000000000
     40412       324  QMPE      C313          -49.9878352398       15.0041005309       -2.7566664351  MEMB      324             0.0000000000
     40413       324  QMPE      H13X          -49.1002734285       14.6341395017       -2.2001731223  MEMB      324             0.0000000000
     40414       324  QMPE      H13Y          -50.2135652946       16.0853646466       -2.6373557494  MEMB      324             0.0000000000
     40415       324  QMPE      C314          -51.2741707688       14.2049168391       -2.1984691674  MEMB      324             0.0000000000
     40416       324  QMPE      H14X          -51.1651824672       13.1236134863       -2.4291765835  MEMB      324             0.0000000000
     40417       324  QMPE      H14Y          -52.1412561446       14.5464494493       -2.8033165569  MEMB      324             0.0000000000
     40418       324  QMPE      C315          -51.6695205260       14.4239282911       -0.7440157166  MEMB      324             0.0000000000
     40419       324  QMPE      H15X          -50.9824468256       13.8139449679       -0.1193785437  MEMB      324             0.0000000000
     40420       324  QMPE      H15Y          -51.5346768557       15.4783243825       -0.4209268546  MEMB      324             0.0000000000
     40421       324  QMPE      H15Z          -52.7546940129       14.2490882486       -0.5823049230  MEMB      324             0.0000000000
     40422       325  PYPG      C13            42.5823854393       22.6129726015      -18.1052024321  MEMB      325             0.0000000000
     40423       325  PYPG      H13A           43.5642661603       22.1084979573      -17.9797573005  MEMB      325             0.0000000000
     40424       325  PYPG      H13B           42.1657432391       23.0150277937      -17.1570031224  MEMB      325             0.0000000000
     40425       325  PYPG      OC3            41.7117376867       21.5705551603      -18.5382757058  MEMB      325             0.0000000000
     40426       325  PYPG      HO3            42.0971167857       21.2644267566      -19.3625138462  MEMB      325             0.0000000000
     40427       325  PYPG      C12            42.6340714274       23.7920143093      -19.2060070048  MEMB      325             0.0000000000
     40428       325  PYPG      H12A           41.6386536335       24.2939046603      -19.2006655373  MEMB      325             0.0000000000
     40429       325  PYPG      OC2            42.8430255649       23.2414316679      -20.5072517217  MEMB      325             0.0000000000
     40430       325  PYPG      HO2            42.9921466855       24.0376348042      -21.0627157595  MEMB      325             0.0000000000
     40431       325  PYPG      C11            43.6805544635       24.8607325943      -18.9303768501  MEMB      325             0.0000000000
     40432       325  PYPG      H11A           43.5696783191       25.3313444303      -17.9301008909  MEMB      325             0.0000000000
     40433       325  PYPG      H11B           43.6539751263       25.6796692344      -19.6806816280  MEMB      325             0.0000000000
     40434       325  PYPG      P              46.2705977078       25.1358046841      -19.0275484549  MEMB      325             0.0000000000
     40435       325  PYPG      O13            45.9300915176       26.1892634622      -19.9174112692  MEMB      325             0.0000000000
     40436       325  PYPG      O14            47.5454304276       24.3621216013      -19.2068998711  MEMB      325             0.0000000000
     40437       325  PYPG      O11            46.1843303157       25.5785969834      -17.4610767888  MEMB      325             0.0000000000
     40438       325  PYPG      O12            44.9965874503       24.1781139373      -19.0999499339  MEMB      325             0.0000000000
     40439       325  PYPG      C1             46.3044197738       24.6411374570      -16.3935306634  MEMB      325             0.0000000000
     40440       325  PYPG      HA             47.3413013515       24.8143719073      -16.0341041623  MEMB      325             0.0000000000
     40441       325  PYPG      HB             46.1275758274       23.5867889494      -16.6958490982  MEMB      325             0.0000000000
     40442       325  PYPG      C2             45.2570771772       25.0092961014      -15.3706601920  MEMB      325             0.0000000000
     40443       325  PYPG      HS             44.2731140069       25.1505993674      -15.8668165516  MEMB      325             0.0000000000
     40444       325  PYPG      O21            45.7093809417       26.3266323775      -14.8360803943  MEMB      325             0.0000000000
     40445       325  PYPG      C21            44.6735312344       27.0768330906      -14.3245090042  MEMB      325             0.0000000000
     40446       325  PYPG      O22            43.5371502897       26.8377726676      -14.5473443674  MEMB      325             0.0000000000
     40447       325  PYPG      C22            45.2652047136       28.4206593385      -13.7112147052  MEMB      325             0.0000000000
     40448       325  PYPG      H2R            44.5347587757       28.7394600287      -12.9371760146  MEMB      325             0.0000000000
     40449       325  PYPG      H2S            45.4002230909       29.1731593272      -14.5173379172  MEMB      325             0.0000000000
     40450       325  PYPG      C3             45.1570903071       23.9588028760      -14.1746469073  MEMB      325             0.0000000000
     40451       325  PYPG      HX             44.7023235788       23.0205964491      -14.5584134392  MEMB      325             0.0000000000
     40452       325  PYPG      HY             44.4745301762       24.4003157901      -13.4173496719  MEMB      325             0.0000000000
     40453       325  PYPG      O31            46.5005759587       23.7852401981      -13.6768162022  MEMB      325             0.0000000000
     40454       325  PYPG      C31            46.5636686091       23.1251023530      -12.5982971592  MEMB      325             0.0000000000
     40455       325  PYPG      O32            45.6039027255       22.6576069369      -11.9245851720  MEMB      325             0.0000000000
     40456       325  PYPG      C32            48.0175357462       22.7823204395      -12.3429538711  MEMB      325             0.0000000000
     40457       325  PYPG      H2X            48.6191675482       22.6531437484      -13.2679800939  MEMB      325             0.0000000000
     40458       325  PYPG      H2Y            48.4437815172       23.6434434678      -11.7851881241  MEMB      325             0.0000000000
     40459       325  PYPG      C23            46.6840835445       28.3921606800      -13.1395003876  MEMB      325             0.0000000000
     40460       325  PYPG      H3R            47.1775851738       29.3727315567      -13.3105478301  MEMB      325             0.0000000000
     40461       325  PYPG      H3S            47.3537362127       27.6319581866      -13.5955472956  MEMB      325             0.0000000000
     40462       325  PYPG      C24            46.5481736532       28.2356605165      -11.6206096709  MEMB      325             0.0000000000
     40463       325  PYPG      H4R            45.8853069995       29.0068053195      -11.1731007027  MEMB      325             0.0000000000
     40464       325  PYPG      H4S            47.5758913799       28.4542658323      -11.2595983373  MEMB      325             0.0000000000
     40465       325  PYPG      C25            46.1348808334       26.8691758760      -11.2314462793  MEMB      325             0.0000000000
     40466       325  PYPG      H5R            46.6524174476       26.1203038184      -11.8683666598  MEMB      325             0.0000000000
     40467       325  PYPG      H5S            45.0318031677       26.7650333780      -11.3132704074  MEMB      325             0.0000000000
     40468       325  PYPG      C26            46.3265842090       26.7938381439       -9.6370016880  MEMB      325             0.0000000000
     40469       325  PYPG      H6R            45.5493270772       27.4226418690       -9.1524421787  MEMB      325             0.0000000000
     40470       325  PYPG      H6S            47.2709754895       27.2677543461       -9.2937097626  MEMB      325             0.0000000000
     40471       325  PYPG      C27            46.1382168875       25.3536794042       -9.1341585307  MEMB      325             0.0000000000
     40472       325  PYPG      H7R            46.9850431385       24.7472429158       -9.5207346159  MEMB      325             0.0000000000
     40473       325  PYPG      H7S            45.1663837005       24.9296688127       -9.4659356369  MEMB      325             0.0000000000
     40474       325  PYPG      C28            46.2408890203       25.3325740605       -7.5686937472  MEMB      325             0.0000000000
     40475       325  PYPG      H8R            47.1423255454       25.9542600994       -7.3809728879  MEMB      325             0.0000000000
     40476       325  PYPG      H8S            46.5570269021       24.3437443137       -7.1729754761  MEMB      325             0.0000000000
     40477       325  PYPG      C29            45.1225659210       25.8544873081       -6.7527195986  MEMB      325             0.0000000000
     40478       325  PYPG      H9R            45.0048293668       26.9388461382       -6.6102268359  MEMB      325             0.0000000000
     40479       325  PYPG      C210           44.2634847965       25.1136029325       -5.9952356984  MEMB      325             0.0000000000
     40480       325  PYPG      H10R           43.4564352279       25.6089377781       -5.4354903072  MEMB      325             0.0000000000
     40481       325  PYPG      C211           44.3191481536       23.5378231671       -5.8321258451  MEMB      325             0.0000000000
     40482       325  PYPG      H11R           44.7917447861       23.0646931218       -6.7193248175  MEMB      325             0.0000000000
     40483       325  PYPG      H11S           43.2250763259       23.3489744673       -5.7913301747  MEMB      325             0.0000000000
     40484       325  PYPG      C212           44.9980386288       23.3386238245       -4.4605888222  MEMB      325             0.0000000000
     40485       325  PYPG      H12R           46.0876338237       23.5480514079       -4.5175363193  MEMB      325             0.0000000000
     40486       325  PYPG      H12S           44.8190782380       22.2574236376       -4.2781056321  MEMB      325             0.0000000000
     40487       325  PYPG      C213           44.4518231051       24.1864930594       -3.3052346105  MEMB      325             0.0000000000
     40488       325  PYPG      H13R           43.3646754617       24.4106691830       -3.2585911391  MEMB      325             0.0000000000
     40489       325  PYPG      H13S           44.8987329440       25.1868671135       -3.4892026771  MEMB      325             0.0000000000
     40490       325  PYPG      C214           44.9491502341       23.7507349532       -1.8958689829  MEMB      325             0.0000000000
     40491       325  PYPG      H14R           44.3893425246       22.8008407409       -1.7593500961  MEMB      325             0.0000000000
     40492       325  PYPG      H14S           46.0455305392       23.6151813225       -2.0137503984  MEMB      325             0.0000000000
     40493       325  PYPG      C215           44.7359248072       24.7421753352       -0.7338294315  MEMB      325             0.0000000000
     40494       325  PYPG      H15R           45.0490410402       24.2229938815        0.1971536648  MEMB      325             0.0000000000
     40495       325  PYPG      H15S           43.7093126213       25.1620392011       -0.6697780911  MEMB      325             0.0000000000
     40496       325  PYPG      C216           45.5187279732       26.0596973244       -0.8806947604  MEMB      325             0.0000000000
     40497       325  PYPG      H16R           46.5963911080       25.8873964097       -0.6726654054  MEMB      325             0.0000000000
     40498       325  PYPG      H16S           45.1405592312       26.7390064028       -0.0870652142  MEMB      325             0.0000000000
     40499       325  PYPG      H16T           45.3105009279       26.5223551127       -1.8690819859  MEMB      325             0.0000000000
     40500       325  PYPG      C33            48.1702027557       21.5117876085      -11.4368472629  MEMB      325             0.0000000000
     40501       325  PYPG      H3X            49.2678538366       21.4284714540      -11.2867062235  MEMB      325             0.0000000000
     40502       325  PYPG      H3Y            47.8373541946       20.6476334953      -12.0506629132  MEMB      325             0.0000000000
     40503       325  PYPG      C34            47.5089932162       21.4686884332      -10.0492070897  MEMB      325             0.0000000000
     40504       325  PYPG      H4X            46.4374838161       21.2034758790      -10.1751067432  MEMB      325             0.0000000000
     40505       325  PYPG      H4Y            47.7127315705       22.4308704502       -9.5324697161  MEMB      325             0.0000000000
     40506       325  PYPG      C35            48.1073657760       20.3584691067       -9.2158807141  MEMB      325             0.0000000000
     40507       325  PYPG      H5X            49.1967298371       20.5757595690       -9.2356917571  MEMB      325             0.0000000000
     40508       325  PYPG      H5Y            47.9243674063       19.3724089078       -9.6939154507  MEMB      325             0.0000000000
     40509       325  PYPG      C36            47.6507719997       20.4317641890       -7.7473789508  MEMB      325             0.0000000000
     40510       325  PYPG      H6X            46.5527664662       20.5992926418       -7.7221088448  MEMB      325             0.0000000000
     40511       325  PYPG      H6Y            47.9514123704       21.4119612996       -7.3194178717  MEMB      325             0.0000000000
     40512       325  PYPG      C37            48.0868417904       19.2408241573       -6.8390779518  MEMB      325             0.0000000000
     40513       325  PYPG      H7X            47.6692145026       18.2686297757       -7.1778200208  MEMB      325             0.0000000000
     40514       325  PYPG      H7Y            49.1939132129       19.1509561568       -6.8138262473  MEMB      325             0.0000000000
     40515       325  PYPG      C38            47.7796220436       19.3703322386       -5.3093831254  MEMB      325             0.0000000000
     40516       325  PYPG      H8X            48.2665531107       18.5374173175       -4.7585004510  MEMB      325             0.0000000000
     40517       325  PYPG      H8Y            46.7064218164       19.1576154327       -5.1162147419  MEMB      325             0.0000000000
     40518       325  PYPG      C39            48.2613230387       20.7067221743       -4.6905223205  MEMB      325             0.0000000000
     40519       325  PYPG      H9X            48.1560734509       20.6542322876       -3.5857651182  MEMB      325             0.0000000000
     40520       325  PYPG      H9Y            47.5405898748       21.4263114790       -5.1344325239  MEMB      325             0.0000000000
     40521       325  PYPG      C310           49.6272809720       21.2719409166       -4.9628943121  MEMB      325             0.0000000000
     40522       325  PYPG      H10X           49.7270526411       21.1461510723       -6.0622318449  MEMB      325             0.0000000000
     40523       325  PYPG      H10Y           50.2842047229       20.4929410879       -4.5202525269  MEMB      325             0.0000000000
     40524       325  PYPG      C311           49.9165216835       22.7135209832       -4.4755556936  MEMB      325             0.0000000000
     40525       325  PYPG      H11X           51.0200788952       22.8403343041       -4.4955782458  MEMB      325             0.0000000000
     40526       325  PYPG      H11Y           49.4525021026       22.8365590225       -3.4736225197  MEMB      325             0.0000000000
     40527       325  PYPG      C312           49.2251976279       23.8026772129       -5.4139743783  MEMB      325             0.0000000000
     40528       325  PYPG      H12X           49.6244770937       23.6228549726       -6.4350327221  MEMB      325             0.0000000000
     40529       325  PYPG      H12Y           48.1413451836       23.6104486277       -5.2635320490  MEMB      325             0.0000000000
     40530       325  PYPG      C313           49.4827969159       25.1093226853       -4.7640960556  MEMB      325             0.0000000000
     40531       325  PYPG      H13X           49.2224504746       25.0736107343       -3.6846209763  MEMB      325             0.0000000000
     40532       325  PYPG      H13Y           50.5390511299       25.4353905956       -4.8751266764  MEMB      325             0.0000000000
     40533       325  PYPG      C314           48.7663717059       26.2226630663       -5.4261480550  MEMB      325             0.0000000000
     40534       325  PYPG      H14X           48.9517972959       26.2111550014       -6.5215041723  MEMB      325             0.0000000000
     40535       325  PYPG      H14Y           47.6998900177       26.1346780625       -5.1274903983  MEMB      325             0.0000000000
     40536       325  PYPG      C315           49.2001896305       27.4989490965       -4.7354749741  MEMB      325             0.0000000000
     40537       325  PYPG      H15X           50.3077852184       27.5858002243       -4.7322798086  MEMB      325             0.0000000000
     40538       325  PYPG      H15Y           48.8050728580       28.3183012591       -5.3733345162  MEMB      325             0.0000000000
     40539       325  PYPG      C316           48.7878647285       27.7746755248       -3.2271119986  MEMB      325             0.0000000000
     40540       325  PYPG      H16X           47.6786173945       27.7406487426       -3.2794041440  MEMB      325             0.0000000000
     40541       325  PYPG      H16Y           49.2130847200       28.7477220713       -2.9004803468  MEMB      325             0.0000000000
     40542       325  PYPG      H16Z           49.1608722838       26.9878198378       -2.5371532031  MEMB      325             0.0000000000
     40543       326  QMPE      N              46.6264717225      -18.7449699395      -20.4368570159  MEMB      326             0.0000000000
     40544       326  QMPE      HN1            46.6970628698      -17.8142968292      -20.8956214291  MEMB      326             0.0000000000
     40545       326  QMPE      HN2            45.7481085770      -19.1666248074      -20.8005677029  MEMB      326             0.0000000000
     40546       326  QMPE      HN3            46.6030744941      -18.6716058840      -19.3997117986  MEMB      326             0.0000000000
     40547       326  QMPE      C12            47.7166590247      -19.7195743449      -20.8569188322  MEMB      326             0.0000000000
     40548       326  QMPE      H12A           48.5214149983      -19.0646368469      -21.2540908205  MEMB      326             0.0000000000
     40549       326  QMPE      H12B           47.3370657593      -20.2584807274      -21.7512396063  MEMB      326             0.0000000000
     40550       326  QMPE      C11            48.1092573787      -20.7287261755      -19.7328562432  MEMB      326             0.0000000000
     40551       326  QMPE      H11A           48.4093104479      -20.2676666023      -18.7676033323  MEMB      326             0.0000000000
     40552       326  QMPE      H11B           48.9815278249      -21.3443288421      -20.0402621710  MEMB      326             0.0000000000
     40553       326  QMPE      P              46.2945673974      -21.6683636587      -18.1581707649  MEMB      326             0.0000000000
     40554       326  QMPE      O13            47.0612696131      -22.4330028440      -17.1300571990  MEMB      326             0.0000000000
     40555       326  QMPE      O14            44.9607537369      -22.2233181712      -18.3600504937  MEMB      326             0.0000000000
     40556       326  QMPE      O11            46.3245416932      -20.0688063364      -17.7354508860  MEMB      326             0.0000000000
     40557       326  QMPE      O12            47.0367202200      -21.6168465020      -19.5896385651  MEMB      326             0.0000000000
     40558       326  QMPE      C1             45.3303527989      -19.6428117255      -16.7701126869  MEMB      326             0.0000000000
     40559       326  QMPE      HA             44.3469900100      -20.1440342233      -16.8969783487  MEMB      326             0.0000000000
     40560       326  QMPE      HB             45.2728368885      -18.5596904821      -17.0106564660  MEMB      326             0.0000000000
     40561       326  QMPE      C2             45.7214066600      -19.6855817310      -15.2407403261  MEMB      326             0.0000000000
     40562       326  QMPE      HS             45.1309116051      -18.9979575935      -14.5982379245  MEMB      326             0.0000000000
     40563       326  QMPE      O21            47.0913008904      -19.3527060255      -15.1267762679  MEMB      326             0.0000000000
     40564       326  QMPE      C21            47.4968583493      -18.1483855965      -15.4321165185  MEMB      326             0.0000000000
     40565       326  QMPE      O22            46.8993249456      -17.1621006138      -15.7930415362  MEMB      326             0.0000000000
     40566       326  QMPE      C22            48.9851460686      -18.1230713988      -14.9721380596  MEMB      326             0.0000000000
     40567       326  QMPE      H2R            49.5508094860      -17.7220691178      -15.8402064734  MEMB      326             0.0000000000
     40568       326  QMPE      H2S            49.3923052303      -19.1390492524      -14.7815301883  MEMB      326             0.0000000000
     40569       326  QMPE      C3             45.4333960160      -21.0306647620      -14.5689010058  MEMB      326             0.0000000000
     40570       326  QMPE      HX             45.3483706270      -21.7869200020      -15.3783267228  MEMB      326             0.0000000000
     40571       326  QMPE      HY             44.3834817698      -20.9437253868      -14.2161366611  MEMB      326             0.0000000000
     40572       326  QMPE      O31            46.3117186167      -21.4675407893      -13.5083943411  MEMB      326             0.0000000000
     40573       326  QMPE      C31            46.1576134617      -22.6512871589      -12.9783477245  MEMB      326             0.0000000000
     40574       326  QMPE      O32            45.2796992473      -23.3872643546      -13.2382326022  MEMB      326             0.0000000000
     40575       326  QMPE      C32            47.2922557428      -23.0333051441      -11.9923671148  MEMB      326             0.0000000000
     40576       326  QMPE      H2X            46.9740915780      -23.8642520876      -11.3270705402  MEMB      326             0.0000000000
     40577       326  QMPE      H2Y            48.1967419150      -23.3526613676      -12.5529360938  MEMB      326             0.0000000000
     40578       326  QMPE      C23            49.1627019798      -17.2683826135      -13.6807711002  MEMB      326             0.0000000000
     40579       326  QMPE      H3R            48.3612820916      -17.6353155446      -13.0044518970  MEMB      326             0.0000000000
     40580       326  QMPE      H3S            49.0004839756      -16.1977509591      -13.9292747327  MEMB      326             0.0000000000
     40581       326  QMPE      C24            50.5234193126      -17.3304336482      -12.9782365994  MEMB      326             0.0000000000
     40582       326  QMPE      H4R            51.2815318742      -16.8913278005      -13.6614441594  MEMB      326             0.0000000000
     40583       326  QMPE      H4S            50.8217458351      -18.3519799555      -12.6592297216  MEMB      326             0.0000000000
     40584       326  QMPE      C25            50.6440430517      -16.6064624307      -11.6178679225  MEMB      326             0.0000000000
     40585       326  QMPE      H5R            50.4303670561      -15.5260096329      -11.7637623976  MEMB      326             0.0000000000
     40586       326  QMPE      H5S            51.7002522162      -16.7572014197      -11.3079955439  MEMB      326             0.0000000000
     40587       326  QMPE      C26            49.7634816203      -17.2002176641      -10.5307069043  MEMB      326             0.0000000000
     40588       326  QMPE      H6R            49.4546321609      -18.2182487095      -10.8509347930  MEMB      326             0.0000000000
     40589       326  QMPE      H6S            48.7768681066      -16.7195944477      -10.3577428882  MEMB      326             0.0000000000
     40590       326  QMPE      C27            50.5420162744      -17.4651485498       -9.2025668335  MEMB      326             0.0000000000
     40591       326  QMPE      H7R            50.8891704820      -16.4429825377       -8.9399222752  MEMB      326             0.0000000000
     40592       326  QMPE      H7S            51.4001999273      -18.1625760077       -9.3095098228  MEMB      326             0.0000000000
     40593       326  QMPE      C28            49.5572829034      -17.9626580947       -8.1369052965  MEMB      326             0.0000000000
     40594       326  QMPE      H8R            49.1735638782      -18.9184784180       -8.5534239560  MEMB      326             0.0000000000
     40595       326  QMPE      H8S            48.6515267555      -17.3200182065       -8.1062342769  MEMB      326             0.0000000000
     40596       326  QMPE      C29            50.1855589971      -18.2476038914       -6.7431358939  MEMB      326             0.0000000000
     40597       326  QMPE      H9R            51.1358908375      -18.8216532277       -6.7838534662  MEMB      326             0.0000000000
     40598       326  QMPE      C217           49.4197510551      -18.2565286812       -5.4628452442  MEMB      326             0.0000000000
     40599       326  QMPE      H17R           48.3949851840      -18.0614846849       -5.7538805914  MEMB      326             0.0000000000
     40600       326  QMPE      H17S           49.8058590549      -18.9638907093       -4.7393479753  MEMB      326             0.0000000000
     40601       326  QMPE      C210           50.3895861258      -17.0392725451       -5.7698456280  MEMB      326             0.0000000000
     40602       326  QMPE      H10R           51.4255593589      -16.9409486891       -5.3807279817  MEMB      326             0.0000000000
     40603       326  QMPE      C211           49.7804023283      -15.7172779976       -6.2075387871  MEMB      326             0.0000000000
     40604       326  QMPE      H11R           50.4973351037      -15.3159368293       -6.9553708298  MEMB      326             0.0000000000
     40605       326  QMPE      H11S           48.7799223880      -15.7000339560       -6.6903047732  MEMB      326             0.0000000000
     40606       326  QMPE      C212           49.7540117605      -14.7310934597       -5.0484105352  MEMB      326             0.0000000000
     40607       326  QMPE      H12R           49.3700899634      -13.7652460339       -5.4409198238  MEMB      326             0.0000000000
     40608       326  QMPE      H12S           50.7513714474      -14.5023563343       -4.6156586125  MEMB      326             0.0000000000
     40609       326  QMPE      C213           49.0663199041      -15.2967645047       -3.7657184159  MEMB      326             0.0000000000
     40610       326  QMPE      H13R           49.4689210871      -16.2870078730       -3.4629783431  MEMB      326             0.0000000000
     40611       326  QMPE      H13S           47.9780556546      -15.4740704952       -3.9019694553  MEMB      326             0.0000000000
     40612       326  QMPE      C214           49.2671409825      -14.4137259667       -2.5039097957  MEMB      326             0.0000000000
     40613       326  QMPE      H14R           48.8244340182      -13.4067742637       -2.6600481186  MEMB      326             0.0000000000
     40614       326  QMPE      H14S           50.3316020330      -14.3549937021       -2.1911905126  MEMB      326             0.0000000000
     40615       326  QMPE      C215           48.6245760508      -15.0129206499       -1.2545859663  MEMB      326             0.0000000000
     40616       326  QMPE      H15R           48.6609713555      -16.1231597230       -1.2354672746  MEMB      326             0.0000000000
     40617       326  QMPE      H15S           47.5500432189      -14.7514496886       -1.3610410258  MEMB      326             0.0000000000
     40618       326  QMPE      C216           49.1803502348      -14.4348559310        0.0157931222  MEMB      326             0.0000000000
     40619       326  QMPE      H16R           49.0199753855      -14.9752156550        0.9731910107  MEMB      326             0.0000000000
     40620       326  QMPE      H16S           49.0046216047      -13.3577164291        0.2236650644  MEMB      326             0.0000000000
     40621       326  QMPE      H16T           50.2641808588      -14.5388001011       -0.2051766683  MEMB      326             0.0000000000
     40622       326  QMPE      C33            47.7439606047      -21.9041052356      -11.0470093527  MEMB      326             0.0000000000
     40623       326  QMPE      H3X            46.9384771929      -21.7014211730      -10.3091500771  MEMB      326             0.0000000000
     40624       326  QMPE      H3Y            47.7191600201      -20.9105120878      -11.5434754104  MEMB      326             0.0000000000
     40625       326  QMPE      C34            48.9702282122      -22.2083925991      -10.2593245571  MEMB      326             0.0000000000
     40626       326  QMPE      H4X            49.2033501345      -21.3955107823       -9.5387705168  MEMB      326             0.0000000000
     40627       326  QMPE      H4Y            49.8395313826      -22.1558499166      -10.9491596064  MEMB      326             0.0000000000
     40628       326  QMPE      C35            48.9492418569      -23.5309391654       -9.4828685438  MEMB      326             0.0000000000
     40629       326  QMPE      H5X            49.9728957922      -23.6100123969       -9.0583669897  MEMB      326             0.0000000000
     40630       326  QMPE      H5Y            48.9814549684      -24.3115976639      -10.2727135203  MEMB      326             0.0000000000
     40631       326  QMPE      C36            47.7678757132      -23.8366421599       -8.4860192599  MEMB      326             0.0000000000
     40632       326  QMPE      H6X            47.8614873771      -24.8198087220       -7.9771566942  MEMB      326             0.0000000000
     40633       326  QMPE      H6Y            46.7420897113      -23.8916133652       -8.9091764797  MEMB      326             0.0000000000
     40634       326  QMPE      C37            47.6509734914      -22.8502947743       -7.3316425670  MEMB      326             0.0000000000
     40635       326  QMPE      H7X            48.5308724382      -22.9606144449       -6.6623686073  MEMB      326             0.0000000000
     40636       326  QMPE      H7Y            47.7846728983      -21.8156011783       -7.7135521096  MEMB      326             0.0000000000
     40637       326  QMPE      C38            46.2979382318      -22.9485050970       -6.5625675644  MEMB      326             0.0000000000
     40638       326  QMPE      H8X            45.3817089030      -22.8586175222       -7.1844728753  MEMB      326             0.0000000000
     40639       326  QMPE      H8Y            46.2338527781      -23.9946963821       -6.1941960357  MEMB      326             0.0000000000
     40640       326  QMPE      C39            46.1401714951      -21.8809945104       -5.4407027899  MEMB      326             0.0000000000
     40641       326  QMPE      H9X            45.1744898632      -21.9780176667       -4.8999930038  MEMB      326             0.0000000000
     40642       326  QMPE      H9Y            46.1691846703      -20.8347816202       -5.8134196671  MEMB      326             0.0000000000
     40643       326  QMPE      C310           47.3324135540      -21.9681521267       -4.3509946612  MEMB      326             0.0000000000
     40644       326  QMPE      H10X           48.3402133944      -21.9680303753       -4.8186058152  MEMB      326             0.0000000000
     40645       326  QMPE      H10Y           47.1584649452      -22.8499425884       -3.6979180343  MEMB      326             0.0000000000
     40646       326  QMPE      C311           47.1715088452      -20.8266772723       -3.3080710578  MEMB      326             0.0000000000
     40647       326  QMPE      H11X           46.1632519475      -20.9967645733       -2.8735491320  MEMB      326             0.0000000000
     40648       326  QMPE      H11Y           47.2421211314      -19.8607530644       -3.8524281866  MEMB      326             0.0000000000
     40649       326  QMPE      C312           48.1526399595      -20.9169769429       -2.1447516049  MEMB      326             0.0000000000
     40650       326  QMPE      H12X           49.1909625541      -20.8086383281       -2.5248439064  MEMB      326             0.0000000000
     40651       326  QMPE      H12Y           48.0814860231      -21.9044558363       -1.6406251503  MEMB      326             0.0000000000
     40652       326  QMPE      C313           48.0741488550      -19.7626216815       -1.0983576187  MEMB      326             0.0000000000
     40653       326  QMPE      H13X           48.1354089728      -18.8278536019       -1.6956657886  MEMB      326             0.0000000000
     40654       326  QMPE      H13Y           47.0823605926      -19.8017204978       -0.5992105386  MEMB      326             0.0000000000
     40655       326  QMPE      C314           49.2868182488      -19.8329642183       -0.1257930028  MEMB      326             0.0000000000
     40656       326  QMPE      H14X           49.5991391883      -20.8657267046        0.1391180820  MEMB      326             0.0000000000
     40657       326  QMPE      H14Y           48.8979033766      -19.4637133049        0.8472020663  MEMB      326             0.0000000000
     40658       326  QMPE      C315           50.4952253903      -18.9802194804       -0.5475284166  MEMB      326             0.0000000000
     40659       326  QMPE      H15X           50.1445411786      -17.9326545676       -0.6656359662  MEMB      326             0.0000000000
     40660       326  QMPE      H15Y           51.2056471561      -19.0462890795        0.3040906358  MEMB      326             0.0000000000
     40661       326  QMPE      H15Z           50.9007394914      -19.3818859534       -1.5007037599  MEMB      326             0.0000000000
     40662       327  PYPG      C13            39.1535186109       29.2564908781      -19.3400057886  MEMB      327             0.0000000000
     40663       327  PYPG      H13A           38.5889525469       29.0588877291      -20.2762425025  MEMB      327             0.0000000000
     40664       327  PYPG      H13B           39.2702258759       28.2802484008      -18.8226561525  MEMB      327             0.0000000000
     40665       327  PYPG      OC3            38.3449173735       30.0178180282      -18.4808044169  MEMB      327             0.0000000000
     40666       327  PYPG      HO3            38.6134835736       30.9393397204      -18.4972381800  MEMB      327             0.0000000000
     40667       327  PYPG      C12            40.5806782140       29.8818087137      -19.5297383846  MEMB      327             0.0000000000
     40668       327  PYPG      H12A           41.1865042618       29.1524511039      -20.1160755885  MEMB      327             0.0000000000
     40669       327  PYPG      OC2            41.2123002843       30.0602175371      -18.2611703958  MEMB      327             0.0000000000
     40670       327  PYPG      HO2            42.0198937700       30.5718375210      -18.4864581986  MEMB      327             0.0000000000
     40671       327  PYPG      C11            40.5321503628       31.2584680946      -20.3377554277  MEMB      327             0.0000000000
     40672       327  PYPG      H11A           39.9955705218       31.1556197567      -21.3051359776  MEMB      327             0.0000000000
     40673       327  PYPG      H11B           41.6160354775       31.3655021263      -20.5569761549  MEMB      327             0.0000000000
     40674       327  PYPG      P              40.8380591227       33.3351283309      -18.8099043739  MEMB      327             0.0000000000
     40675       327  PYPG      O13            41.0601232703       34.6055920312      -19.4918253337  MEMB      327             0.0000000000
     40676       327  PYPG      O14            42.1513426296       32.6772493470      -18.5642707691  MEMB      327             0.0000000000
     40677       327  PYPG      O11            39.9634703206       33.6257692913      -17.4848690814  MEMB      327             0.0000000000
     40678       327  PYPG      O12            40.0319068528       32.4066717810      -19.6996560001  MEMB      327             0.0000000000
     40679       327  PYPG      C1             38.6810307449       34.2470125144      -17.4829544104  MEMB      327             0.0000000000
     40680       327  PYPG      HA             37.9832584442       33.7768347539      -18.2084665038  MEMB      327             0.0000000000
     40681       327  PYPG      HB             38.9169766099       35.2821977179      -17.8101274826  MEMB      327             0.0000000000
     40682       327  PYPG      C2             38.0888137436       34.0515411483      -16.0251323031  MEMB      327             0.0000000000
     40683       327  PYPG      HS             37.1615568310       34.6590805837      -15.9515686367  MEMB      327             0.0000000000
     40684       327  PYPG      O21            39.0756803089       34.3744593742      -14.9973065055  MEMB      327             0.0000000000
     40685       327  PYPG      C21            39.0806291163       35.5887415911      -14.4522578215  MEMB      327             0.0000000000
     40686       327  PYPG      O22            38.6015227993       36.5673700467      -14.9378838649  MEMB      327             0.0000000000
     40687       327  PYPG      C22            39.8953001254       35.5350379071      -13.2193446619  MEMB      327             0.0000000000
     40688       327  PYPG      H2R            40.9472098719       35.4491129109      -13.5663660591  MEMB      327             0.0000000000
     40689       327  PYPG      H2S            39.7383056503       34.6386597429      -12.5820222886  MEMB      327             0.0000000000
     40690       327  PYPG      C3             37.5549090774       32.6076862716      -15.6315247545  MEMB      327             0.0000000000
     40691       327  PYPG      HX             36.9163332690       32.2784691878      -16.4789667895  MEMB      327             0.0000000000
     40692       327  PYPG      HY             37.0363471291       32.5442705959      -14.6510181554  MEMB      327             0.0000000000
     40693       327  PYPG      O31            38.5792695863       31.6535965202      -15.7558395609  MEMB      327             0.0000000000
     40694       327  PYPG      C31            39.2108561150       31.2071321393      -14.7137420249  MEMB      327             0.0000000000
     40695       327  PYPG      O32            38.9417857593       31.5318503554      -13.5587881291  MEMB      327             0.0000000000
     40696       327  PYPG      C32            40.5511560655       30.4393899760      -15.0519118338  MEMB      327             0.0000000000
     40697       327  PYPG      H2X            40.4280459654       30.0209921791      -16.0737281142  MEMB      327             0.0000000000
     40698       327  PYPG      H2Y            41.3844759461       31.1630400755      -14.9245170216  MEMB      327             0.0000000000
     40699       327  PYPG      C23            39.6321617772       36.7025760820      -12.3410051458  MEMB      327             0.0000000000
     40700       327  PYPG      H3R            38.5478212756       36.8981992574      -12.1986732988  MEMB      327             0.0000000000
     40701       327  PYPG      H3S            40.0422256924       37.5518073458      -12.9283507835  MEMB      327             0.0000000000
     40702       327  PYPG      C24            40.1785339635       36.5090169336      -10.8851280809  MEMB      327             0.0000000000
     40703       327  PYPG      H4R            39.7550187261       35.5639745156      -10.4828215979  MEMB      327             0.0000000000
     40704       327  PYPG      H4S            39.9127577289       37.3873648742      -10.2588774896  MEMB      327             0.0000000000
     40705       327  PYPG      C25            41.7540095481       36.3337735535      -10.8732999057  MEMB      327             0.0000000000
     40706       327  PYPG      H5R            42.2361824103       37.2283327822      -11.3222921733  MEMB      327             0.0000000000
     40707       327  PYPG      H5S            42.0236971384       35.4380998004      -11.4727645842  MEMB      327             0.0000000000
     40708       327  PYPG      C26            42.3249843666       36.0608175663       -9.4234194456  MEMB      327             0.0000000000
     40709       327  PYPG      H6R            41.6961655837       35.2812101300       -8.9426699448  MEMB      327             0.0000000000
     40710       327  PYPG      H6S            42.3663714777       36.9280120983       -8.7301794108  MEMB      327             0.0000000000
     40711       327  PYPG      C27            43.8811489336       35.6258995913       -9.4541982112  MEMB      327             0.0000000000
     40712       327  PYPG      H7R            44.4723040430       36.4189873977       -9.9600327543  MEMB      327             0.0000000000
     40713       327  PYPG      H7S            43.9213187417       34.7008137899      -10.0681399487  MEMB      327             0.0000000000
     40714       327  PYPG      C28            44.6112517369       35.2720309547       -8.1241861257  MEMB      327             0.0000000000
     40715       327  PYPG      H8R            45.7035498789       35.2280696749       -8.3223598401  MEMB      327             0.0000000000
     40716       327  PYPG      H8S            44.3082909104       34.2727148527       -7.7448404568  MEMB      327             0.0000000000
     40717       327  PYPG      C29            44.5422280080       36.2482050478       -6.9650568242  MEMB      327             0.0000000000
     40718       327  PYPG      H9R            45.3403058013       37.0023630820       -6.8993489023  MEMB      327             0.0000000000
     40719       327  PYPG      C210           43.6383628732       36.1854595625       -5.9654628043  MEMB      327             0.0000000000
     40720       327  PYPG      H10R           43.7044965705       37.0082072311       -5.2383367305  MEMB      327             0.0000000000
     40721       327  PYPG      C211           42.5828002675       35.1559511641       -5.6597688921  MEMB      327             0.0000000000
     40722       327  PYPG      H11R           42.7280535086       34.6277883027       -4.6931944457  MEMB      327             0.0000000000
     40723       327  PYPG      H11S           42.6605163114       34.3274267112       -6.3958592996  MEMB      327             0.0000000000
     40724       327  PYPG      C212           41.1185522323       35.6996216805       -5.6740214868  MEMB      327             0.0000000000
     40725       327  PYPG      H12R           40.3666146750       34.9121157742       -5.4532381172  MEMB      327             0.0000000000
     40726       327  PYPG      H12S           40.8454559813       36.0169748848       -6.7031116462  MEMB      327             0.0000000000
     40727       327  PYPG      C213           40.8179313061       36.8320085757       -4.7543809877  MEMB      327             0.0000000000
     40728       327  PYPG      H13R           39.7284736587       37.0488258036       -4.7345459494  MEMB      327             0.0000000000
     40729       327  PYPG      H13S           41.4015369594       37.6343085867       -5.2544207164  MEMB      327             0.0000000000
     40730       327  PYPG      C214           41.2969846951       36.6952236422       -3.3183959474  MEMB      327             0.0000000000
     40731       327  PYPG      H14R           40.6916100463       35.9009621574       -2.8315786536  MEMB      327             0.0000000000
     40732       327  PYPG      H14S           42.3817421326       36.4561211757       -3.2971300903  MEMB      327             0.0000000000
     40733       327  PYPG      C215           41.0694716842       37.9845022993       -2.5014714344  MEMB      327             0.0000000000
     40734       327  PYPG      H15R           40.0394816585       38.3841628453       -2.6185730428  MEMB      327             0.0000000000
     40735       327  PYPG      H15S           41.6428723067       38.8035327312       -2.9859520178  MEMB      327             0.0000000000
     40736       327  PYPG      C216           41.3005352059       37.9205156900       -0.9762639325  MEMB      327             0.0000000000
     40737       327  PYPG      H16R           42.3398713449       37.6800663457       -0.6659667707  MEMB      327             0.0000000000
     40738       327  PYPG      H16S           40.5881418838       37.1268923159       -0.6648512554  MEMB      327             0.0000000000
     40739       327  PYPG      H16T           40.8880007513       38.8534936468       -0.5361639017  MEMB      327             0.0000000000
     40740       327  PYPG      C33            40.8129893880       29.2702876874      -14.0138272421  MEMB      327             0.0000000000
     40741       327  PYPG      H3X            40.1880832762       28.3671323842      -14.1815294927  MEMB      327             0.0000000000
     40742       327  PYPG      H3Y            40.6930602020       29.7063925465      -12.9990611083  MEMB      327             0.0000000000
     40743       327  PYPG      C34            42.2164489231       28.6594589040      -14.0022553225  MEMB      327             0.0000000000
     40744       327  PYPG      H4X            42.5559843494       28.4007552134      -15.0279790467  MEMB      327             0.0000000000
     40745       327  PYPG      H4Y            42.2511742808       27.7169161791      -13.4151192862  MEMB      327             0.0000000000
     40746       327  PYPG      C35            43.3544055848       29.6182944523      -13.5944532251  MEMB      327             0.0000000000
     40747       327  PYPG      H5X            43.4644898743       30.2557592089      -14.4976924652  MEMB      327             0.0000000000
     40748       327  PYPG      H5Y            44.2166858277       28.9582860468      -13.3595433947  MEMB      327             0.0000000000
     40749       327  PYPG      C36            43.0025804285       30.5049065850      -12.4190636218  MEMB      327             0.0000000000
     40750       327  PYPG      H6X            42.3244077848       29.9155152294      -11.7655951296  MEMB      327             0.0000000000
     40751       327  PYPG      H6Y            42.5152291599       31.4673680803      -12.6845391644  MEMB      327             0.0000000000
     40752       327  PYPG      C37            44.3136181106       30.7654728070      -11.6350690819  MEMB      327             0.0000000000
     40753       327  PYPG      H7X            44.6512553805       29.7289144478      -11.4208988692  MEMB      327             0.0000000000
     40754       327  PYPG      H7Y            45.0913747150       31.3112092681      -12.2109055204  MEMB      327             0.0000000000
     40755       327  PYPG      C38            44.1393403414       31.4855255104      -10.2434015532  MEMB      327             0.0000000000
     40756       327  PYPG      H8X            43.8163713484       32.5261087676      -10.4606539942  MEMB      327             0.0000000000
     40757       327  PYPG      H8Y            45.1769344870       31.4680276277       -9.8466487100  MEMB      327             0.0000000000
     40758       327  PYPG      C39            43.2080931765       30.8269551249       -9.2433359739  MEMB      327             0.0000000000
     40759       327  PYPG      H9X            43.5392249725       29.8069757360       -8.9529665534  MEMB      327             0.0000000000
     40760       327  PYPG      H9Y            42.2207678396       30.6737788587       -9.7291827517  MEMB      327             0.0000000000
     40761       327  PYPG      C310           43.0918438538       31.7472239078       -8.0327957963  MEMB      327             0.0000000000
     40762       327  PYPG      H10X           42.7920286829       32.7661855229       -8.3586011920  MEMB      327             0.0000000000
     40763       327  PYPG      H10Y           44.0339089830       32.0128819688       -7.5071919194  MEMB      327             0.0000000000
     40764       327  PYPG      C311           42.0014258961       31.2848784358       -6.9792150808  MEMB      327             0.0000000000
     40765       327  PYPG      H11X           41.1071203290       30.8452489906       -7.4704028214  MEMB      327             0.0000000000
     40766       327  PYPG      H11Y           41.6617615146       32.1540304967       -6.3762864769  MEMB      327             0.0000000000
     40767       327  PYPG      C312           42.5370342318       30.3386038666       -5.9553650786  MEMB      327             0.0000000000
     40768       327  PYPG      H12X           43.0979241176       29.4993261962       -6.4194089091  MEMB      327             0.0000000000
     40769       327  PYPG      H12Y           43.3152362133       30.9030103201       -5.3984372856  MEMB      327             0.0000000000
     40770       327  PYPG      C313           41.5722581407       29.6945648952       -5.0175687583  MEMB      327             0.0000000000
     40771       327  PYPG      H13X           40.9227978144       29.0047881905       -5.5978527487  MEMB      327             0.0000000000
     40772       327  PYPG      H13Y           42.0287325428       28.9969783304       -4.2831805057  MEMB      327             0.0000000000
     40773       327  PYPG      C314           40.8023262139       30.7404962955       -4.1703384200  MEMB      327             0.0000000000
     40774       327  PYPG      H14X           40.1026911182       31.1939908482       -4.9046228921  MEMB      327             0.0000000000
     40775       327  PYPG      H14Y           40.2568366603       30.1926925233       -3.3724204191  MEMB      327             0.0000000000
     40776       327  PYPG      C315           41.5998390895       31.8337753764       -3.4787691454  MEMB      327             0.0000000000
     40777       327  PYPG      H15X           42.1957579371       32.3651213772       -4.2513448021  MEMB      327             0.0000000000
     40778       327  PYPG      H15Y           40.9839209450       32.6791978750       -3.1043002093  MEMB      327             0.0000000000
     40779       327  PYPG      C316           42.6001411721       31.3913113766       -2.3584082141  MEMB      327             0.0000000000
     40780       327  PYPG      H16X           42.0745718511       31.2032179948       -1.3978268407  MEMB      327             0.0000000000
     40781       327  PYPG      H16Y           43.2285973961       32.2853485305       -2.1582551139  MEMB      327             0.0000000000
     40782       327  PYPG      H16Z           43.3307329346       30.6286808689       -2.7033018816  MEMB      327             0.0000000000
     40783       328  PMPG      C13            42.3800566193      -25.6456665693      -19.3380031283  MEMB      328             0.0000000000
     40784       328  PMPG      H13A           43.3327075078      -25.1459726492      -19.6156416160  MEMB      328             0.0000000000
     40785       328  PMPG      H13B           41.4750729214      -25.1128802147      -19.7005831947  MEMB      328             0.0000000000
     40786       328  PMPG      OC3            42.3031948150      -25.5510388906      -17.9231277936  MEMB      328             0.0000000000
     40787       328  PMPG      HO3            41.5014724460      -26.0345741514      -17.7109134867  MEMB      328             0.0000000000
     40788       328  PMPG      C12            42.4762029733      -27.1198880184      -19.7101899429  MEMB      328             0.0000000000
     40789       328  PMPG      H12A           42.6315709299      -27.1736001262      -20.8128026798  MEMB      328             0.0000000000
     40790       328  PMPG      OC2            41.2498159183      -27.7853859342      -19.4050208007  MEMB      328             0.0000000000
     40791       328  PMPG      HO2            41.4689281383      -28.7313026131      -19.5531704270  MEMB      328             0.0000000000
     40792       328  PMPG      C11            43.6980738765      -27.8839335104      -19.0132860023  MEMB      328             0.0000000000
     40793       328  PMPG      H11A           43.5624411328      -28.0128934066      -17.9181631395  MEMB      328             0.0000000000
     40794       328  PMPG      H11B           44.5512476084      -27.1761953671      -19.0875993517  MEMB      328             0.0000000000
     40795       328  PMPG      P              43.3264864975      -30.5411139196      -18.9333585723  MEMB      328             0.0000000000
     40796       328  PMPG      O13            43.2940551343      -31.4930175523      -20.0544879517  MEMB      328             0.0000000000
     40797       328  PMPG      O14            42.0604193106      -30.2646964228      -18.2108718350  MEMB      328             0.0000000000
     40798       328  PMPG      O11            44.4519170887      -30.9545234836      -17.8823308011  MEMB      328             0.0000000000
     40799       328  PMPG      O12            43.9167437168      -29.2006647012      -19.5293231825  MEMB      328             0.0000000000
     40800       328  PMPG      C1             45.7557779403      -31.0061399692      -18.3561536687  MEMB      328             0.0000000000
     40801       328  PMPG      HA             46.0621742601      -30.2047987917      -19.0620535088  MEMB      328             0.0000000000
     40802       328  PMPG      HB             45.8702816563      -31.9648647426      -18.9057502699  MEMB      328             0.0000000000
     40803       328  PMPG      C2             46.7643218506      -30.8000619507      -17.2412646157  MEMB      328             0.0000000000
     40804       328  PMPG      HS             47.7571546460      -31.1308907189      -17.6143005597  MEMB      328             0.0000000000
     40805       328  PMPG      O21            46.4965903076      -31.7016538828      -16.2398556102  MEMB      328             0.0000000000
     40806       328  PMPG      C21            47.4401915127      -32.0218061165      -15.3602097008  MEMB      328             0.0000000000
     40807       328  PMPG      O22            48.6095645822      -31.6145606568      -15.3280689968  MEMB      328             0.0000000000
     40808       328  PMPG      C22            46.8485722299      -33.1530548563      -14.5100627365  MEMB      328             0.0000000000
     40809       328  PMPG      H2R            46.9424441642      -34.0564677607      -15.1498703214  MEMB      328             0.0000000000
     40810       328  PMPG      H2S            45.7845936788      -33.0399027556      -14.2109520648  MEMB      328             0.0000000000
     40811       328  PMPG      C3             46.7387853200      -29.3168165327      -16.6784468156  MEMB      328             0.0000000000
     40812       328  PMPG      HX             47.0143438567      -28.5738273151      -17.4571350694  MEMB      328             0.0000000000
     40813       328  PMPG      HY             47.5077521222      -29.3050610692      -15.8766532194  MEMB      328             0.0000000000
     40814       328  PMPG      O31            45.4195222852      -28.9926643487      -16.1730931710  MEMB      328             0.0000000000
     40815       328  PMPG      C31            45.1779545872      -29.1573420195      -14.8419643373  MEMB      328             0.0000000000
     40816       328  PMPG      O32            45.9507463784      -29.5463499484      -14.0522078320  MEMB      328             0.0000000000
     40817       328  PMPG      C32            43.7909740116      -28.6570957941      -14.4264204603  MEMB      328             0.0000000000
     40818       328  PMPG      H2X            43.2563292776      -28.4911954423      -15.3860833005  MEMB      328             0.0000000000
     40819       328  PMPG      H2Y            43.8910781660      -27.6723433878      -13.9218782162  MEMB      328             0.0000000000
     40820       328  PMPG      C23            47.7659218381      -33.2247538436      -13.1971804197  MEMB      328             0.0000000000
     40821       328  PMPG      H3R            47.7640690690      -32.3050602233      -12.5738979953  MEMB      328             0.0000000000
     40822       328  PMPG      H3S            48.8298289194      -33.3109968397      -13.5053776728  MEMB      328             0.0000000000
     40823       328  PMPG      C24            47.4082686051      -34.4807802841      -12.4323122976  MEMB      328             0.0000000000
     40824       328  PMPG      H4R            48.2187674977      -34.6091546546      -11.6833583151  MEMB      328             0.0000000000
     40825       328  PMPG      H4S            47.3140533935      -35.3840716058      -13.0722420397  MEMB      328             0.0000000000
     40826       328  PMPG      C25            46.1196012712      -34.3079713111      -11.5937391846  MEMB      328             0.0000000000
     40827       328  PMPG      H5R            45.8834314253      -35.3044063289      -11.1628546089  MEMB      328             0.0000000000
     40828       328  PMPG      H5S            45.2788663862      -34.0476555525      -12.2717674337  MEMB      328             0.0000000000
     40829       328  PMPG      C26            46.1148350334      -33.3088578546      -10.5512341771  MEMB      328             0.0000000000
     40830       328  PMPG      H6R            46.4249903580      -32.3191876190      -10.9495782378  MEMB      328             0.0000000000
     40831       328  PMPG      H6S            46.7048965408      -33.7195630679       -9.7041987688  MEMB      328             0.0000000000
     40832       328  PMPG      C27            44.7061134599      -32.9263057430      -10.0720292139  MEMB      328             0.0000000000
     40833       328  PMPG      H7R            44.2903383570      -33.8483049770       -9.6122803799  MEMB      328             0.0000000000
     40834       328  PMPG      H7S            44.0151656421      -32.6355531446      -10.8920142358  MEMB      328             0.0000000000
     40835       328  PMPG      C28            44.6316655007      -31.7613181994       -9.0751206812  MEMB      328             0.0000000000
     40836       328  PMPG      H8R            43.6138685398      -31.7611172019       -8.6296880475  MEMB      328             0.0000000000
     40837       328  PMPG      H8S            44.5250807556      -30.7902653978       -9.6042869756  MEMB      328             0.0000000000
     40838       328  PMPG      C29            45.8253421929      -31.6821585676       -8.0436733471  MEMB      328             0.0000000000
     40839       328  PMPG      H9R            46.8850079806      -31.5037125085       -8.3257840766  MEMB      328             0.0000000000
     40840       328  PMPG      C217           45.5129138406      -31.0592449316       -6.7580628817  MEMB      328             0.0000000000
     40841       328  PMPG      H17R           46.3697745182      -30.7025535381       -6.1999856714  MEMB      328             0.0000000000
     40842       328  PMPG      H17S           44.4652552990      -30.7895949109       -6.7071785629  MEMB      328             0.0000000000
     40843       328  PMPG      C210           45.7482959507      -32.5358948467       -6.8811844193  MEMB      328             0.0000000000
     40844       328  PMPG      H10R           46.7182079013      -32.8383610417       -6.4316233187  MEMB      328             0.0000000000
     40845       328  PMPG      C211           44.6480773359      -33.4351761065       -6.5624720352  MEMB      328             0.0000000000
     40846       328  PMPG      H11R           43.7471222055      -33.2808251291       -7.1939590909  MEMB      328             0.0000000000
     40847       328  PMPG      H11S           44.9532712998      -34.4637452166       -6.8509559295  MEMB      328             0.0000000000
     40848       328  PMPG      C212           44.3521721952      -33.4136006709       -5.0540406745  MEMB      328             0.0000000000
     40849       328  PMPG      H12R           43.5965695072      -34.2194922852       -4.9360365573  MEMB      328             0.0000000000
     40850       328  PMPG      H12S           44.1285875314      -32.3968567080       -4.6660166074  MEMB      328             0.0000000000
     40851       328  PMPG      C213           45.5174096437      -33.8809629896       -4.1413636759  MEMB      328             0.0000000000
     40852       328  PMPG      H13R           46.2910546034      -33.0839477545       -4.1176780086  MEMB      328             0.0000000000
     40853       328  PMPG      H13S           45.8708140058      -34.8440393150       -4.5678734532  MEMB      328             0.0000000000
     40854       328  PMPG      C214           44.9588268578      -34.3191183372       -2.7351558584  MEMB      328             0.0000000000
     40855       328  PMPG      H14R           44.3591572562      -35.1757253742       -3.1105778023  MEMB      328             0.0000000000
     40856       328  PMPG      H14S           44.3163802081      -33.4846717582       -2.3812035118  MEMB      328             0.0000000000
     40857       328  PMPG      C215           46.0140518540      -34.7727027989       -1.7167382810  MEMB      328             0.0000000000
     40858       328  PMPG      H15R           46.6208717331      -35.4831205319       -2.3179022827  MEMB      328             0.0000000000
     40859       328  PMPG      H15S           45.5734715055      -35.3828042125       -0.8994341051  MEMB      328             0.0000000000
     40860       328  PMPG      C216           46.8149227720      -33.7500612186       -0.9508081253  MEMB      328             0.0000000000
     40861       328  PMPG      H16R           47.3650880404      -33.1719650964       -1.7237544744  MEMB      328             0.0000000000
     40862       328  PMPG      H16S           47.4456945204      -34.2585454793       -0.1906167927  MEMB      328             0.0000000000
     40863       328  PMPG      H16T           46.1259871970      -33.0759830633       -0.3982624786  MEMB      328             0.0000000000
     40864       328  PMPG      C33            43.2035338996      -29.8183943979      -13.7094890208  MEMB      328             0.0000000000
     40865       328  PMPG      H3X            43.9160088620      -30.2023784535      -12.9484002403  MEMB      328             0.0000000000
     40866       328  PMPG      H3Y            42.9804822581      -30.6658572288      -14.3924061489  MEMB      328             0.0000000000
     40867       328  PMPG      C34            41.8450529436      -29.4762502114      -12.9761155736  MEMB      328             0.0000000000
     40868       328  PMPG      H4X            41.5557716022      -30.4152245934      -12.4574979169  MEMB      328             0.0000000000
     40869       328  PMPG      H4Y            41.1287738324      -29.2547780521      -13.7960030905  MEMB      328             0.0000000000
     40870       328  PMPG      C35            41.8209710268      -28.4089538702      -11.9040226559  MEMB      328             0.0000000000
     40871       328  PMPG      H5X            40.7903342551      -28.3177481795      -11.4993124433  MEMB      328             0.0000000000
     40872       328  PMPG      H5Y            42.1734164256      -27.4747601439      -12.3912447465  MEMB      328             0.0000000000
     40873       328  PMPG      C36            42.6035324212      -28.6137233701      -10.6601152274  MEMB      328             0.0000000000
     40874       328  PMPG      H6X            43.5993798409      -28.9934448317      -10.9738352050  MEMB      328             0.0000000000
     40875       328  PMPG      H6Y            41.9637259617      -29.3008731741      -10.0661504494  MEMB      328             0.0000000000
     40876       328  PMPG      C37            42.9888555355      -27.3007935232       -9.9130576070  MEMB      328             0.0000000000
     40877       328  PMPG      H7X            42.1440810606      -26.6361736002       -9.6320636269  MEMB      328             0.0000000000
     40878       328  PMPG      H7Y            43.8032091843      -26.7775724430      -10.4583913545  MEMB      328             0.0000000000
     40879       328  PMPG      C38            43.8198192310      -27.5983861794       -8.6243439367  MEMB      328             0.0000000000
     40880       328  PMPG      H8X            44.7906241408      -28.0309853659       -8.9479440476  MEMB      328             0.0000000000
     40881       328  PMPG      H8Y            43.2698946743      -28.2661779855       -7.9272369996  MEMB      328             0.0000000000
     40882       328  PMPG      C39            44.1230479686      -26.2702756985       -7.9069977206  MEMB      328             0.0000000000
     40883       328  PMPG      H9X            43.2212082427      -25.7942272188       -7.4661075749  MEMB      328             0.0000000000
     40884       328  PMPG      H9Y            44.4770679479      -25.5397009942       -8.6654515483  MEMB      328             0.0000000000
     40885       328  PMPG      C310           45.3033878281      -26.5247030737       -6.8720845648  MEMB      328             0.0000000000
     40886       328  PMPG      H10X           45.7177949010      -25.5497612629       -6.5373062310  MEMB      328             0.0000000000
     40887       328  PMPG      H10Y           46.1474169896      -27.0104694161       -7.4068433456  MEMB      328             0.0000000000
     40888       328  PMPG      C311           44.9499184207      -27.5462624927       -5.7095175087  MEMB      328             0.0000000000
     40889       328  PMPG      H11X           44.3150350133      -28.3835664987       -6.0703027591  MEMB      328             0.0000000000
     40890       328  PMPG      H11Y           44.2675932983      -26.9306038733       -5.0852437140  MEMB      328             0.0000000000
     40891       328  PMPG      C312           46.0903460857      -28.1000828149       -4.8075837413  MEMB      328             0.0000000000
     40892       328  PMPG      H12X           46.6030449935      -27.2277596603       -4.3487663177  MEMB      328             0.0000000000
     40893       328  PMPG      H12Y           46.7458639615      -28.7553561238       -5.4201475207  MEMB      328             0.0000000000
     40894       328  PMPG      C313           45.3846508898      -28.9473188277       -3.6712788690  MEMB      328             0.0000000000
     40895       328  PMPG      H13X           46.0507678947      -29.7849679246       -3.3730299654  MEMB      328             0.0000000000
     40896       328  PMPG      H13Y           44.4230961704      -29.2730244792       -4.1225544615  MEMB      328             0.0000000000
     40897       328  PMPG      C314           45.2432534133      -28.2169815906       -2.3037374417  MEMB      328             0.0000000000
     40898       328  PMPG      H14X           44.5198619974      -27.3998157607       -2.5117386319  MEMB      328             0.0000000000
     40899       328  PMPG      H14Y           46.2335710713      -27.8544927184       -1.9541730752  MEMB      328             0.0000000000
     40900       328  PMPG      C315           44.7310932088      -29.1888884242       -1.2957333516  MEMB      328             0.0000000000
     40901       328  PMPG      H15X           45.3521415417      -30.1099963743       -1.3091796887  MEMB      328             0.0000000000
     40902       328  PMPG      H15Y           43.7182165065      -29.5369124723       -1.5911665535  MEMB      328             0.0000000000
     40903       328  PMPG      C316           44.6251303055      -28.6440335528        0.1524319776  MEMB      328             0.0000000000
     40904       328  PMPG      H16X           44.1045796440      -29.2872086986        0.8938320318  MEMB      328             0.0000000000
     40905       328  PMPG      H16Y           44.0637940858      -27.6854037643        0.1683015904  MEMB      328             0.0000000000
     40906       328  PMPG      H16Z           45.6237794179      -28.5980167002        0.6371014347  MEMB      328             0.0000000000
     40907       329  PMPE      N              47.9612414746       15.4103024504      -17.8920967581  MEMB      329             0.0000000000
     40908       329  PMPE      HN1            47.8317396117       16.3193906080      -17.4038468042  MEMB      329             0.0000000000
     40909       329  PMPE      HN2            46.9657921787       15.1863720288      -18.0934319675  MEMB      329             0.0000000000
     40910       329  PMPE      HN3            48.3115804574       14.6482200832      -17.2772040991  MEMB      329             0.0000000000
     40911       329  PMPE      C12            48.8181524959       15.3731517689      -19.0678687810  MEMB      329             0.0000000000
     40912       329  PMPE      H12A           48.7362572546       14.3820820491      -19.5632424504  MEMB      329             0.0000000000
     40913       329  PMPE      H12B           49.8298851188       15.4582153186      -18.6167786787  MEMB      329             0.0000000000
     40914       329  PMPE      C11            48.6397915344       16.5441037334      -20.0493567282  MEMB      329             0.0000000000
     40915       329  PMPE      H11A           47.6556796797       16.4528765028      -20.5568233746  MEMB      329             0.0000000000
     40916       329  PMPE      H11B           49.4011006913       16.5445340746      -20.8585101016  MEMB      329             0.0000000000
     40917       329  PMPE      P              49.9537937854       18.5822596572      -19.0545670838  MEMB      329             0.0000000000
     40918       329  PMPE      O13            49.8708911779       20.0247300781      -19.3414942971  MEMB      329             0.0000000000
     40919       329  PMPE      O14            51.2281737223       17.9381496764      -19.6215741147  MEMB      329             0.0000000000
     40920       329  PMPE      O11            49.8918312240       18.2874759507      -17.5458177411  MEMB      329             0.0000000000
     40921       329  PMPE      O12            48.6395336771       17.8277663568      -19.4272244961  MEMB      329             0.0000000000
     40922       329  PMPE      C1             48.5826909177       18.6670000625      -16.8908834507  MEMB      329             0.0000000000
     40923       329  PMPE      HA             47.7564869346       18.0966442070      -17.3667008333  MEMB      329             0.0000000000
     40924       329  PMPE      HB             48.3260314962       19.7407277103      -17.0156080494  MEMB      329             0.0000000000
     40925       329  PMPE      C2             48.6022459278       18.4084380487      -15.4283072565  MEMB      329             0.0000000000
     40926       329  PMPE      HS             48.1774292191       19.2757789563      -14.8791517243  MEMB      329             0.0000000000
     40927       329  PMPE      O21            49.9538110147       18.2079905718      -14.9939709566  MEMB      329             0.0000000000
     40928       329  PMPE      C21            50.8229219271       19.1530057100      -14.7487615481  MEMB      329             0.0000000000
     40929       329  PMPE      O22            50.5508453622       20.3145953800      -14.6481686201  MEMB      329             0.0000000000
     40930       329  PMPE      C22            52.1777567144       18.4515212756      -14.4053702059  MEMB      329             0.0000000000
     40931       329  PMPE      H2R            52.7599689875       18.5413176290      -15.3473290896  MEMB      329             0.0000000000
     40932       329  PMPE      H2S            51.9441961166       17.4589688680      -13.9642240657  MEMB      329             0.0000000000
     40933       329  PMPE      C3             47.7513657802       17.1879255491      -14.8534122973  MEMB      329             0.0000000000
     40934       329  PMPE      HX             48.4152124244       16.3274717262      -15.0841668004  MEMB      329             0.0000000000
     40935       329  PMPE      HY             46.7508766106       17.1853231698      -15.3364604887  MEMB      329             0.0000000000
     40936       329  PMPE      O31            47.6570893839       17.3960156755      -13.4524584488  MEMB      329             0.0000000000
     40937       329  PMPE      C31            48.0569398618       16.5472599490      -12.5449805674  MEMB      329             0.0000000000
     40938       329  PMPE      O32            48.6769037704       15.5386993048      -12.7699999609  MEMB      329             0.0000000000
     40939       329  PMPE      C32            47.6469745640       17.1071325017      -11.1013943794  MEMB      329             0.0000000000
     40940       329  PMPE      H2X            46.5734963995       16.9041465106      -10.8994977687  MEMB      329             0.0000000000
     40941       329  PMPE      H2Y            47.6361700749       18.2180455490      -11.1101256278  MEMB      329             0.0000000000
     40942       329  PMPE      C23            52.8829989360       19.2495868471      -13.2144118562  MEMB      329             0.0000000000
     40943       329  PMPE      H3R            52.1073958476       19.4549094576      -12.4459044556  MEMB      329             0.0000000000
     40944       329  PMPE      H3S            53.2065540707       20.2339998984      -13.6151161756  MEMB      329             0.0000000000
     40945       329  PMPE      C24            54.0827792292       18.5672605013      -12.5489395070  MEMB      329             0.0000000000
     40946       329  PMPE      H4R            54.7564184729       19.4123899112      -12.2914759928  MEMB      329             0.0000000000
     40947       329  PMPE      H4S            54.5639341874       17.9516122881      -13.3387418726  MEMB      329             0.0000000000
     40948       329  PMPE      C25            53.7147545578       17.6894490715      -11.2864716503  MEMB      329             0.0000000000
     40949       329  PMPE      H5R            52.9043001339       18.1179813288      -10.6589012552  MEMB      329             0.0000000000
     40950       329  PMPE      H5S            54.5916733705       17.6936437243      -10.6043306617  MEMB      329             0.0000000000
     40951       329  PMPE      C26            53.3111920594       16.1722012796      -11.5685759443  MEMB      329             0.0000000000
     40952       329  PMPE      H6R            54.0447013855       15.8791464379      -12.3498596437  MEMB      329             0.0000000000
     40953       329  PMPE      H6S            52.2317328796       16.1164239768      -11.8254378878  MEMB      329             0.0000000000
     40954       329  PMPE      C27            53.5682456270       15.1691282395      -10.3980995025  MEMB      329             0.0000000000
     40955       329  PMPE      H7R            54.5279459015       15.4442677065       -9.9106630449  MEMB      329             0.0000000000
     40956       329  PMPE      H7S            53.8171268404       14.1404000063      -10.7358821899  MEMB      329             0.0000000000
     40957       329  PMPE      C28            52.4434058091       15.2034714937       -9.3645669360  MEMB      329             0.0000000000
     40958       329  PMPE      H8R            51.4179878659       14.9626136294       -9.7178755783  MEMB      329             0.0000000000
     40959       329  PMPE      H8S            52.3844677194       16.2462612869       -8.9858364410  MEMB      329             0.0000000000
     40960       329  PMPE      C29            52.7562605488       14.3736630130       -8.1427898234  MEMB      329             0.0000000000
     40961       329  PMPE      H9R            53.8029079053       14.3789297338       -7.7702007877  MEMB      329             0.0000000000
     40962       329  PMPE      C217           52.1177235638       12.9731195176       -8.2912061138  MEMB      329             0.0000000000
     40963       329  PMPE      H17R           52.8425892577       12.1976268331       -8.0765662036  MEMB      329             0.0000000000
     40964       329  PMPE      H17S           51.1819395593       12.8786477485       -8.8281164805  MEMB      329             0.0000000000
     40965       329  PMPE      C210           51.8503239994       13.8446590551       -7.1003544976  MEMB      329             0.0000000000
     40966       329  PMPE      H10R           52.3669991363       13.4760199446       -6.1885029236  MEMB      329             0.0000000000
     40967       329  PMPE      C211           50.4919369768       14.3880037734       -6.9361560537  MEMB      329             0.0000000000
     40968       329  PMPE      H11R           49.9864769766       13.6779860939       -6.2471668486  MEMB      329             0.0000000000
     40969       329  PMPE      H11S           50.0402528801       14.4938109471       -7.9456648953  MEMB      329             0.0000000000
     40970       329  PMPE      C212           50.3120736119       15.6840702848       -6.0554331401  MEMB      329             0.0000000000
     40971       329  PMPE      H12R           49.2391099122       15.9658781412       -6.1158839826  MEMB      329             0.0000000000
     40972       329  PMPE      H12S           50.9767014484       16.4520945345       -6.5056892380  MEMB      329             0.0000000000
     40973       329  PMPE      C213           50.7539292558       15.5239292642       -4.6275555966  MEMB      329             0.0000000000
     40974       329  PMPE      H13R           50.6606614164       16.5627492423       -4.2448344596  MEMB      329             0.0000000000
     40975       329  PMPE      H13S           51.8122917823       15.2740732416       -4.4000432754  MEMB      329             0.0000000000
     40976       329  PMPE      C214           49.8626693006       14.6623916482       -3.8009408536  MEMB      329             0.0000000000
     40977       329  PMPE      H14R           49.7240247644       13.6213254746       -4.1632660800  MEMB      329             0.0000000000
     40978       329  PMPE      H14S           48.8440619696       15.0969183189       -3.8900839621  MEMB      329             0.0000000000
     40979       329  PMPE      C215           50.2202765556       14.6025570597       -2.2622397631  MEMB      329             0.0000000000
     40980       329  PMPE      H15R           49.2973742242       14.2008841444       -1.7918879795  MEMB      329             0.0000000000
     40981       329  PMPE      H15S           50.4047276950       15.6201938053       -1.8563896725  MEMB      329             0.0000000000
     40982       329  PMPE      C216           51.4282972181       13.7230110460       -1.8753490265  MEMB      329             0.0000000000
     40983       329  PMPE      H16R           52.4234075267       14.1324698715       -2.1517911992  MEMB      329             0.0000000000
     40984       329  PMPE      H16S           51.3584336974       13.5810645242       -0.7756709857  MEMB      329             0.0000000000
     40985       329  PMPE      H16T           51.3446834896       12.8312091634       -2.5326302177  MEMB      329             0.0000000000
     40986       329  PMPE      C33            48.4020527308       16.5105349293       -9.9518979278  MEMB      329             0.0000000000
     40987       329  PMPE      H3X            48.4227995043       15.4437737476      -10.2615930868  MEMB      329             0.0000000000
     40988       329  PMPE      H3Y            47.8601677162       16.7330681556       -9.0078850803  MEMB      329             0.0000000000
     40989       329  PMPE      C34            49.8337086100       17.1566242236       -9.7919844010  MEMB      329             0.0000000000
     40990       329  PMPE      H4X            50.3176014390       16.7706507572      -10.7145854791  MEMB      329             0.0000000000
     40991       329  PMPE      H4Y            50.3115648984       16.6693984564       -8.9152940232  MEMB      329             0.0000000000
     40992       329  PMPE      C35            50.0508899691       18.6339769576       -9.7350244998  MEMB      329             0.0000000000
     40993       329  PMPE      H5X            49.4804925166       19.2512668219      -10.4616057185  MEMB      329             0.0000000000
     40994       329  PMPE      H5Y            51.1125200738       18.8520110604       -9.9794081817  MEMB      329             0.0000000000
     40995       329  PMPE      C36            49.8249656619       19.2978358835       -8.3996262721  MEMB      329             0.0000000000
     40996       329  PMPE      H6X            50.2587677505       20.3203943914       -8.4222262394  MEMB      329             0.0000000000
     40997       329  PMPE      H6Y            50.4181682077       18.6981151339       -7.6765996442  MEMB      329             0.0000000000
     40998       329  PMPE      C37            48.3498077692       19.2809303650       -7.8378658879  MEMB      329             0.0000000000
     40999       329  PMPE      H7X            48.0941575810       18.2095263197       -7.6927553684  MEMB      329             0.0000000000
     41000       329  PMPE      H7Y            47.7457860572       20.0084278752       -8.4211554592  MEMB      329             0.0000000000
     41001       329  PMPE      C38            48.4449028571       19.8012698297       -6.3872068915  MEMB      329             0.0000000000
     41002       329  PMPE      H8X            49.1388152019       20.6640899081       -6.2958369658  MEMB      329             0.0000000000
     41003       329  PMPE      H8Y            48.9103187260       19.0568239157       -5.7063923238  MEMB      329             0.0000000000
     41004       329  PMPE      C39            47.1281176796       20.3400577494       -5.8159678562  MEMB      329             0.0000000000
     41005       329  PMPE      H9X            46.7111807395       21.0795305708       -6.5326720981  MEMB      329             0.0000000000
     41006       329  PMPE      H9Y            47.2858661668       20.8682697818       -4.8513809150  MEMB      329             0.0000000000
     41007       329  PMPE      C310           46.0878432052       19.2199565344       -5.4957887825  MEMB      329             0.0000000000
     41008       329  PMPE      H10X           46.1422910637       18.4006890569       -6.2442255310  MEMB      329             0.0000000000
     41009       329  PMPE      H10Y           45.1214336588       19.7507276378       -5.6323740347  MEMB      329             0.0000000000
     41010       329  PMPE      C311           46.1760538943       18.6552577122       -4.0914279699  MEMB      329             0.0000000000
     41011       329  PMPE      H11X           45.1875097341       18.2326117645       -3.8112998326  MEMB      329             0.0000000000
     41012       329  PMPE      H11Y           46.4169172649       19.5401533828       -3.4643189903  MEMB      329             0.0000000000
     41013       329  PMPE      C312           47.2734192689       17.6118072520       -3.8361874586  MEMB      329             0.0000000000
     41014       329  PMPE      H12X           48.2649409452       18.0732917030       -4.0317318102  MEMB      329             0.0000000000
     41015       329  PMPE      H12Y           47.1196210070       16.7969266007       -4.5755359527  MEMB      329             0.0000000000
     41016       329  PMPE      C313           47.2319862506       16.9539081415       -2.4106222309  MEMB      329             0.0000000000
     41017       329  PMPE      H13X           48.0640995688       16.2374433066       -2.2415470125  MEMB      329             0.0000000000
     41018       329  PMPE      H13Y           46.2433057690       16.4490574945       -2.3663743878  MEMB      329             0.0000000000
     41019       329  PMPE      C314           47.0055741864       18.0073629781       -1.1882258267  MEMB      329             0.0000000000
     41020       329  PMPE      H14X           46.3788450219       18.8520249757       -1.5461029833  MEMB      329             0.0000000000
     41021       329  PMPE      H14Y           48.0348547768       18.3502450523       -0.9487791538  MEMB      329             0.0000000000
     41022       329  PMPE      C315           46.3979785659       17.3380135295        0.0810250267  MEMB      329             0.0000000000
     41023       329  PMPE      H15X           47.0897632546       16.5821298162        0.5104376158  MEMB      329             0.0000000000
     41024       329  PMPE      H15Y           45.4040781499       16.8696848904       -0.0837508603  MEMB      329             0.0000000000
     41025       329  PMPE      C316           46.2065706756       18.4418393585        1.1701824256  MEMB      329             0.0000000000
     41026       329  PMPE      H16X           45.4151344123       19.1597366063        0.8659232487  MEMB      329             0.0000000000
     41027       329  PMPE      H16Y           47.1154367535       19.0728143069        1.2709496892  MEMB      329             0.0000000000
     41028       329  PMPE      H16Z           46.0316646158       18.0254048303        2.1852254395  MEMB      329             0.0000000000
     41029       330  OYPE      N             -48.3053355671        9.7621571151      -20.4573237170  MEMB      330             0.0000000000
     41030       330  OYPE      HN1           -48.7473112810        8.8469341685      -20.6778334632  MEMB      330             0.0000000000
     41031       330  OYPE      HN2           -47.6400333880        9.9213354280      -21.2406724554  MEMB      330             0.0000000000
     41032       330  OYPE      HN3           -47.8413598437        9.7668483711      -19.5265689131  MEMB      330             0.0000000000
     41033       330  OYPE      C12           -49.4643704566       10.7714506049      -20.3871547340  MEMB      330             0.0000000000
     41034       330  OYPE      H12A          -49.4050985813       11.2460916813      -21.3899128058  MEMB      330             0.0000000000
     41035       330  OYPE      H12B          -49.1516246028       11.4829353223      -19.5932399893  MEMB      330             0.0000000000
     41036       330  OYPE      C11           -50.8267305335       10.0715430767      -20.0855162567  MEMB      330             0.0000000000
     41037       330  OYPE      H11A          -51.2666229177        9.3701822440      -20.8264000346  MEMB      330             0.0000000000
     41038       330  OYPE      H11B          -51.5354518014       10.8895243244      -19.8346337434  MEMB      330             0.0000000000
     41039       330  OYPE      P             -51.9053229555        8.6268038442      -18.2346455360  MEMB      330             0.0000000000
     41040       330  OYPE      O13           -51.3551444023        7.5473556323      -17.3346915656  MEMB      330             0.0000000000
     41041       330  OYPE      O14           -52.8094971196        8.0958303704      -19.2989277492  MEMB      330             0.0000000000
     41042       330  OYPE      O11           -52.7095356230        9.6519317837      -17.4263926603  MEMB      330             0.0000000000
     41043       330  OYPE      O12           -50.6783033422        9.4411385347      -18.7753478199  MEMB      330             0.0000000000
     41044       330  OYPE      C1            -52.0252083835       10.7958290994      -16.8085530135  MEMB      330             0.0000000000
     41045       330  OYPE      HA            -52.4670545459       11.6992180154      -17.2807619385  MEMB      330             0.0000000000
     41046       330  OYPE      HB            -50.9315387619       10.9090033534      -16.9679247465  MEMB      330             0.0000000000
     41047       330  OYPE      C2            -52.1167938868       10.7137206510      -15.2191714518  MEMB      330             0.0000000000
     41048       330  OYPE      HS            -51.8070666474       11.6929330665      -14.7954584939  MEMB      330             0.0000000000
     41049       330  OYPE      O21           -51.2509301668        9.6628506872      -14.8286275623  MEMB      330             0.0000000000
     41050       330  OYPE      C21           -50.9894396591        9.6958192392      -13.4479059195  MEMB      330             0.0000000000
     41051       330  OYPE      O22           -51.4002427393       10.5256230018      -12.6705404816  MEMB      330             0.0000000000
     41052       330  OYPE      C22           -50.0548201069        8.5102881798      -13.0684767108  MEMB      330             0.0000000000
     41053       330  OYPE      H2R           -49.4345549502        8.2056748871      -13.9384210549  MEMB      330             0.0000000000
     41054       330  OYPE      H2S           -50.7253238368        7.6499748168      -12.8572738938  MEMB      330             0.0000000000
     41055       330  OYPE      C3            -53.5795624352       10.4292734988      -14.7051808063  MEMB      330             0.0000000000
     41056       330  OYPE      HX            -54.1120768784       11.2550799344      -15.2236335104  MEMB      330             0.0000000000
     41057       330  OYPE      HY            -53.6396512992       10.5243622832      -13.5998898305  MEMB      330             0.0000000000
     41058       330  OYPE      O31           -54.0499799652        9.1320751187      -15.2032258242  MEMB      330             0.0000000000
     41059       330  OYPE      C31           -55.1115237195        8.6748849555      -14.5604511537  MEMB      330             0.0000000000
     41060       330  OYPE      O32           -55.8023667620        9.3210213109      -13.8641128461  MEMB      330             0.0000000000
     41061       330  OYPE      C32           -55.3177079614        7.1859112960      -14.7406122443  MEMB      330             0.0000000000
     41062       330  OYPE      H2X           -56.2667036642        6.8731412009      -15.2263107839  MEMB      330             0.0000000000
     41063       330  OYPE      H2Y           -54.5457178860        6.7697798721      -15.4226581892  MEMB      330             0.0000000000
     41064       330  OYPE      C23           -49.2598872377        8.9539806478      -11.8842292067  MEMB      330             0.0000000000
     41065       330  OYPE      H3R           -49.9238938506        9.3160922252      -11.0704164549  MEMB      330             0.0000000000
     41066       330  OYPE      H3S           -48.6172816853        9.8186081075      -12.1558880744  MEMB      330             0.0000000000
     41067       330  OYPE      C24           -48.4105534403        7.8280334385      -11.2690165505  MEMB      330             0.0000000000
     41068       330  OYPE      H4R           -47.5411541544        7.4805754560      -11.8671292124  MEMB      330             0.0000000000
     41069       330  OYPE      H4S           -49.0589971412        6.9622641014      -11.0154717110  MEMB      330             0.0000000000
     41070       330  OYPE      C25           -47.9585713434        8.3615106277       -9.8823538204  MEMB      330             0.0000000000
     41071       330  OYPE      H5R           -48.7298285909        8.9810696592       -9.3767554484  MEMB      330             0.0000000000
     41072       330  OYPE      H5S           -47.1306486847        9.0989141697       -9.9537778997  MEMB      330             0.0000000000
     41073       330  OYPE      C26           -47.7766657534        7.1868036482       -8.8959440133  MEMB      330             0.0000000000
     41074       330  OYPE      H6R           -46.7616914756        6.7941563488       -9.1194984925  MEMB      330             0.0000000000
     41075       330  OYPE      H6S           -48.4953214673        6.3455852840       -8.9969707219  MEMB      330             0.0000000000
     41076       330  OYPE      C27           -47.8392394049        7.7787813955       -7.5264566705  MEMB      330             0.0000000000
     41077       330  OYPE      H7R           -48.8193561630        8.2743620379       -7.3588499468  MEMB      330             0.0000000000
     41078       330  OYPE      H7S           -47.0553269919        8.5614274384       -7.6117080735  MEMB      330             0.0000000000
     41079       330  OYPE      C28           -47.5163504358        6.7191941006       -6.4369062485  MEMB      330             0.0000000000
     41080       330  OYPE      H8R           -47.3513474434        7.2057360283       -5.4518320973  MEMB      330             0.0000000000
     41081       330  OYPE      H8S           -46.5171350813        6.4090014845       -6.8106309071  MEMB      330             0.0000000000
     41082       330  OYPE      C29           -48.4953517829        5.6347343243       -6.3852292129  MEMB      330             0.0000000000
     41083       330  OYPE      H9R           -48.2035081531        4.7438851860       -6.9607422816  MEMB      330             0.0000000000
     41084       330  OYPE      C210          -49.6720271462        5.6388992562       -5.6456196213  MEMB      330             0.0000000000
     41085       330  OYPE      H10R          -50.3304652243        4.7602037300       -5.7115994239  MEMB      330             0.0000000000
     41086       330  OYPE      C211          -50.1454275521        6.8020349831       -4.8815949293  MEMB      330             0.0000000000
     41087       330  OYPE      H11R          -50.6657331332        7.5738058122       -5.4882030336  MEMB      330             0.0000000000
     41088       330  OYPE      H11S          -49.2922440329        7.3629386715       -4.4436611568  MEMB      330             0.0000000000
     41089       330  OYPE      C212          -51.0355336035        6.3841518082       -3.7172404433  MEMB      330             0.0000000000
     41090       330  OYPE      H12R          -50.4079998008        5.9323137398       -2.9195160099  MEMB      330             0.0000000000
     41091       330  OYPE      H12S          -51.8654695443        5.6820136182       -3.9464339367  MEMB      330             0.0000000000
     41092       330  OYPE      C213          -51.8273416000        7.5956235372       -3.0695999480  MEMB      330             0.0000000000
     41093       330  OYPE      H13R          -52.5969455253        7.1477568773       -2.4051855543  MEMB      330             0.0000000000
     41094       330  OYPE      H13S          -52.4064561320        8.1067185199       -3.8681793821  MEMB      330             0.0000000000
     41095       330  OYPE      C214          -50.9431017499        8.6042131139       -2.3298560710  MEMB      330             0.0000000000
     41096       330  OYPE      H14R          -50.2440863028        9.1664665429       -2.9852724876  MEMB      330             0.0000000000
     41097       330  OYPE      H14S          -50.2989604311        7.9762149095       -1.6779195554  MEMB      330             0.0000000000
     41098       330  OYPE      C215          -51.7860248168        9.7238212130       -1.6080589672  MEMB      330             0.0000000000
     41099       330  OYPE      H15R          -51.1439292426       10.4219650273       -1.0295858167  MEMB      330             0.0000000000
     41100       330  OYPE      H15S          -52.5602966706        9.2446005705       -0.9715269227  MEMB      330             0.0000000000
     41101       330  OYPE      C216          -52.4378179954       10.7553305763       -2.5858991813  MEMB      330             0.0000000000
     41102       330  OYPE      H16R          -51.6912834453       11.1303526348       -3.3182691798  MEMB      330             0.0000000000
     41103       330  OYPE      H16S          -52.7946616315       11.5533217571       -1.9001921807  MEMB      330             0.0000000000
     41104       330  OYPE      H16T          -53.3484153358       10.2988168824       -3.0294401861  MEMB      330             0.0000000000
     41105       330  OYPE      C33           -54.9767739056        6.5718683241      -13.4717112223  MEMB      330             0.0000000000
     41106       330  OYPE      H3X           -54.9476358989        5.4643245682      -13.5542869264  MEMB      330             0.0000000000
     41107       330  OYPE      H3Y           -55.9205008449        6.8161716716      -12.9387790116  MEMB      330             0.0000000000
     41108       330  OYPE      C34           -53.7667610437        7.0761043285      -12.6755808750  MEMB      330             0.0000000000
     41109       330  OYPE      H4X           -52.8293332953        6.6054432462      -13.0416801063  MEMB      330             0.0000000000
     41110       330  OYPE      H4Y           -53.6391972024        8.1765021040      -12.7602749828  MEMB      330             0.0000000000
     41111       330  OYPE      C35           -53.9339491323        6.8902727950      -11.1434245473  MEMB      330             0.0000000000
     41112       330  OYPE      H5X           -54.1383123798        5.8100042117      -10.9834992434  MEMB      330             0.0000000000
     41113       330  OYPE      H5Y           -54.7636001984        7.5658772750      -10.8441612214  MEMB      330             0.0000000000
     41114       330  OYPE      C36           -52.6141134941        7.1541088006      -10.4308578937  MEMB      330             0.0000000000
     41115       330  OYPE      H6X           -52.1131860682        6.1645107734      -10.3669169664  MEMB      330             0.0000000000
     41116       330  OYPE      H6Y           -52.0466028693        7.9954032657      -10.8830480102  MEMB      330             0.0000000000
     41117       330  OYPE      C37           -52.8276044940        7.5951575837       -9.0077257948  MEMB      330             0.0000000000
     41118       330  OYPE      H7X           -53.6110811613        7.0330745931       -8.4558667794  MEMB      330             0.0000000000
     41119       330  OYPE      H7Y           -51.8858302160        7.4899035620       -8.4278083004  MEMB      330             0.0000000000
     41120       330  OYPE      C38           -53.3639406207        9.0915339294       -9.0577063556  MEMB      330             0.0000000000
     41121       330  OYPE      H8X           -54.2165378521        9.2171667555       -9.7588592905  MEMB      330             0.0000000000
     41122       330  OYPE      H8Y           -53.7885608538        9.2094846952       -8.0378509242  MEMB      330             0.0000000000
     41123       330  OYPE      C39           -52.3512382736       10.1997440685       -9.3422419935  MEMB      330             0.0000000000
     41124       330  OYPE      H9X           -52.4012396833       10.6769879001      -10.3320592003  MEMB      330             0.0000000000
     41125       330  OYPE      C310          -51.3763350032       10.7087050815       -8.5092561681  MEMB      330             0.0000000000
     41126       330  OYPE      H10X          -50.6625506838       11.4888291791       -8.8124366027  MEMB      330             0.0000000000
     41127       330  OYPE      C311          -51.2147943364       10.2690616639       -7.0442199196  MEMB      330             0.0000000000
     41128       330  OYPE      H11X          -52.1117268958       10.4595972027       -6.4169008230  MEMB      330             0.0000000000
     41129       330  OYPE      H11Y          -51.0646309487        9.1682582867       -7.0422306739  MEMB      330             0.0000000000
     41130       330  OYPE      C312          -50.0081871710       11.0017261507       -6.4051306306  MEMB      330             0.0000000000
     41131       330  OYPE      H12X          -49.0081034155       10.6984214754       -6.7821717676  MEMB      330             0.0000000000
     41132       330  OYPE      H12Y          -50.1113083849       10.6161816948       -5.3682881453  MEMB      330             0.0000000000
     41133       330  OYPE      C313          -50.0355771700       12.5919173165       -6.2245459167  MEMB      330             0.0000000000
     41134       330  OYPE      H13X          -50.2346004855       12.9803664766       -7.2462198670  MEMB      330             0.0000000000
     41135       330  OYPE      H13Y          -50.8652094051       12.8438688539       -5.5298858617  MEMB      330             0.0000000000
     41136       330  OYPE      C314          -48.7305860250       13.2146870249       -5.6105170193  MEMB      330             0.0000000000
     41137       330  OYPE      H14X          -48.8125881999       14.3219173229       -5.6509831592  MEMB      330             0.0000000000
     41138       330  OYPE      H14Y          -47.9603282229       12.9890405973       -6.3787019352  MEMB      330             0.0000000000
     41139       330  OYPE      C315          -48.3914359081       12.7370688379       -4.2404007089  MEMB      330             0.0000000000
     41140       330  OYPE      H15X          -47.3180367070       12.8555631211       -3.9794520792  MEMB      330             0.0000000000
     41141       330  OYPE      H15Y          -48.5982147614       11.6481891271       -4.1635603103  MEMB      330             0.0000000000
     41142       330  OYPE      C316          -49.2456697505       13.3611916161       -3.1175988123  MEMB      330             0.0000000000
     41143       330  OYPE      H16X          -50.3204285888       13.3745975705       -3.3987305477  MEMB      330             0.0000000000
     41144       330  OYPE      H16Y          -49.0579325757       14.4521656190       -3.0235182515  MEMB      330             0.0000000000
     41145       330  OYPE      C317          -49.0586681152       12.7260103956       -1.7974577135  MEMB      330             0.0000000000
     41146       330  OYPE      H17X          -47.9943297096       12.9332591790       -1.5554804879  MEMB      330             0.0000000000
     41147       330  OYPE      H17Y          -49.2215348702       11.6304859032       -1.8847570292  MEMB      330             0.0000000000
     41148       330  OYPE      C318          -49.9620278707       13.1706081298       -0.6779788989  MEMB      330             0.0000000000
     41149       330  OYPE      H18X          -49.5643507885       12.6723291244        0.2319065412  MEMB      330             0.0000000000
     41150       330  OYPE      H18Y          -50.0176607504       14.2755017382       -0.5758208233  MEMB      330             0.0000000000
     41151       330  OYPE      H18Z          -50.9435220388       12.7149282764       -0.9296644704  MEMB      330             0.0000000000
     41152       331  OYPE      N              28.2541845209      -45.2660416089      -18.9911808730  MEMB      331             0.0000000000
     41153       331  OYPE      HN1            29.1259375438      -44.7956563777      -19.3080157514  MEMB      331             0.0000000000
     41154       331  OYPE      HN2            28.3860992893      -45.9563792061      -18.2246089183  MEMB      331             0.0000000000
     41155       331  OYPE      HN3            27.9419157778      -45.7284311340      -19.8688392337  MEMB      331             0.0000000000
     41156       331  OYPE      C12            27.4355963427      -44.0724578745      -18.5625512857  MEMB      331             0.0000000000
     41157       331  OYPE      H12A           27.7180386766      -43.8117982528      -17.5201482912  MEMB      331             0.0000000000
     41158       331  OYPE      H12B           26.4056337018      -44.4773394321      -18.4647320528  MEMB      331             0.0000000000
     41159       331  OYPE      C11            27.5272437193      -42.9269998636      -19.5697851952  MEMB      331             0.0000000000
     41160       331  OYPE      H11A           26.8616680556      -42.1184129384      -19.1989520562  MEMB      331             0.0000000000
     41161       331  OYPE      H11B           27.1071485763      -43.2438983297      -20.5482617893  MEMB      331             0.0000000000
     41162       331  OYPE      P              29.5041608447      -41.2011254367      -19.0201024577  MEMB      331             0.0000000000
     41163       331  OYPE      O13            28.7128718942      -40.0545221111      -19.4573329102  MEMB      331             0.0000000000
     41164       331  OYPE      O14            30.9719168096      -41.1331573064      -19.2586248482  MEMB      331             0.0000000000
     41165       331  OYPE      O11            29.2164199374      -41.3740383458      -17.4790276806  MEMB      331             0.0000000000
     41166       331  OYPE      O12            28.9221074802      -42.5698950187      -19.6613947532  MEMB      331             0.0000000000
     41167       331  OYPE      C1             30.0679780082      -40.5622260615      -16.7008018028  MEMB      331             0.0000000000
     41168       331  OYPE      HA             30.2498757705      -39.5299219424      -17.0690171804  MEMB      331             0.0000000000
     41169       331  OYPE      HB             31.0893290337      -40.9990263745      -16.6816067224  MEMB      331             0.0000000000
     41170       331  OYPE      C2             29.6887186020      -40.5825543024      -15.2243177925  MEMB      331             0.0000000000
     41171       331  OYPE      HS             30.4029671687      -39.9833678148      -14.6200453157  MEMB      331             0.0000000000
     41172       331  OYPE      O21            29.6571258787      -41.9673041084      -14.7013047738  MEMB      331             0.0000000000
     41173       331  OYPE      C21            30.8201683050      -42.3959048140      -14.3102817160  MEMB      331             0.0000000000
     41174       331  OYPE      O22            31.8485037881      -41.7250565307      -14.2026789465  MEMB      331             0.0000000000
     41175       331  OYPE      C22            30.9023775544      -43.8913643316      -14.2238364615  MEMB      331             0.0000000000
     41176       331  OYPE      H2R            31.9328914399      -44.1332463849      -13.8864118241  MEMB      331             0.0000000000
     41177       331  OYPE      H2S            30.7037919665      -44.3503539796      -15.2159115148  MEMB      331             0.0000000000
     41178       331  OYPE      C3             28.2874658153      -39.9629189691      -15.1265060669  MEMB      331             0.0000000000
     41179       331  OYPE      HX             27.4884463482      -40.4789812613      -15.7005866879  MEMB      331             0.0000000000
     41180       331  OYPE      HY             28.3172415119      -38.9071575262      -15.4711823252  MEMB      331             0.0000000000
     41181       331  OYPE      O31            27.9712322614      -39.9150618626      -13.7984283184  MEMB      331             0.0000000000
     41182       331  OYPE      C31            26.6451951037      -40.1450419920      -13.4245296707  MEMB      331             0.0000000000
     41183       331  OYPE      O32            25.8552039852      -40.5777495603      -14.2151089296  MEMB      331             0.0000000000
     41184       331  OYPE      C32            26.3742484382      -39.9697564602      -11.9491150467  MEMB      331             0.0000000000
     41185       331  OYPE      H2X            26.7547894666      -38.9885002073      -11.5932421235  MEMB      331             0.0000000000
     41186       331  OYPE      H2Y            25.2684831568      -39.8663747679      -11.9188413879  MEMB      331             0.0000000000
     41187       331  OYPE      C23            29.8393335854      -44.4408858909      -13.3306992181  MEMB      331             0.0000000000
     41188       331  OYPE      H3R            29.7212992017      -45.5374364988      -13.4647350853  MEMB      331             0.0000000000
     41189       331  OYPE      H3S            28.7692978696      -44.1796604867      -13.4759774875  MEMB      331             0.0000000000
     41190       331  OYPE      C24            30.2285954971      -44.2047410688      -11.8702295229  MEMB      331             0.0000000000
     41191       331  OYPE      H4R            30.7270150485      -43.2220970545      -11.7277172234  MEMB      331             0.0000000000
     41192       331  OYPE      H4S            31.1194392612      -44.8151558836      -11.6092468483  MEMB      331             0.0000000000
     41193       331  OYPE      C25            29.0917405992      -44.6224508623      -10.8754672337  MEMB      331             0.0000000000
     41194       331  OYPE      H5R            28.4403302608      -45.4738000376      -11.1673404968  MEMB      331             0.0000000000
     41195       331  OYPE      H5S            28.4145765791      -43.7443999460      -10.9447263686  MEMB      331             0.0000000000
     41196       331  OYPE      C26            29.5545344177      -44.9387763374       -9.4858339986  MEMB      331             0.0000000000
     41197       331  OYPE      H6R            29.9480792255      -45.9729180011       -9.3858619761  MEMB      331             0.0000000000
     41198       331  OYPE      H6S            28.6484316015      -44.7801989799       -8.8628152026  MEMB      331             0.0000000000
     41199       331  OYPE      C27            30.5588376448      -44.0150321009       -8.8232960997  MEMB      331             0.0000000000
     41200       331  OYPE      H7R            30.0042712914      -43.1654464009       -8.3705472173  MEMB      331             0.0000000000
     41201       331  OYPE      H7S            31.2220066684      -43.4904241270       -9.5439300429  MEMB      331             0.0000000000
     41202       331  OYPE      C28            31.5224621475      -44.6555825921       -7.7432683984  MEMB      331             0.0000000000
     41203       331  OYPE      H8R            32.3029168372      -43.8930011880       -7.5342672382  MEMB      331             0.0000000000
     41204       331  OYPE      H8S            32.0168400683      -45.5446822709       -8.1898249571  MEMB      331             0.0000000000
     41205       331  OYPE      C29            30.6220944420      -44.9696113450       -6.5217471112  MEMB      331             0.0000000000
     41206       331  OYPE      H9R            29.8487400789      -45.7485526717       -6.5936731474  MEMB      331             0.0000000000
     41207       331  OYPE      C210           30.8462881338      -44.4596991704       -5.3124501105  MEMB      331             0.0000000000
     41208       331  OYPE      H10R           30.2042729427      -44.7237971802       -4.4591808579  MEMB      331             0.0000000000
     41209       331  OYPE      C211           31.9023560157      -43.4847109580       -4.8737805138  MEMB      331             0.0000000000
     41210       331  OYPE      H11R           32.8263579060      -43.5131204476       -5.4900064095  MEMB      331             0.0000000000
     41211       331  OYPE      H11S           32.2859852481      -43.7454406981       -3.8642417543  MEMB      331             0.0000000000
     41212       331  OYPE      C212           31.3160636929      -42.0241292625       -5.0153573276  MEMB      331             0.0000000000
     41213       331  OYPE      H12R           30.3901848512      -42.0774081213       -4.4036131246  MEMB      331             0.0000000000
     41214       331  OYPE      H12S           31.1840686088      -41.7252816388       -6.0772371136  MEMB      331             0.0000000000
     41215       331  OYPE      C213           32.2909318256      -40.9891970790       -4.3623526799  MEMB      331             0.0000000000
     41216       331  OYPE      H13R           31.7645681837      -40.0117121562       -4.4046050009  MEMB      331             0.0000000000
     41217       331  OYPE      H13S           33.2329336326      -40.7678002697       -4.9081883570  MEMB      331             0.0000000000
     41218       331  OYPE      C214           32.7639857028      -41.1928447513       -2.9438475576  MEMB      331             0.0000000000
     41219       331  OYPE      H14R           33.4335965684      -40.3585902858       -2.6439105981  MEMB      331             0.0000000000
     41220       331  OYPE      H14S           33.3364029335      -42.1442478472       -2.9052254210  MEMB      331             0.0000000000
     41221       331  OYPE      C215           31.6361828326      -41.2974574414       -1.9372260260  MEMB      331             0.0000000000
     41222       331  OYPE      H15R           31.9176673184      -41.9561399712       -1.0879754829  MEMB      331             0.0000000000
     41223       331  OYPE      H15S           30.8093389639      -41.9051162146       -2.3631368305  MEMB      331             0.0000000000
     41224       331  OYPE      C216           31.0022286513      -40.0488575692       -1.4071211678  MEMB      331             0.0000000000
     41225       331  OYPE      H16R           31.6804818399      -39.4131014785       -0.7987577878  MEMB      331             0.0000000000
     41226       331  OYPE      H16S           30.0902579857      -40.2609054961       -0.8090700010  MEMB      331             0.0000000000
     41227       331  OYPE      H16T           30.7137579856      -39.2619254962       -2.1363982011  MEMB      331             0.0000000000
     41228       331  OYPE      C33            26.9972161936      -41.1335657914      -11.1336247999  MEMB      331             0.0000000000
     41229       331  OYPE      H3X            27.4953446008      -41.8124515722      -11.8584028227  MEMB      331             0.0000000000
     41230       331  OYPE      H3Y            26.1514948832      -41.5758342912      -10.5648759283  MEMB      331             0.0000000000
     41231       331  OYPE      C34            28.0436818986      -40.8616247488      -10.0253556876  MEMB      331             0.0000000000
     41232       331  OYPE      H4X            28.5266719114      -41.8308212367       -9.7769618298  MEMB      331             0.0000000000
     41233       331  OYPE      H4Y            28.7681455423      -40.0949698701      -10.3742300838  MEMB      331             0.0000000000
     41234       331  OYPE      C35            27.2963168444      -40.2273869104       -8.8278537615  MEMB      331             0.0000000000
     41235       331  OYPE      H5X            26.3105704827      -39.8230780576       -9.1427495025  MEMB      331             0.0000000000
     41236       331  OYPE      H5Y            27.8778616469      -39.3391796750       -8.5004179344  MEMB      331             0.0000000000
     41237       331  OYPE      C36            27.0258454366      -41.1611213643       -7.6097381208  MEMB      331             0.0000000000
     41238       331  OYPE      H6X            28.0071957413      -41.2816879952       -7.1030463424  MEMB      331             0.0000000000
     41239       331  OYPE      H6Y            26.4666528153      -40.5992727052       -6.8313092071  MEMB      331             0.0000000000
     41240       331  OYPE      C37            26.1857753697      -42.4206838759       -7.9249404562  MEMB      331             0.0000000000
     41241       331  OYPE      H7X            25.1361035155      -42.1130728334       -8.1195817573  MEMB      331             0.0000000000
     41242       331  OYPE      H7Y            26.6140230631      -42.9278755330       -8.8158283385  MEMB      331             0.0000000000
     41243       331  OYPE      C38            26.3000743765      -43.4452452274       -6.6719078621  MEMB      331             0.0000000000
     41244       331  OYPE      H8X            26.5399815655      -44.4170313629       -7.1539836926  MEMB      331             0.0000000000
     41245       331  OYPE      H8Y            27.2213516367      -43.2246820137       -6.0914589430  MEMB      331             0.0000000000
     41246       331  OYPE      C39            25.1081351913      -43.4084852241       -5.8107914533  MEMB      331             0.0000000000
     41247       331  OYPE      H9X            24.1023255171      -43.5035738007       -6.2458834617  MEMB      331             0.0000000000
     41248       331  OYPE      C310           25.1810013326      -43.0817599535       -4.5256706454  MEMB      331             0.0000000000
     41249       331  OYPE      H10X           24.2944759477      -43.0989741255       -3.8746890458  MEMB      331             0.0000000000
     41250       331  OYPE      C311           26.4773539668      -42.6857362985       -3.7405691627  MEMB      331             0.0000000000
     41251       331  OYPE      H11X           27.2047444430      -42.1538099981       -4.3903989419  MEMB      331             0.0000000000
     41252       331  OYPE      H11Y           26.0711306638      -41.9831690186       -2.9818185928  MEMB      331             0.0000000000
     41253       331  OYPE      C312           27.2096818529      -43.9382389350       -3.2038883742  MEMB      331             0.0000000000
     41254       331  OYPE      H12X           28.2680902080      -43.6378086458       -3.0495034356  MEMB      331             0.0000000000
     41255       331  OYPE      H12Y           27.2708737954      -44.7942216813       -3.9094867204  MEMB      331             0.0000000000
     41256       331  OYPE      C313           26.5293506051      -44.4616145163       -1.9543838871  MEMB      331             0.0000000000
     41257       331  OYPE      H13X           25.9748532016      -43.6977357825       -1.3684289075  MEMB      331             0.0000000000
     41258       331  OYPE      H13Y           25.8251622215      -45.2581480207       -2.2768344222  MEMB      331             0.0000000000
     41259       331  OYPE      C314           27.4764853497      -44.9855114422       -0.7507922949  MEMB      331             0.0000000000
     41260       331  OYPE      H14X           28.0223673085      -45.9180835691       -1.0089453094  MEMB      331             0.0000000000
     41261       331  OYPE      H14Y           26.8314675617      -45.1945487211        0.1293088810  MEMB      331             0.0000000000
     41262       331  OYPE      C315           28.5559508669      -44.0583392992       -0.1994509063  MEMB      331             0.0000000000
     41263       331  OYPE      H15X           28.0524147592      -43.0901199828        0.0086924332  MEMB      331             0.0000000000
     41264       331  OYPE      H15Y           29.3657433479      -43.9181889762       -0.9470575129  MEMB      331             0.0000000000
     41265       331  OYPE      C316           29.1949852524      -44.5924086979        1.0712687305  MEMB      331             0.0000000000
     41266       331  OYPE      H16X           29.5535569200      -45.6135242149        0.8201306919  MEMB      331             0.0000000000
     41267       331  OYPE      H16Y           28.4446298454      -44.5881050349        1.8905798912  MEMB      331             0.0000000000
     41268       331  OYPE      C317           30.3934646529      -43.8218170470        1.6124162950  MEMB      331             0.0000000000
     41269       331  OYPE      H17X           30.1720619465      -42.7500468716        1.8037547599  MEMB      331             0.0000000000
     41270       331  OYPE      H17Y           31.1738475316      -43.7988912877        0.8219744522  MEMB      331             0.0000000000
     41271       331  OYPE      C318           30.9043959034      -44.2835240551        2.9428727622  MEMB      331             0.0000000000
     41272       331  OYPE      H18X           31.8321464261      -43.7271799002        3.1960156106  MEMB      331             0.0000000000
     41273       331  OYPE      H18Y           30.1384039778      -43.9516055961        3.6759545028  MEMB      331             0.0000000000
     41274       331  OYPE      H18Z           31.1433654378      -45.3669599361        2.8847238952  MEMB      331             0.0000000000
     41275       332  QMPE      N             -20.9882772350      -45.5024720848      -21.3135568361  MEMB      332             0.0000000000
     41276       332  QMPE      HN1           -21.3102319899      -45.3008193438      -22.2816898514  MEMB      332             0.0000000000
     41277       332  QMPE      HN2           -20.7213121051      -44.5604854810      -20.9628564861  MEMB      332             0.0000000000
     41278       332  QMPE      HN3           -20.1431320966      -46.1073325523      -21.2751711888  MEMB      332             0.0000000000
     41279       332  QMPE      C12           -22.1619612215      -46.1455240787      -20.6622270482  MEMB      332             0.0000000000
     41280       332  QMPE      H12A          -22.5907605620      -46.9325770385      -21.3187327028  MEMB      332             0.0000000000
     41281       332  QMPE      H12B          -22.9250170109      -45.3429186072      -20.5733938617  MEMB      332             0.0000000000
     41282       332  QMPE      C11           -21.8233643573      -46.7214968070      -19.2799629514  MEMB      332             0.0000000000
     41283       332  QMPE      H11A          -22.6926356062      -47.0649180194      -18.6793379957  MEMB      332             0.0000000000
     41284       332  QMPE      H11B          -21.3986301194      -45.8597660499      -18.7219827765  MEMB      332             0.0000000000
     41285       332  QMPE      P             -20.2919769922      -48.4592714546      -18.1643939325  MEMB      332             0.0000000000
     41286       332  QMPE      O13           -19.0327007066      -49.1646091980      -18.4746487398  MEMB      332             0.0000000000
     41287       332  QMPE      O14           -21.2671292480      -49.3312299545      -17.5280078743  MEMB      332             0.0000000000
     41288       332  QMPE      O11           -20.0302905777      -47.2243618842      -17.1722418736  MEMB      332             0.0000000000
     41289       332  QMPE      O12           -20.8897426255      -47.7859950656      -19.4049607441  MEMB      332             0.0000000000
     41290       332  QMPE      C1            -19.1112306647      -46.1742158602      -17.4382206684  MEMB      332             0.0000000000
     41291       332  QMPE      HA            -19.5578870086      -45.1641005397      -17.3178619756  MEMB      332             0.0000000000
     41292       332  QMPE      HB            -18.7427998777      -46.2736317812      -18.4816267562  MEMB      332             0.0000000000
     41293       332  QMPE      C2            -17.9626900631      -46.2087183718      -16.3757009036  MEMB      332             0.0000000000
     41294       332  QMPE      HS            -17.2781357520      -45.4014256225      -16.7133177199  MEMB      332             0.0000000000
     41295       332  QMPE      O21           -17.4650356221      -47.5937080061      -16.3343917275  MEMB      332             0.0000000000
     41296       332  QMPE      C21           -16.1145323120      -47.7369762280      -15.9915514528  MEMB      332             0.0000000000
     41297       332  QMPE      O22           -15.3865201464      -46.7469014666      -15.9748618227  MEMB      332             0.0000000000
     41298       332  QMPE      C22           -15.7841991816      -49.2231646562      -15.9243932391  MEMB      332             0.0000000000
     41299       332  QMPE      H2R           -14.6908104861      -49.3288910124      -16.0906571896  MEMB      332             0.0000000000
     41300       332  QMPE      H2S           -16.3910254401      -49.8376596631      -16.6233060452  MEMB      332             0.0000000000
     41301       332  QMPE      C3            -18.3515736973      -45.8200340348      -14.9223687388  MEMB      332             0.0000000000
     41302       332  QMPE      HX            -18.5685785675      -44.7304403220      -14.9184438309  MEMB      332             0.0000000000
     41303       332  QMPE      HY            -17.5068483463      -46.0836017942      -14.2505859963  MEMB      332             0.0000000000
     41304       332  QMPE      O31           -19.5129792767      -46.4894923763      -14.4343548666  MEMB      332             0.0000000000
     41305       332  QMPE      C31           -19.8431863870      -46.2037989641      -13.1653917084  MEMB      332             0.0000000000
     41306       332  QMPE      O32           -19.2185498484      -45.4221409384      -12.4150331978  MEMB      332             0.0000000000
     41307       332  QMPE      C32           -21.1707485985      -46.8356650274      -12.8114010014  MEMB      332             0.0000000000
     41308       332  QMPE      H2X           -21.8861471827      -46.0311854965      -12.5369222070  MEMB      332             0.0000000000
     41309       332  QMPE      H2Y           -21.4515591470      -47.6061704974      -13.5609260726  MEMB      332             0.0000000000
     41310       332  QMPE      C23           -16.0521745092      -49.6073434193      -14.4354938899  MEMB      332             0.0000000000
     41311       332  QMPE      H3R           -15.6356320966      -48.8481318783      -13.7394971013  MEMB      332             0.0000000000
     41312       332  QMPE      H3S           -15.5687612217      -50.5711359436      -14.1676567426  MEMB      332             0.0000000000
     41313       332  QMPE      C24           -17.5687577857      -49.6465156423      -14.0929854990  MEMB      332             0.0000000000
     41314       332  QMPE      H4R           -18.1146029443      -50.0957062286      -14.9500748215  MEMB      332             0.0000000000
     41315       332  QMPE      H4S           -17.9757142926      -48.6127699897      -14.0841982286  MEMB      332             0.0000000000
     41316       332  QMPE      C25           -17.7949934391      -50.4604594144      -12.8336460829  MEMB      332             0.0000000000
     41317       332  QMPE      H5R           -17.5099952483      -51.5228267485      -12.9900849586  MEMB      332             0.0000000000
     41318       332  QMPE      H5S           -18.8937013378      -50.5191433650      -12.6796397629  MEMB      332             0.0000000000
     41319       332  QMPE      C26           -17.2310707632      -49.8573484458      -11.4745987940  MEMB      332             0.0000000000
     41320       332  QMPE      H6R           -17.6748757860      -48.8556898978      -11.2901040250  MEMB      332             0.0000000000
     41321       332  QMPE      H6S           -16.1407534550      -49.8104768436      -11.6827627594  MEMB      332             0.0000000000
     41322       332  QMPE      C27           -17.6496497502      -50.6459353343      -10.1943906852  MEMB      332             0.0000000000
     41323       332  QMPE      H7R           -17.4236493273      -51.7198146598      -10.3676758436  MEMB      332             0.0000000000
     41324       332  QMPE      H7S           -18.6963950770      -50.5634087811       -9.8313002802  MEMB      332             0.0000000000
     41325       332  QMPE      C28           -16.9372804972      -50.1978202093       -8.8977361624  MEMB      332             0.0000000000
     41326       332  QMPE      H8R           -15.8378525903      -50.3571482915       -8.9116645276  MEMB      332             0.0000000000
     41327       332  QMPE      H8S           -17.3220086490      -50.7870346469       -8.0380080916  MEMB      332             0.0000000000
     41328       332  QMPE      C29           -17.1998013327      -48.7692437770       -8.7048661766  MEMB      332             0.0000000000
     41329       332  QMPE      H9R           -18.2349130930      -48.3786771292       -8.8064651847  MEMB      332             0.0000000000
     41330       332  QMPE      C217          -16.0466349311      -47.8478962066       -9.1039830817  MEMB      332             0.0000000000
     41331       332  QMPE      H17R          -15.2332837119      -48.4403677514       -9.5043909202  MEMB      332             0.0000000000
     41332       332  QMPE      H17S          -16.3554346474      -46.8482797007       -9.3838023989  MEMB      332             0.0000000000
     41333       332  QMPE      C210          -16.4397587587      -48.0289518905       -7.6449623071  MEMB      332             0.0000000000
     41334       332  QMPE      H10R          -16.9830213694      -47.2075158549       -7.1307347397  MEMB      332             0.0000000000
     41335       332  QMPE      C211          -15.4022897950      -48.7355665679       -6.7221694099  MEMB      332             0.0000000000
     41336       332  QMPE      H11R          -14.8893882880      -49.5637793652       -7.2563197217  MEMB      332             0.0000000000
     41337       332  QMPE      H11S          -14.6462979080      -48.0808631518       -6.2382687791  MEMB      332             0.0000000000
     41338       332  QMPE      C212          -16.0311918036      -49.4019981158       -5.5149149299  MEMB      332             0.0000000000
     41339       332  QMPE      H12R          -16.8963270542      -49.9876276183       -5.8929371828  MEMB      332             0.0000000000
     41340       332  QMPE      H12S          -16.3891923775      -48.6937176207       -4.7374226019  MEMB      332             0.0000000000
     41341       332  QMPE      C213          -15.1987601128      -50.3632189126       -4.6352015825  MEMB      332             0.0000000000
     41342       332  QMPE      H13R          -14.3727100105      -49.8766325455       -4.0737787179  MEMB      332             0.0000000000
     41343       332  QMPE      H13S          -14.8012945695      -51.1030783571       -5.3624908474  MEMB      332             0.0000000000
     41344       332  QMPE      C214          -16.0254054732      -51.0581802179       -3.5144653062  MEMB      332             0.0000000000
     41345       332  QMPE      H14R          -16.8508204907      -51.6298219391       -3.9901080859  MEMB      332             0.0000000000
     41346       332  QMPE      H14S          -16.3670565433      -50.2348720599       -2.8513210236  MEMB      332             0.0000000000
     41347       332  QMPE      C215          -15.2837677631      -52.0272637159       -2.6175557188  MEMB      332             0.0000000000
     41348       332  QMPE      H15R          -14.3711687675      -51.5027949889       -2.2620054793  MEMB      332             0.0000000000
     41349       332  QMPE      H15S          -14.9404303173      -52.9629750092       -3.1083557944  MEMB      332             0.0000000000
     41350       332  QMPE      C216          -15.8776759175      -52.3013663821       -1.2758874601  MEMB      332             0.0000000000
     41351       332  QMPE      H16R          -16.3739719231      -51.3852809677       -0.8901431081  MEMB      332             0.0000000000
     41352       332  QMPE      H16S          -15.1508836399      -52.5737574544       -0.4809680283  MEMB      332             0.0000000000
     41353       332  QMPE      H16T          -16.6310544205      -53.1177508880       -1.2919563480  MEMB      332             0.0000000000
     41354       332  QMPE      C33           -21.0069666432      -47.5922496801      -11.4348657833  MEMB      332             0.0000000000
     41355       332  QMPE      H3X           -20.4124441974      -46.9426282355      -10.7574768259  MEMB      332             0.0000000000
     41356       332  QMPE      H3Y           -20.3082705676      -48.4413501109      -11.5935265843  MEMB      332             0.0000000000
     41357       332  QMPE      C34           -22.3002880836      -47.9850367589      -10.7323340896  MEMB      332             0.0000000000
     41358       332  QMPE      H4X           -22.8339817331      -48.5164441114      -11.5490948696  MEMB      332             0.0000000000
     41359       332  QMPE      H4Y           -22.9056946891      -47.0825397892      -10.5014598047  MEMB      332             0.0000000000
     41360       332  QMPE      C35           -22.2100919245      -48.7941513920       -9.4481234538  MEMB      332             0.0000000000
     41361       332  QMPE      H5X           -21.3343432549      -49.4775772632       -9.4658534377  MEMB      332             0.0000000000
     41362       332  QMPE      H5Y           -23.1728457055      -49.3295956221       -9.3041595245  MEMB      332             0.0000000000
     41363       332  QMPE      C36           -21.9606028374      -47.9150568443       -8.1808284826  MEMB      332             0.0000000000
     41364       332  QMPE      H6X           -22.9418675040      -47.6060565138       -7.7613541935  MEMB      332             0.0000000000
     41365       332  QMPE      H6Y           -21.1928188691      -47.1582969185       -8.4494238958  MEMB      332             0.0000000000
     41366       332  QMPE      C37           -21.3366517836      -48.7846918217       -7.0865826049  MEMB      332             0.0000000000
     41367       332  QMPE      H7X           -21.9162025141      -49.7165941094       -6.9133779191  MEMB      332             0.0000000000
     41368       332  QMPE      H7Y           -20.3470926093      -49.1382387973       -7.4472741618  MEMB      332             0.0000000000
     41369       332  QMPE      C38           -21.0937935290      -48.0137046451       -5.7464605609  MEMB      332             0.0000000000
     41370       332  QMPE      H8X           -20.6711532234      -47.1056052246       -6.2271384339  MEMB      332             0.0000000000
     41371       332  QMPE      H8Y           -22.0451903067      -47.9797875098       -5.1737347299  MEMB      332             0.0000000000
     41372       332  QMPE      C39           -20.0132464963      -48.6080009799       -4.7716390248  MEMB      332             0.0000000000
     41373       332  QMPE      H9X           -19.0233648880      -48.8996853261       -5.1831917953  MEMB      332             0.0000000000
     41374       332  QMPE      H9Y           -20.5128805266      -49.5480067424       -4.4537139793  MEMB      332             0.0000000000
     41375       332  QMPE      C310          -19.7705800689      -47.6187856867       -3.5757458481  MEMB      332             0.0000000000
     41376       332  QMPE      H10X          -20.5929580280      -46.9441263033       -3.2550427728  MEMB      332             0.0000000000
     41377       332  QMPE      H10Y          -19.0375338414      -46.8871632732       -3.9778558334  MEMB      332             0.0000000000
     41378       332  QMPE      C311          -19.1641591272      -48.3174671475       -2.3375010196  MEMB      332             0.0000000000
     41379       332  QMPE      H11X          -18.1538909103      -48.7461005155       -2.5105691236  MEMB      332             0.0000000000
     41380       332  QMPE      H11Y          -19.8607941675      -49.1407700672       -2.0706808623  MEMB      332             0.0000000000
     41381       332  QMPE      C312          -19.1174269493      -47.3218089719       -1.1740043962  MEMB      332             0.0000000000
     41382       332  QMPE      H12X          -19.6480230781      -46.3622790879       -1.3531450242  MEMB      332             0.0000000000
     41383       332  QMPE      H12Y          -18.0489706010      -47.0374477974       -1.0650989718  MEMB      332             0.0000000000
     41384       332  QMPE      C313          -19.5313040807      -47.9570765298        0.1570840676  MEMB      332             0.0000000000
     41385       332  QMPE      H13X          -18.7737934126      -48.7301237418        0.4078755969  MEMB      332             0.0000000000
     41386       332  QMPE      H13Y          -19.3787046762      -47.1899054804        0.9460612609  MEMB      332             0.0000000000
     41387       332  QMPE      C314          -20.8992654661      -48.5942527366        0.1651338026  MEMB      332             0.0000000000
     41388       332  QMPE      H14X          -20.8784097187      -49.6379574243       -0.2150853700  MEMB      332             0.0000000000
     41389       332  QMPE      H14Y          -21.6438526851      -48.0808361206       -0.4800906604  MEMB      332             0.0000000000
     41390       332  QMPE      C315          -21.5119008500      -48.5360709493        1.5565963679  MEMB      332             0.0000000000
     41391       332  QMPE      H15X          -21.7644757566      -47.4880890658        1.8254106100  MEMB      332             0.0000000000
     41392       332  QMPE      H15Y          -22.4494176342      -49.1297593642        1.5025911300  MEMB      332             0.0000000000
     41393       332  QMPE      H15Z          -20.8627822420      -48.9909932217        2.3350658920  MEMB      332             0.0000000000
     41394       333  OYPE      N             -30.4499418279       39.7431661356      -20.9458822234  MEMB      333             0.0000000000
     41395       333  OYPE      HN1           -30.5453381390       39.0389700415      -21.7052289964  MEMB      333             0.0000000000
     41396       333  OYPE      HN2           -29.5052114395       40.1564620501      -20.8107118493  MEMB      333             0.0000000000
     41397       333  OYPE      HN3           -30.8620027186       39.4351755240      -20.0420306468  MEMB      333             0.0000000000
     41398       333  OYPE      C12           -31.4000819671       40.8572471106      -21.3006379766  MEMB      333             0.0000000000
     41399       333  OYPE      H12A          -32.3935676593       40.3907566860      -21.1283190469  MEMB      333             0.0000000000
     41400       333  OYPE      H12B          -31.2865100447       40.9739241209      -22.3996417057  MEMB      333             0.0000000000
     41401       333  OYPE      C11           -31.0100847189       42.0521574783      -20.4809288749  MEMB      333             0.0000000000
     41402       333  OYPE      H11A          -31.6113202580       42.9183204839      -20.8310694916  MEMB      333             0.0000000000
     41403       333  OYPE      H11B          -29.9264897847       42.2623633048      -20.6072481676  MEMB      333             0.0000000000
     41404       333  OYPE      P             -30.9233306086       42.4126237515      -17.8027115767  MEMB      333             0.0000000000
     41405       333  OYPE      O13           -31.9579212692       42.3328349877      -16.7180054710  MEMB      333             0.0000000000
     41406       333  OYPE      O14           -30.4718082245       43.7185103564      -18.2430837227  MEMB      333             0.0000000000
     41407       333  OYPE      O11           -29.5995772311       41.6883063536      -17.3579825125  MEMB      333             0.0000000000
     41408       333  OYPE      O12           -31.4238133468       41.7639106611      -19.1507676232  MEMB      333             0.0000000000
     41409       333  OYPE      C1            -29.1248197230       40.6628763251      -18.0353525091  MEMB      333             0.0000000000
     41410       333  OYPE      HA            -29.1643329877       40.8736239740      -19.1254650026  MEMB      333             0.0000000000
     41411       333  OYPE      HB            -29.7020675407       39.7367511060      -17.8270305826  MEMB      333             0.0000000000
     41412       333  OYPE      C2            -27.6395950843       40.2168855869      -17.6837787734  MEMB      333             0.0000000000
     41413       333  OYPE      HS            -27.4519242035       39.2434465111      -18.1852933404  MEMB      333             0.0000000000
     41414       333  OYPE      O21           -27.5021119601       40.0329459765      -16.2902731643  MEMB      333             0.0000000000
     41415       333  OYPE      C21           -28.1716601251       39.1214553167      -15.4834440269  MEMB      333             0.0000000000
     41416       333  OYPE      O22           -29.0147259475       38.3153890668      -15.8720810248  MEMB      333             0.0000000000
     41417       333  OYPE      C22           -27.8572270877       39.3746816744      -14.0337536465  MEMB      333             0.0000000000
     41418       333  OYPE      H2R           -28.0660445935       40.4363488391      -13.7816052016  MEMB      333             0.0000000000
     41419       333  OYPE      H2S           -26.7592962104       39.2643873909      -13.9045090319  MEMB      333             0.0000000000
     41420       333  OYPE      C3            -26.5049422962       41.2231604703      -18.1373330700  MEMB      333             0.0000000000
     41421       333  OYPE      HX            -26.5555129256       41.2978192431      -19.2446675371  MEMB      333             0.0000000000
     41422       333  OYPE      HY            -25.6022410042       40.6520535165      -17.8319020458  MEMB      333             0.0000000000
     41423       333  OYPE      O31           -26.6178992963       42.4748464869      -17.4434089694  MEMB      333             0.0000000000
     41424       333  OYPE      C31           -26.9735125645       43.5591577475      -18.0550679959  MEMB      333             0.0000000000
     41425       333  OYPE      O32           -27.4154589248       43.7309599126      -19.1792682883  MEMB      333             0.0000000000
     41426       333  OYPE      C32           -26.8137558176       44.6863967723      -17.0664139979  MEMB      333             0.0000000000
     41427       333  OYPE      H2X           -25.9893308279       45.3090908083      -17.4749436370  MEMB      333             0.0000000000
     41428       333  OYPE      H2Y           -27.6925311947       45.3245707507      -17.3005271372  MEMB      333             0.0000000000
     41429       333  OYPE      C23           -28.6335319956       38.5176975902      -13.0930642807  MEMB      333             0.0000000000
     41430       333  OYPE      H3R           -28.4665020723       37.4286594215      -13.2359551616  MEMB      333             0.0000000000
     41431       333  OYPE      H3S           -29.7318469654       38.6769846577      -13.1445698161  MEMB      333             0.0000000000
     41432       333  OYPE      C24           -28.2162211937       38.7855847560      -11.6586118019  MEMB      333             0.0000000000
     41433       333  OYPE      H4R           -28.4059258733       39.8634218354      -11.4672994689  MEMB      333             0.0000000000
     41434       333  OYPE      H4S           -27.1336050807       38.6325816362      -11.4615005866  MEMB      333             0.0000000000
     41435       333  OYPE      C25           -28.9386778656       38.0158819446      -10.5079714773  MEMB      333             0.0000000000
     41436       333  OYPE      H5R           -29.1186881689       37.0091970481      -10.9421409755  MEMB      333             0.0000000000
     41437       333  OYPE      H5S           -29.9378924690       38.4880719171      -10.3942695347  MEMB      333             0.0000000000
     41438       333  OYPE      C26           -28.0992184701       37.8837432568       -9.2298873352  MEMB      333             0.0000000000
     41439       333  OYPE      H6R           -27.1013978399       37.4637794994       -9.4794979211  MEMB      333             0.0000000000
     41440       333  OYPE      H6S           -28.5010508820       37.1251177602       -8.5246647786  MEMB      333             0.0000000000
     41441       333  OYPE      C27           -27.6819109572       39.1840850651       -8.5648924571  MEMB      333             0.0000000000
     41442       333  OYPE      H7R           -28.5245304268       39.8921844213       -8.4135363523  MEMB      333             0.0000000000
     41443       333  OYPE      H7S           -27.0610822330       39.8037711890       -9.2467148375  MEMB      333             0.0000000000
     41444       333  OYPE      C28           -26.7143058699       38.9962664216       -7.3645596518  MEMB      333             0.0000000000
     41445       333  OYPE      H8R           -26.4073574303       40.0340029359       -7.1131503673  MEMB      333             0.0000000000
     41446       333  OYPE      H8S           -25.8031208285       38.4597069114       -7.7053925681  MEMB      333             0.0000000000
     41447       333  OYPE      C29           -27.3135469595       38.3840916998       -6.1104899308  MEMB      333             0.0000000000
     41448       333  OYPE      H9R           -28.3940450645       38.2469660823       -6.2645058923  MEMB      333             0.0000000000
     41449       333  OYPE      C210          -26.6121709402       38.0796240237       -4.9926672051  MEMB      333             0.0000000000
     41450       333  OYPE      H10R          -27.1959637934       37.6710830623       -4.1546454395  MEMB      333             0.0000000000
     41451       333  OYPE      C211          -25.1115459917       38.2825046836       -4.8488694893  MEMB      333             0.0000000000
     41452       333  OYPE      H11R          -24.5929653178       38.5913730015       -5.7816045595  MEMB      333             0.0000000000
     41453       333  OYPE      H11S          -24.5504429558       37.3561838576       -4.6010517388  MEMB      333             0.0000000000
     41454       333  OYPE      C212          -24.8559246430       39.2016568657       -3.6951243627  MEMB      333             0.0000000000
     41455       333  OYPE      H12R          -25.4154540502       40.1574864757       -3.7825162718  MEMB      333             0.0000000000
     41456       333  OYPE      H12S          -23.7752671587       39.4522178150       -3.7561133571  MEMB      333             0.0000000000
     41457       333  OYPE      C213          -25.0640474194       38.6485745557       -2.2665971842  MEMB      333             0.0000000000
     41458       333  OYPE      H13R          -26.1188397694       38.8324439732       -1.9700736165  MEMB      333             0.0000000000
     41459       333  OYPE      H13S          -24.4932546793       39.3287314125       -1.5988359805  MEMB      333             0.0000000000
     41460       333  OYPE      C214          -24.7040586699       37.1317611807       -2.0565021822  MEMB      333             0.0000000000
     41461       333  OYPE      H14R          -23.6173616697       36.9111546775       -2.1253768844  MEMB      333             0.0000000000
     41462       333  OYPE      H14S          -25.2819732392       36.5707707161       -2.8217626968  MEMB      333             0.0000000000
     41463       333  OYPE      C215          -25.0357880744       36.6831741051       -0.6632478258  MEMB      333             0.0000000000
     41464       333  OYPE      H15R          -24.6741590565       37.4422584427        0.0629310849  MEMB      333             0.0000000000
     41465       333  OYPE      H15S          -24.4588008700       35.7472846846       -0.5035047654  MEMB      333             0.0000000000
     41466       333  OYPE      C216          -26.5169416856       36.2883983935       -0.4644489493  MEMB      333             0.0000000000
     41467       333  OYPE      H16R          -26.5541192783       35.8306363860        0.5471811250  MEMB      333             0.0000000000
     41468       333  OYPE      H16S          -26.8623491566       35.6026849561       -1.2674507180  MEMB      333             0.0000000000
     41469       333  OYPE      H16T          -27.2719666945       37.1030992906       -0.4872657514  MEMB      333             0.0000000000
     41470       333  OYPE      C33           -26.6235002161       44.4660075316      -15.5525787037  MEMB      333             0.0000000000
     41471       333  OYPE      H3X           -26.4724673008       45.5159075804      -15.2220942749  MEMB      333             0.0000000000
     41472       333  OYPE      H3Y           -25.7469501036       43.9119687219      -15.1538030089  MEMB      333             0.0000000000
     41473       333  OYPE      C34           -27.8619956227       43.8264061457      -14.8436641981  MEMB      333             0.0000000000
     41474       333  OYPE      H4X           -28.7714598713       44.3018495128      -15.2692807137  MEMB      333             0.0000000000
     41475       333  OYPE      H4Y           -27.9099037284       42.7516942271      -15.1211892640  MEMB      333             0.0000000000
     41476       333  OYPE      C35           -27.9102242015       43.9517889957      -13.2821103114  MEMB      333             0.0000000000
     41477       333  OYPE      H5X           -28.0504847857       45.0120721407      -12.9813647082  MEMB      333             0.0000000000
     41478       333  OYPE      H5Y           -26.9046011635       43.6242260919      -12.9418958673  MEMB      333             0.0000000000
     41479       333  OYPE      C36           -29.1235073135       43.1272463523      -12.7953000033  MEMB      333             0.0000000000
     41480       333  OYPE      H6X           -29.1739458848       42.1106907162      -13.2407117565  MEMB      333             0.0000000000
     41481       333  OYPE      H6Y           -29.0281446479       42.9807761558      -11.6981337743  MEMB      333             0.0000000000
     41482       333  OYPE      C37           -30.5107420340       43.7409221343      -13.1202273828  MEMB      333             0.0000000000
     41483       333  OYPE      H7X           -30.4157130861       44.8327883882      -13.3022122615  MEMB      333             0.0000000000
     41484       333  OYPE      H7Y           -30.9535790069       43.3317267613      -14.0533811300  MEMB      333             0.0000000000
     41485       333  OYPE      C38           -31.6208778374       43.3077943857      -12.0634079885  MEMB      333             0.0000000000
     41486       333  OYPE      H8X           -31.2913798535       43.6958025021      -11.0758846159  MEMB      333             0.0000000000
     41487       333  OYPE      H8Y           -32.6009542867       43.7317406291      -12.3700683375  MEMB      333             0.0000000000
     41488       333  OYPE      C39           -31.6579210588       41.8603963244      -12.0240328128  MEMB      333             0.0000000000
     41489       333  OYPE      H9X           -32.0460095596       41.4226720046      -12.9555826211  MEMB      333             0.0000000000
     41490       333  OYPE      C310          -31.4077659831       41.0417725278      -10.9498626262  MEMB      333             0.0000000000
     41491       333  OYPE      H10X          -31.4951911389       39.9453212312      -10.9375667609  MEMB      333             0.0000000000
     41492       333  OYPE      C311          -31.0623987986       41.6301665034       -9.6492251824  MEMB      333             0.0000000000
     41493       333  OYPE      H11X          -30.0012785590       41.9434011879       -9.5480863901  MEMB      333             0.0000000000
     41494       333  OYPE      H11Y          -31.6279702287       42.5749075781       -9.5011901863  MEMB      333             0.0000000000
     41495       333  OYPE      C312          -31.0791032022       40.8329871525       -8.3113335010  MEMB      333             0.0000000000
     41496       333  OYPE      H12X          -30.3811454073       41.3587535946       -7.6252255089  MEMB      333             0.0000000000
     41497       333  OYPE      H12Y          -30.6630584850       39.8060551394       -8.3928090792  MEMB      333             0.0000000000
     41498       333  OYPE      C313          -32.4619323367       40.8063075788       -7.6332346082  MEMB      333             0.0000000000
     41499       333  OYPE      H13X          -33.1202092610       41.6584382094       -7.9068513427  MEMB      333             0.0000000000
     41500       333  OYPE      H13Y          -33.1544282831       40.0258092461       -8.0148012187  MEMB      333             0.0000000000
     41501       333  OYPE      C314          -32.4685453297       40.6694059904       -6.0386402879  MEMB      333             0.0000000000
     41502       333  OYPE      H14X          -33.4340042325       40.9329196275       -5.5561776278  MEMB      333             0.0000000000
     41503       333  OYPE      H14Y          -31.7340004430       41.4606907707       -5.7766604476  MEMB      333             0.0000000000
     41504       333  OYPE      C315          -32.0581360337       39.3079478453       -5.4922869214  MEMB      333             0.0000000000
     41505       333  OYPE      H15X          -31.1334092901       38.9834373917       -6.0156361071  MEMB      333             0.0000000000
     41506       333  OYPE      H15Y          -32.9183639954       38.6400670346       -5.7119768226  MEMB      333             0.0000000000
     41507       333  OYPE      C316          -31.7575165539       39.4490852499       -3.9444378404  MEMB      333             0.0000000000
     41508       333  OYPE      H16X          -32.6774256577       39.7590278973       -3.4040461016  MEMB      333             0.0000000000
     41509       333  OYPE      H16Y          -30.9703759341       40.2330885957       -3.9361099165  MEMB      333             0.0000000000
     41510       333  OYPE      C317          -31.0619273552       38.1809997489       -3.3725346709  MEMB      333             0.0000000000
     41511       333  OYPE      H17X          -30.1052767461       38.0165305274       -3.9129889833  MEMB      333             0.0000000000
     41512       333  OYPE      H17Y          -31.6490421319       37.2500080926       -3.5237676116  MEMB      333             0.0000000000
     41513       333  OYPE      C318          -30.6151157581       38.1175475385       -1.8521763975  MEMB      333             0.0000000000
     41514       333  OYPE      H18X          -30.3278657278       37.0960598307       -1.5229779686  MEMB      333             0.0000000000
     41515       333  OYPE      H18Y          -29.7680138333       38.8097779873       -1.6583829068  MEMB      333             0.0000000000
     41516       333  OYPE      H18Z          -31.4987064745       38.4771362206       -1.2827158924  MEMB      333             0.0000000000
     41517       334  PMPG      C13             9.2254516922      -50.9408398042      -21.4164048518  MEMB      334             0.0000000000
     41518       334  PMPG      H13A            8.5885644131      -51.8511626997      -21.4136119203  MEMB      334             0.0000000000
     41519       334  PMPG      H13B            8.6152757840      -50.0340451204      -21.6157281270  MEMB      334             0.0000000000
     41520       334  PMPG      OC3            10.2842089656      -50.8610849647      -22.3770621157  MEMB      334             0.0000000000
     41521       334  PMPG      HO3            10.9059164256      -50.1413003755      -22.2467160735  MEMB      334             0.0000000000
     41522       334  PMPG      C12             9.9807839881      -50.8769265708      -20.0367005495  MEMB      334             0.0000000000
     41523       334  PMPG      H12A           10.6730207906      -50.0040813846      -20.0782761459  MEMB      334             0.0000000000
     41524       334  PMPG      OC2            10.7672653424      -52.0546879525      -19.8513195979  MEMB      334             0.0000000000
     41525       334  PMPG      HO2            11.0755485673      -51.9705827393      -18.9225545004  MEMB      334             0.0000000000
     41526       334  PMPG      C11             8.9452235417      -50.6640259592      -18.8308178982  MEMB      334             0.0000000000
     41527       334  PMPG      H11A            8.4501033822      -49.6717890330      -18.8989568922  MEMB      334             0.0000000000
     41528       334  PMPG      H11B            9.6808230848      -50.4669562307      -18.0218815904  MEMB      334             0.0000000000
     41529       334  PMPG      P               7.0740960752      -51.5964223794      -17.4862061770  MEMB      334             0.0000000000
     41530       334  PMPG      O13             6.0807594273      -52.6365516906      -17.6145906919  MEMB      334             0.0000000000
     41531       334  PMPG      O14             6.5346140565      -50.1674542980      -17.5457560203  MEMB      334             0.0000000000
     41532       334  PMPG      O11             8.0138278519      -51.7120570666      -16.1848180875  MEMB      334             0.0000000000
     41533       334  PMPG      O12             8.1440447907      -51.7793992765      -18.6563240128  MEMB      334             0.0000000000
     41534       334  PMPG      C1              9.0527560085      -52.6880980407      -16.2066259769  MEMB      334             0.0000000000
     41535       334  PMPG      HA              9.7114837166      -52.6629609240      -15.3123291540  MEMB      334             0.0000000000
     41536       334  PMPG      HB              9.6416138727      -52.7276877906      -17.1479017709  MEMB      334             0.0000000000
     41537       334  PMPG      C2              8.4843990062      -54.0869592790      -16.1297405412  MEMB      334             0.0000000000
     41538       334  PMPG      HS              7.8752270940      -54.3662473188      -17.0158717955  MEMB      334             0.0000000000
     41539       334  PMPG      O21             7.6078815287      -54.0138773503      -15.0662393638  MEMB      334             0.0000000000
     41540       334  PMPG      C21             6.6276967576      -54.9876046129      -14.9315141268  MEMB      334             0.0000000000
     41541       334  PMPG      O22             6.2578166092      -55.7070023448      -15.8404645284  MEMB      334             0.0000000000
     41542       334  PMPG      C22             6.0798508712      -55.0273935700      -13.5595884609  MEMB      334             0.0000000000
     41543       334  PMPG      H2R             6.0867718135      -56.0572752033      -13.1429149130  MEMB      334             0.0000000000
     41544       334  PMPG      H2S             4.9994853857      -54.7691175824      -13.5802072610  MEMB      334             0.0000000000
     41545       334  PMPG      C3              9.6474205042      -55.1329832073      -15.8065950060  MEMB      334             0.0000000000
     41546       334  PMPG      HX             10.2737598673      -55.0998640891      -16.7236136548  MEMB      334             0.0000000000
     41547       334  PMPG      HY              9.1890500096      -56.1442815780      -15.7679577333  MEMB      334             0.0000000000
     41548       334  PMPG      O31            10.4572344958      -54.8234851060      -14.6347250363  MEMB      334             0.0000000000
     41549       334  PMPG      C31            10.1770453445      -55.4515425100      -13.4886598980  MEMB      334             0.0000000000
     41550       334  PMPG      O32             9.2298812500      -56.1902083325      -13.3262353111  MEMB      334             0.0000000000
     41551       334  PMPG      C32            11.2350824794      -55.0943959444      -12.4415566742  MEMB      334             0.0000000000
     41552       334  PMPG      H2X            11.5212705194      -54.0376475891      -12.6305009391  MEMB      334             0.0000000000
     41553       334  PMPG      H2Y            12.1628840817      -55.7042822451      -12.4022549842  MEMB      334             0.0000000000
     41554       334  PMPG      C23             6.7586420178      -53.9295918467      -12.6569761974  MEMB      334             0.0000000000
     41555       334  PMPG      H3R             6.8168628735      -52.9133622912      -13.1021828463  MEMB      334             0.0000000000
     41556       334  PMPG      H3S             7.7965104093      -54.3055130839      -12.5311462288  MEMB      334             0.0000000000
     41557       334  PMPG      C24             6.1012366202      -53.8086528351      -11.2737277010  MEMB      334             0.0000000000
     41558       334  PMPG      H4R             6.2796202774      -54.7771199117      -10.7593627701  MEMB      334             0.0000000000
     41559       334  PMPG      H4S             5.0020490256      -53.6481932500      -11.2927112663  MEMB      334             0.0000000000
     41560       334  PMPG      C25             6.7769177020      -52.7620913504      -10.3233285448  MEMB      334             0.0000000000
     41561       334  PMPG      H5R             7.8763336827      -52.9135045964      -10.3750925419  MEMB      334             0.0000000000
     41562       334  PMPG      H5S             6.4932810214      -53.1436322549       -9.3191879439  MEMB      334             0.0000000000
     41563       334  PMPG      C26             6.4553641853      -51.3013223689      -10.6818620392  MEMB      334             0.0000000000
     41564       334  PMPG      H6R             5.3599063416      -51.1255255062      -10.7400707499  MEMB      334             0.0000000000
     41565       334  PMPG      H6S             6.9225503633      -51.1496356194      -11.6783807613  MEMB      334             0.0000000000
     41566       334  PMPG      C27             7.0480741431      -50.2782728714       -9.6328258311  MEMB      334             0.0000000000
     41567       334  PMPG      H7R             6.6808611750      -49.2926526430       -9.9906365147  MEMB      334             0.0000000000
     41568       334  PMPG      H7S             8.1581658126      -50.3211741387       -9.6195144361  MEMB      334             0.0000000000
     41569       334  PMPG      C28             6.6355900566      -50.4008211549       -8.2062254498  MEMB      334             0.0000000000
     41570       334  PMPG      H8R             6.8964173259      -51.4493970484       -7.9478094751  MEMB      334             0.0000000000
     41571       334  PMPG      H8S             5.5690349812      -50.0924401564       -8.1652119168  MEMB      334             0.0000000000
     41572       334  PMPG      C29             7.3654621702      -49.3399171965       -7.2435073674  MEMB      334             0.0000000000
     41573       334  PMPG      H9R             8.4401190586      -49.1960410465       -7.4858566746  MEMB      334             0.0000000000
     41574       334  PMPG      C217            6.5931764019      -48.0296894949       -7.0093197437  MEMB      334             0.0000000000
     41575       334  PMPG      H17R            7.1799440513      -47.1647493969       -6.7256443641  MEMB      334             0.0000000000
     41576       334  PMPG      H17S            5.5381532681      -48.0052164640       -7.2526646321  MEMB      334             0.0000000000
     41577       334  PMPG      C210            6.8583691759      -49.0702507287       -5.8464133120  MEMB      334             0.0000000000
     41578       334  PMPG      H10R            7.6130677270      -48.6563605322       -5.1439563885  MEMB      334             0.0000000000
     41579       334  PMPG      C211            5.4995518913      -49.6377148307       -5.3662326325  MEMB      334             0.0000000000
     41580       334  PMPG      H11R            5.1294538295      -49.0622913388       -4.4908832491  MEMB      334             0.0000000000
     41581       334  PMPG      H11S            4.7155680026      -49.4805451101       -6.1375865006  MEMB      334             0.0000000000
     41582       334  PMPG      C212            5.4228924303      -51.1666950457       -5.0883955455  MEMB      334             0.0000000000
     41583       334  PMPG      H12R            5.8245634049      -51.6369676919       -6.0113392048  MEMB      334             0.0000000000
     41584       334  PMPG      H12S            4.3902110697      -51.4244120522       -4.7698488666  MEMB      334             0.0000000000
     41585       334  PMPG      C213            6.4712935471      -51.5156473541       -3.9497520139  MEMB      334             0.0000000000
     41586       334  PMPG      H13R            7.3703551530      -50.8686419940       -4.0357367132  MEMB      334             0.0000000000
     41587       334  PMPG      H13S            6.7677611906      -52.5792146380       -4.0732539894  MEMB      334             0.0000000000
     41588       334  PMPG      C214            6.0598386771      -51.2878897909       -2.4316223478  MEMB      334             0.0000000000
     41589       334  PMPG      H14R            5.6955652116      -50.2392815364       -2.3863816607  MEMB      334             0.0000000000
     41590       334  PMPG      H14S            6.9740067806      -51.5229216105       -1.8456368382  MEMB      334             0.0000000000
     41591       334  PMPG      C215            4.8238655495      -52.1306771389       -1.9732124358  MEMB      334             0.0000000000
     41592       334  PMPG      H15R            3.9217410965      -51.8852201050       -2.5734140534  MEMB      334             0.0000000000
     41593       334  PMPG      H15S            4.5478609362      -51.9053977634       -0.9208840018  MEMB      334             0.0000000000
     41594       334  PMPG      C216            4.9025209357      -53.6007004261       -2.0540808016  MEMB      334             0.0000000000
     41595       334  PMPG      H16R            3.9607070614      -54.0059897470       -1.6262383277  MEMB      334             0.0000000000
     41596       334  PMPG      H16S            5.8628843123      -53.8945719794       -1.5790397245  MEMB      334             0.0000000000
     41597       334  PMPG      H16T            4.9613274567      -53.9401090011       -3.1103303898  MEMB      334             0.0000000000
     41598       334  PMPG      C33            10.5823781775      -55.2367890219      -11.0436588391  MEMB      334             0.0000000000
     41599       334  PMPG      H3X            10.3723884970      -56.2951697300      -10.7789793229  MEMB      334             0.0000000000
     41600       334  PMPG      H3Y             9.6424861402      -54.6618427050      -10.9009686071  MEMB      334             0.0000000000
     41601       334  PMPG      C34            11.4680363318      -54.6624451523       -9.9564726353  MEMB      334             0.0000000000
     41602       334  PMPG      H4X            11.7888963219      -53.6042760725      -10.0643969243  MEMB      334             0.0000000000
     41603       334  PMPG      H4Y            12.3105521718      -55.3866570128       -9.9542319654  MEMB      334             0.0000000000
     41604       334  PMPG      C35            10.9037790304      -54.8156313977       -8.5600441988  MEMB      334             0.0000000000
     41605       334  PMPG      H5X            10.7645913391      -55.8900664639       -8.3140019678  MEMB      334             0.0000000000
     41606       334  PMPG      H5Y             9.8751654943      -54.4266063586       -8.4021367527  MEMB      334             0.0000000000
     41607       334  PMPG      C36            11.6400830666      -53.9753193755       -7.4806536371  MEMB      334             0.0000000000
     41608       334  PMPG      H6X            12.7205644171      -54.2185149904       -7.3926902856  MEMB      334             0.0000000000
     41609       334  PMPG      H6Y            11.3862747755      -54.3551951886       -6.4679358546  MEMB      334             0.0000000000
     41610       334  PMPG      C37            11.4564154766      -52.4621385372       -7.5342624453  MEMB      334             0.0000000000
     41611       334  PMPG      H7X            10.3745097637      -52.2540439711       -7.3910923063  MEMB      334             0.0000000000
     41612       334  PMPG      H7Y            11.7232678857      -52.1869453675       -8.5770375059  MEMB      334             0.0000000000
     41613       334  PMPG      C38            12.3441633854      -51.6052593107       -6.6248300913  MEMB      334             0.0000000000
     41614       334  PMPG      H8X            13.4038261338      -51.8158870750       -6.8838120300  MEMB      334             0.0000000000
     41615       334  PMPG      H8Y            12.1350382640      -51.9007147329       -5.5744523900  MEMB      334             0.0000000000
     41616       334  PMPG      C39            12.0713458872      -50.0795432647       -6.6604767780  MEMB      334             0.0000000000
     41617       334  PMPG      H9X            11.0555567002      -49.9607012467       -6.2264609009  MEMB      334             0.0000000000
     41618       334  PMPG      H9Y            12.1935270211      -49.4494327583       -7.5673140353  MEMB      334             0.0000000000
     41619       334  PMPG      C310           12.9900105489      -49.3052459541       -5.6686119634  MEMB      334             0.0000000000
     41620       334  PMPG      H10X           13.5711548067      -48.4894132152       -6.1492467462  MEMB      334             0.0000000000
     41621       334  PMPG      H10Y           13.8298557513      -49.9438219806       -5.3204718311  MEMB      334             0.0000000000
     41622       334  PMPG      C311           12.1697275821      -48.5997217683       -4.5128155426  MEMB      334             0.0000000000
     41623       334  PMPG      H11X           11.3178492039      -48.1055742141       -5.0270548681  MEMB      334             0.0000000000
     41624       334  PMPG      H11Y           12.8682154211      -47.8783454901       -4.0373664751  MEMB      334             0.0000000000
     41625       334  PMPG      C312           11.4685417198      -49.5224237309       -3.4645750690  MEMB      334             0.0000000000
     41626       334  PMPG      H12X           11.8373311737      -50.5680119161       -3.3934370329  MEMB      334             0.0000000000
     41627       334  PMPG      H12Y           10.4274418852      -49.5826252209       -3.8477304377  MEMB      334             0.0000000000
     41628       334  PMPG      C313           11.4314487579      -48.9110882772       -2.0024409265  MEMB      334             0.0000000000
     41629       334  PMPG      H13X           11.1298960559      -47.8418001222       -2.0054928088  MEMB      334             0.0000000000
     41630       334  PMPG      H13Y           12.4548661995      -49.1364994318       -1.6334840723  MEMB      334             0.0000000000
     41631       334  PMPG      C314           10.2629185368      -49.6090171431       -1.1846645809  MEMB      334             0.0000000000
     41632       334  PMPG      H14X           10.6376220018      -50.5656267994       -0.7617975925  MEMB      334             0.0000000000
     41633       334  PMPG      H14Y            9.4226901821      -49.8511318300       -1.8700236121  MEMB      334             0.0000000000
     41634       334  PMPG      C315            9.7240625588      -48.7467155193        0.0067633888  MEMB      334             0.0000000000
     41635       334  PMPG      H15X            9.4767333115      -47.7448786809       -0.4049069374  MEMB      334             0.0000000000
     41636       334  PMPG      H15Y           10.5992621285      -48.6315929888        0.6813684345  MEMB      334             0.0000000000
     41637       334  PMPG      C316            8.5847798236      -49.4045955496        0.7712724678  MEMB      334             0.0000000000
     41638       334  PMPG      H16X            7.8393878921      -49.7511744420        0.0238809632  MEMB      334             0.0000000000
     41639       334  PMPG      H16Y            8.1312456567      -48.7004790213        1.5012363591  MEMB      334             0.0000000000
     41640       334  PMPG      H16Z            8.9989438894      -50.2494791099        1.3620006183  MEMB      334             0.0000000000
     41641       335  QMPE      N               1.1753704060      -51.4343903961      -21.5645494864  MEMB      335             0.0000000000
     41642       335  QMPE      HN1             1.6269558467      -51.2867832439      -22.4896886345  MEMB      335             0.0000000000
     41643       335  QMPE      HN2             0.8849262863      -52.4129910140      -21.3655946017  MEMB      335             0.0000000000
     41644       335  QMPE      HN3             0.4027782562      -50.7420171840      -21.4916061591  MEMB      335             0.0000000000
     41645       335  QMPE      C12             2.1543230172      -51.0111666530      -20.4905409055  MEMB      335             0.0000000000
     41646       335  QMPE      H12A            2.3901872532      -49.9537618059      -20.7366795975  MEMB      335             0.0000000000
     41647       335  QMPE      H12B            2.9817065763      -51.7525482110      -20.4800104928  MEMB      335             0.0000000000
     41648       335  QMPE      C11             1.4215327640      -51.0388026285      -19.1118420933  MEMB      335             0.0000000000
     41649       335  QMPE      H11A            0.5624159096      -50.3344243825      -19.1023271912  MEMB      335             0.0000000000
     41650       335  QMPE      H11B            2.1599507523      -50.5918763667      -18.4123301818  MEMB      335             0.0000000000
     41651       335  QMPE      P              -0.3593691309      -52.7294809168      -18.1618582088  MEMB      335             0.0000000000
     41652       335  QMPE      O13            -0.4328834303      -54.2060986717      -17.9393370133  MEMB      335             0.0000000000
     41653       335  QMPE      O14            -1.4706335189      -52.2853430723      -19.1024230937  MEMB      335             0.0000000000
     41654       335  QMPE      O11            -0.5810070015      -51.8023434771      -16.8890705253  MEMB      335             0.0000000000
     41655       335  QMPE      O12             1.1114679337      -52.3615229836      -18.7403786786  MEMB      335             0.0000000000
     41656       335  QMPE      C1              0.3390439882      -51.7581079245      -15.8232910813  MEMB      335             0.0000000000
     41657       335  QMPE      HA              0.0233741211      -50.9804918546      -15.0952892020  MEMB      335             0.0000000000
     41658       335  QMPE      HB              1.3467065879      -51.4375421078      -16.1641350673  MEMB      335             0.0000000000
     41659       335  QMPE      C2              0.3520930194      -53.0942598781      -14.9963909084  MEMB      335             0.0000000000
     41660       335  QMPE      HS              0.9313543645      -53.8707837689      -15.5402549918  MEMB      335             0.0000000000
     41661       335  QMPE      O21            -1.0255182893      -53.4156858068      -14.5631680465  MEMB      335             0.0000000000
     41662       335  QMPE      C21            -1.1972060969      -54.6348833723      -14.2284005111  MEMB      335             0.0000000000
     41663       335  QMPE      O22            -0.4078220960      -55.5606508809      -14.3654773072  MEMB      335             0.0000000000
     41664       335  QMPE      C22            -2.5814920225      -54.7741044212      -13.6589100282  MEMB      335             0.0000000000
     41665       335  QMPE      H2R            -3.1947160695      -55.3682749457      -14.3697113585  MEMB      335             0.0000000000
     41666       335  QMPE      H2S            -3.1967319269      -53.8853192842      -13.4022741033  MEMB      335             0.0000000000
     41667       335  QMPE      C3              1.2733352983      -52.9491817574      -13.7164560033  MEMB      335             0.0000000000
     41668       335  QMPE      HX              2.2474778351      -52.5261560710      -14.0426720703  MEMB      335             0.0000000000
     41669       335  QMPE      HY              1.4727318359      -53.9694943593      -13.3246344852  MEMB      335             0.0000000000
     41670       335  QMPE      O31             0.7151777941      -52.0381565639      -12.8426657207  MEMB      335             0.0000000000
     41671       335  QMPE      C31             1.1780977467      -51.9749873667      -11.6192335881  MEMB      335             0.0000000000
     41672       335  QMPE      O32             1.9953548783      -52.7844304220      -11.1221702274  MEMB      335             0.0000000000
     41673       335  QMPE      C32             0.6036078386      -50.7774960732      -10.8214080387  MEMB      335             0.0000000000
     41674       335  QMPE      H2X             1.3937840200      -50.3993486644      -10.1380727880  MEMB      335             0.0000000000
     41675       335  QMPE      H2Y             0.4742262972      -49.9252318782      -11.5222840868  MEMB      335             0.0000000000
     41676       335  QMPE      C23            -2.5351531958      -55.5491624273      -12.3025086294  MEMB      335             0.0000000000
     41677       335  QMPE      H3R            -2.0068964668      -54.9671362081      -11.5173262339  MEMB      335             0.0000000000
     41678       335  QMPE      H3S            -1.8248030921      -56.4020550341      -12.3504444462  MEMB      335             0.0000000000
     41679       335  QMPE      C24            -3.9360418575      -56.0063307930      -11.9296427392  MEMB      335             0.0000000000
     41680       335  QMPE      H4R            -3.7782355036      -56.7690076313      -11.1373410639  MEMB      335             0.0000000000
     41681       335  QMPE      H4S            -4.3996211524      -56.4688463911      -12.8271366615  MEMB      335             0.0000000000
     41682       335  QMPE      C25            -4.8958911911      -55.0071818633      -11.1604755030  MEMB      335             0.0000000000
     41683       335  QMPE      H5R            -5.8618274473      -55.5326118391      -11.0016951824  MEMB      335             0.0000000000
     41684       335  QMPE      H5S            -5.2020817170      -54.1383791550      -11.7815639136  MEMB      335             0.0000000000
     41685       335  QMPE      C26            -4.4101890101      -54.3768839354       -9.8373026231  MEMB      335             0.0000000000
     41686       335  QMPE      H6R            -3.3263115259      -54.1328959449       -9.8364225128  MEMB      335             0.0000000000
     41687       335  QMPE      H6S            -4.3904947343      -55.1681419849       -9.0576593676  MEMB      335             0.0000000000
     41688       335  QMPE      C27            -5.1071691183      -53.1859993681       -9.3925598102  MEMB      335             0.0000000000
     41689       335  QMPE      H7R            -6.1980625595      -53.3674689433       -9.4990557268  MEMB      335             0.0000000000
     41690       335  QMPE      H7S            -4.7997652392      -52.3039823266       -9.9941167699  MEMB      335             0.0000000000
     41691       335  QMPE      C28            -5.0132296330      -52.8717993796       -7.8608899476  MEMB      335             0.0000000000
     41692       335  QMPE      H8R            -3.9079648077      -52.8518763067       -7.7499224574  MEMB      335             0.0000000000
     41693       335  QMPE      H8S            -5.4865684449      -53.6600595926       -7.2372579071  MEMB      335             0.0000000000
     41694       335  QMPE      C29            -5.6278480779      -51.5561863180       -7.5709538713  MEMB      335             0.0000000000
     41695       335  QMPE      H9R            -6.7337328018      -51.4563195758       -7.5339898184  MEMB      335             0.0000000000
     41696       335  QMPE      C217           -4.8785098800      -50.2806987028       -7.9821851441  MEMB      335             0.0000000000
     41697       335  QMPE      H17R           -3.9353167529      -50.5353427763       -8.4495529555  MEMB      335             0.0000000000
     41698       335  QMPE      H17S           -5.5687635560      -49.4641624342       -8.1545423466  MEMB      335             0.0000000000
     41699       335  QMPE      C210           -4.9719857900      -50.6564770773       -6.4946211673  MEMB      335             0.0000000000
     41700       335  QMPE      H10R           -5.6230625595      -49.9002095183       -6.0062781337  MEMB      335             0.0000000000
     41701       335  QMPE      C211           -3.5643014677      -50.9227788770       -5.8855813370  MEMB      335             0.0000000000
     41702       335  QMPE      H11R           -2.9378094240      -51.4449802004       -6.6399915628  MEMB      335             0.0000000000
     41703       335  QMPE      H11S           -3.1317513460      -50.0181682348       -5.4071453884  MEMB      335             0.0000000000
     41704       335  QMPE      C212           -3.8224640057      -51.9646010009       -4.8116120765  MEMB      335             0.0000000000
     41705       335  QMPE      H12R           -2.8285664970      -52.3776707528       -4.5361809107  MEMB      335             0.0000000000
     41706       335  QMPE      H12S           -4.5320516773      -52.7534729205       -5.1409863044  MEMB      335             0.0000000000
     41707       335  QMPE      C213           -4.3629899456      -51.2107509747       -3.5846097572  MEMB      335             0.0000000000
     41708       335  QMPE      H13R           -5.2754486890      -50.6461840427       -3.8727145427  MEMB      335             0.0000000000
     41709       335  QMPE      H13S           -3.6131216935      -50.4552721003       -3.2663799638  MEMB      335             0.0000000000
     41710       335  QMPE      C214           -4.7650438163      -52.0459409284       -2.4315465772  MEMB      335             0.0000000000
     41711       335  QMPE      H14R           -5.4819424419      -52.8690277336       -2.6386830526  MEMB      335             0.0000000000
     41712       335  QMPE      H14S           -5.3660117969      -51.3947637345       -1.7613779397  MEMB      335             0.0000000000
     41713       335  QMPE      C215           -3.5733434498      -52.5858839327       -1.6215723210  MEMB      335             0.0000000000
     41714       335  QMPE      H15R           -2.8633800770      -51.8011230127       -1.2833074298  MEMB      335             0.0000000000
     41715       335  QMPE      H15S           -2.9034167055      -53.0896575018       -2.3507726448  MEMB      335             0.0000000000
     41716       335  QMPE      C216           -4.0066676849      -53.5575371419       -0.5765793313  MEMB      335             0.0000000000
     41717       335  QMPE      H16R           -4.6009352301      -53.1139317480        0.2506945099  MEMB      335             0.0000000000
     41718       335  QMPE      H16S           -3.0517558126      -53.9253787937       -0.1439629647  MEMB      335             0.0000000000
     41719       335  QMPE      H16T           -4.5026280366      -54.4305161183       -1.0522383692  MEMB      335             0.0000000000
     41720       335  QMPE      C33            -0.6853055085      -51.2684782252      -10.1930711224  MEMB      335             0.0000000000
     41721       335  QMPE      H3X            -1.3076878612      -51.7529731153      -10.9755197536  MEMB      335             0.0000000000
     41722       335  QMPE      H3Y            -1.2470132850      -50.4510896858       -9.6923899697  MEMB      335             0.0000000000
     41723       335  QMPE      C34            -0.3967687818      -52.2388152086       -9.0106140154  MEMB      335             0.0000000000
     41724       335  QMPE      H4X             0.1875040320      -53.1396788982       -9.2959049792  MEMB      335             0.0000000000
     41725       335  QMPE      H4Y            -1.3575904544      -52.7138230997       -8.7181924525  MEMB      335             0.0000000000
     41726       335  QMPE      C35             0.0075938992      -51.5337322400       -7.7381833378  MEMB      335             0.0000000000
     41727       335  QMPE      H5X            -0.8011351477      -50.8142800479       -7.4878499894  MEMB      335             0.0000000000
     41728       335  QMPE      H5Y             0.8408509253      -50.8177705240       -7.9037208317  MEMB      335             0.0000000000
     41729       335  QMPE      C36             0.1430750866      -52.4676822254       -6.5076667917  MEMB      335             0.0000000000
     41730       335  QMPE      H6X             1.0775122902      -53.0471918077       -6.6667793616  MEMB      335             0.0000000000
     41731       335  QMPE      H6Y            -0.6844002499      -53.2073821902       -6.5571607816  MEMB      335             0.0000000000
     41732       335  QMPE      C37             0.2130201194      -51.6890759361       -5.1483499935  MEMB      335             0.0000000000
     41733       335  QMPE      H7X             0.8441182262      -50.7876330627       -5.3014416123  MEMB      335             0.0000000000
     41734       335  QMPE      H7Y            -0.8492539459      -51.3842319724       -5.0344855670  MEMB      335             0.0000000000
     41735       335  QMPE      C38             0.6192306131      -52.4885690275       -4.0151034017  MEMB      335             0.0000000000
     41736       335  QMPE      H8X            -0.2785648045      -53.0122460311       -3.6226149062  MEMB      335             0.0000000000
     41737       335  QMPE      H8Y             1.4767488548      -53.1609780399       -4.2315510753  MEMB      335             0.0000000000
     41738       335  QMPE      C39             1.0651794060      -51.6151510792       -2.8465803815  MEMB      335             0.0000000000
     41739       335  QMPE      H9X             0.1952029473      -50.9613368702       -2.6229981559  MEMB      335             0.0000000000
     41740       335  QMPE      H9Y             1.8962706289      -50.9212753911       -3.0958688222  MEMB      335             0.0000000000
     41741       335  QMPE      C310            1.3888960736      -52.2453741111       -1.4689102876  MEMB      335             0.0000000000
     41742       335  QMPE      H10X            1.9002290103      -51.5322083547       -0.7875479517  MEMB      335             0.0000000000
     41743       335  QMPE      H10Y            2.1388590814      -53.0604690805       -1.5554949762  MEMB      335             0.0000000000
     41744       335  QMPE      C311            0.1674101206      -52.8389678491       -0.7595893219  MEMB      335             0.0000000000
     41745       335  QMPE      H11X           -0.3176248603      -53.6681592784       -1.3177142860  MEMB      335             0.0000000000
     41746       335  QMPE      H11Y           -0.5684184061      -52.0070300905       -0.7871039905  MEMB      335             0.0000000000
     41747       335  QMPE      C312            0.4657269625      -53.4508529906        0.7068880153  MEMB      335             0.0000000000
     41748       335  QMPE      H12X            1.2628690911      -52.9598562439        1.3050578723  MEMB      335             0.0000000000
     41749       335  QMPE      H12Y            1.0346192581      -54.4047800382        0.7334581265  MEMB      335             0.0000000000
     41750       335  QMPE      C313           -0.6828080173      -53.4151990781        1.7478374361  MEMB      335             0.0000000000
     41751       335  QMPE      H13X           -1.3641777571      -54.2348822852        1.4345078062  MEMB      335             0.0000000000
     41752       335  QMPE      H13Y           -0.1824225583      -53.7823938675        2.6693060362  MEMB      335             0.0000000000
     41753       335  QMPE      C314           -1.3620984352      -52.1048423589        2.1749789198  MEMB      335             0.0000000000
     41754       335  QMPE      H14X           -1.7435775709      -52.1261718157        3.2182149381  MEMB      335             0.0000000000
     41755       335  QMPE      H14Y           -2.1531082246      -51.8637738412        1.4330155279  MEMB      335             0.0000000000
     41756       335  QMPE      C315           -0.4549283177      -50.8578988514        2.1648758359  MEMB      335             0.0000000000
     41757       335  QMPE      H15X           -0.1947579516      -50.6824300288        1.0991177130  MEMB      335             0.0000000000
     41758       335  QMPE      H15Y           -0.9654759739      -49.9161654079        2.4594945895  MEMB      335             0.0000000000
     41759       335  QMPE      H15Z            0.4539607837      -51.0229988482        2.7821152518  MEMB      335             0.0000000000
     41760       336  PMPE      N              53.3143631857      -14.3620134415      -18.2043526958  MEMB      336             0.0000000000
     41761       336  PMPE      HN1            54.2177987903      -14.8001332419      -17.9333270474  MEMB      336             0.0000000000
     41762       336  PMPE      HN2            53.4271285931      -13.4498054025      -18.6909330810  MEMB      336             0.0000000000
     41763       336  PMPE      HN3            52.7474235805      -14.2289945651      -17.3426766252  MEMB      336             0.0000000000
     41764       336  PMPE      C12            52.5172464912      -15.2758094087      -19.0459629420  MEMB      336             0.0000000000
     41765       336  PMPE      H12A           52.5224634429      -16.3087227429      -18.6368370216  MEMB      336             0.0000000000
     41766       336  PMPE      H12B           52.9735732563      -15.3816684979      -20.0533758264  MEMB      336             0.0000000000
     41767       336  PMPE      C11            51.0192768129      -14.7443844143      -19.0342932354  MEMB      336             0.0000000000
     41768       336  PMPE      H11A           50.5943138738      -14.8633571687      -18.0146986934  MEMB      336             0.0000000000
     41769       336  PMPE      H11B           50.3696082111      -15.4228474652      -19.6275382233  MEMB      336             0.0000000000
     41770       336  PMPE      P              49.5496413519      -12.5961520221      -19.2334691160  MEMB      336             0.0000000000
     41771       336  PMPE      O13            48.4965082422      -13.5703443323      -18.8540371137  MEMB      336             0.0000000000
     41772       336  PMPE      O14            49.1387670074      -11.6790708336      -20.3010055439  MEMB      336             0.0000000000
     41773       336  PMPE      O11            49.9411876765      -11.8088618484      -17.9677525056  MEMB      336             0.0000000000
     41774       336  PMPE      O12            50.9190508242      -13.3874069138      -19.3591268453  MEMB      336             0.0000000000
     41775       336  PMPE      C1             50.4126254064      -12.4081586063      -16.7852951697  MEMB      336             0.0000000000
     41776       336  PMPE      HA             51.5167865902      -12.3683284876      -16.9017536667  MEMB      336             0.0000000000
     41777       336  PMPE      HB             50.0994508139      -13.4723531590      -16.7242000717  MEMB      336             0.0000000000
     41778       336  PMPE      C2             49.8764314362      -11.6530670121      -15.5172125207  MEMB      336             0.0000000000
     41779       336  PMPE      HS             48.7828177690      -11.4855760544      -15.6185872069  MEMB      336             0.0000000000
     41780       336  PMPE      O21            50.5587461950      -10.3735735507      -15.3907147271  MEMB      336             0.0000000000
     41781       336  PMPE      C21            50.0800659355       -9.5133808092      -14.5028297024  MEMB      336             0.0000000000
     41782       336  PMPE      O22            49.0515916321       -9.5843990790      -13.8638463396  MEMB      336             0.0000000000
     41783       336  PMPE      C22            51.1170955802       -8.3599130668      -14.4058992849  MEMB      336             0.0000000000
     41784       336  PMPE      H2R            51.1008845041       -7.7820923672      -15.3546781745  MEMB      336             0.0000000000
     41785       336  PMPE      H2S            52.0936521466       -8.8257845114      -14.1536646010  MEMB      336             0.0000000000
     41786       336  PMPE      C3             50.1952951076      -12.4707822263      -14.2370687621  MEMB      336             0.0000000000
     41787       336  PMPE      HX             49.8318794534      -13.5191189863      -14.2939900638  MEMB      336             0.0000000000
     41788       336  PMPE      HY             49.6873845067      -12.0031368984      -13.3666343786  MEMB      336             0.0000000000
     41789       336  PMPE      O31            51.6279078653      -12.4640415960      -14.2414493454  MEMB      336             0.0000000000
     41790       336  PMPE      C31            52.0015724963      -13.0243540116      -12.9989274523  MEMB      336             0.0000000000
     41791       336  PMPE      O32            51.2325550070      -13.4175382443      -12.1490874476  MEMB      336             0.0000000000
     41792       336  PMPE      C32            53.3442326415      -12.6812198637      -12.8102898825  MEMB      336             0.0000000000
     41793       336  PMPE      H2X            53.4515202858      -11.5833482217      -12.9425326392  MEMB      336             0.0000000000
     41794       336  PMPE      H2Y            54.0159376529      -13.2379375771      -13.4981843539  MEMB      336             0.0000000000
     41795       336  PMPE      C23            50.7488537493       -7.5401162585      -13.2142407425  MEMB      336             0.0000000000
     41796       336  PMPE      H3R            49.7116339941       -7.1526042307      -13.1229687698  MEMB      336             0.0000000000
     41797       336  PMPE      H3S            51.2434815059       -6.5576237647      -13.3703585106  MEMB      336             0.0000000000
     41798       336  PMPE      C24            51.1313813277       -8.0849471564      -11.8298999315  MEMB      336             0.0000000000
     41799       336  PMPE      H4R            52.2378426035       -8.1367384189      -11.7439827100  MEMB      336             0.0000000000
     41800       336  PMPE      H4S            50.8404829849       -9.1570596089      -11.8133306443  MEMB      336             0.0000000000
     41801       336  PMPE      C25            50.4661225673       -7.3532281992      -10.6562431330  MEMB      336             0.0000000000
     41802       336  PMPE      H5R            49.3789903836       -7.1665713435      -10.7889997476  MEMB      336             0.0000000000
     41803       336  PMPE      H5S            50.8745904790       -6.3333270532      -10.8214002057  MEMB      336             0.0000000000
     41804       336  PMPE      C26            50.7252876668       -7.9003511222       -9.2853895673  MEMB      336             0.0000000000
     41805       336  PMPE      H6R            50.2130813671       -8.8786220133       -9.1631115491  MEMB      336             0.0000000000
     41806       336  PMPE      H6S            50.1731286828       -7.1627565573       -8.6645870227  MEMB      336             0.0000000000
     41807       336  PMPE      C27            52.1919263195       -8.1558330778       -8.9316084562  MEMB      336             0.0000000000
     41808       336  PMPE      H7R            52.7875380442       -7.3275050813       -9.3714266757  MEMB      336             0.0000000000
     41809       336  PMPE      H7S            52.5863193503       -9.1423801765       -9.2564163276  MEMB      336             0.0000000000
     41810       336  PMPE      C28            52.3688574872       -8.1235054040       -7.4292225035  MEMB      336             0.0000000000
     41811       336  PMPE      H8R            51.8451680723       -7.2219033568       -7.0455762357  MEMB      336             0.0000000000
     41812       336  PMPE      H8S            53.4517167366       -8.0843376358       -7.1838599101  MEMB      336             0.0000000000
     41813       336  PMPE      C29            51.7504725410       -9.3393684947       -6.8155360147  MEMB      336             0.0000000000
     41814       336  PMPE      H9R            51.8344858210      -10.2408438593       -7.4594342838  MEMB      336             0.0000000000
     41815       336  PMPE      C217           50.3725503099       -9.1001079490       -6.1767662288  MEMB      336             0.0000000000
     41816       336  PMPE      H17R           49.5745946062       -9.8281957350       -6.2545038748  MEMB      336             0.0000000000
     41817       336  PMPE      H17S           50.1170479275       -8.0911357055       -5.8774626697  MEMB      336             0.0000000000
     41818       336  PMPE      C210           51.5803594760       -9.6138714469       -5.3293834438  MEMB      336             0.0000000000
     41819       336  PMPE      H10R           51.3597255475      -10.6239886523       -4.9228065951  MEMB      336             0.0000000000
     41820       336  PMPE      C211           51.8753197381       -8.6431628527       -4.1978827411  MEMB      336             0.0000000000
     41821       336  PMPE      H11R           51.5027935829       -8.9093553242       -3.1856145757  MEMB      336             0.0000000000
     41822       336  PMPE      H11S           51.4466781029       -7.6505730780       -4.4535243380  MEMB      336             0.0000000000
     41823       336  PMPE      C212           53.3582895405       -8.4324269836       -4.0707902586  MEMB      336             0.0000000000
     41824       336  PMPE      H12R           53.4236609739       -7.5163292351       -3.4456397945  MEMB      336             0.0000000000
     41825       336  PMPE      H12S           53.7943493834       -8.1546004891       -5.0541437891  MEMB      336             0.0000000000
     41826       336  PMPE      C213           54.3148499045       -9.5785254115       -3.5807843091  MEMB      336             0.0000000000
     41827       336  PMPE      H13R           55.3178321411       -9.1049799301       -3.5167400255  MEMB      336             0.0000000000
     41828       336  PMPE      H13S           54.4141567811      -10.4059560471       -4.3155079302  MEMB      336             0.0000000000
     41829       336  PMPE      C214           53.8862293590       -9.9309341367       -2.1810686433  MEMB      336             0.0000000000
     41830       336  PMPE      H14R           53.1274489735      -10.7268122659       -2.3396626454  MEMB      336             0.0000000000
     41831       336  PMPE      H14S           53.4372388896       -9.1132650325       -1.5776242346  MEMB      336             0.0000000000
     41832       336  PMPE      C215           55.1029443454      -10.5272518333       -1.3123022348  MEMB      336             0.0000000000
     41833       336  PMPE      H15R           54.7009756189      -10.6057532060       -0.2795487404  MEMB      336             0.0000000000
     41834       336  PMPE      H15S           56.0090599824       -9.8955255448       -1.1931500316  MEMB      336             0.0000000000
     41835       336  PMPE      C216           55.2818516119      -11.9734697892       -1.6990855455  MEMB      336             0.0000000000
     41836       336  PMPE      H16R           56.1889020585      -12.3220892388       -1.1605279390  MEMB      336             0.0000000000
     41837       336  PMPE      H16S           54.4340740037      -12.5958780719       -1.3410324642  MEMB      336             0.0000000000
     41838       336  PMPE      H16T           55.5160983810      -12.1310166806       -2.7736228910  MEMB      336             0.0000000000
     41839       336  PMPE      C33            53.9892710937      -12.8530988893      -11.4471714060  MEMB      336             0.0000000000
     41840       336  PMPE      H3X            55.0204565377      -12.4397296760      -11.4369973045  MEMB      336             0.0000000000
     41841       336  PMPE      H3Y            54.2150984603      -13.9209417244      -11.2397228904  MEMB      336             0.0000000000
     41842       336  PMPE      C34            53.1951419369      -12.1137924896      -10.3526996555  MEMB      336             0.0000000000
     41843       336  PMPE      H4X            52.3448612947      -12.8003294234      -10.1526723463  MEMB      336             0.0000000000
     41844       336  PMPE      H4Y            52.7057974741      -11.2082618350      -10.7708826900  MEMB      336             0.0000000000
     41845       336  PMPE      C35            54.0396424812      -11.9492224619       -9.0528647031  MEMB      336             0.0000000000
     41846       336  PMPE      H5X            53.6592974422      -11.1815241937       -8.3455463148  MEMB      336             0.0000000000
     41847       336  PMPE      H5Y            55.0815771298      -11.6477821820       -9.2933375490  MEMB      336             0.0000000000
     41848       336  PMPE      C36            54.1639201094      -13.2765568216       -8.2576267500  MEMB      336             0.0000000000
     41849       336  PMPE      H6X            54.9240366013      -13.2623202068       -7.4474774631  MEMB      336             0.0000000000
     41850       336  PMPE      H6Y            54.4375503072      -14.1180123765       -8.9294894759  MEMB      336             0.0000000000
     41851       336  PMPE      C37            52.7824476708      -13.6758441541       -7.6218975782  MEMB      336             0.0000000000
     41852       336  PMPE      H7X            52.1454917758      -13.9020852419       -8.5036137881  MEMB      336             0.0000000000
     41853       336  PMPE      H7Y            52.2757202086      -12.8218731711       -7.1236182675  MEMB      336             0.0000000000
     41854       336  PMPE      C38            52.9801366561      -14.7962656760       -6.6590217210  MEMB      336             0.0000000000
     41855       336  PMPE      H8X            53.7030201808      -14.3926835353       -5.9181559130  MEMB      336             0.0000000000
     41856       336  PMPE      H8Y            53.4351915487      -15.5939343694       -7.2842980450  MEMB      336             0.0000000000
     41857       336  PMPE      C39            51.7917184920      -15.4516179893       -5.9030452815  MEMB      336             0.0000000000
     41858       336  PMPE      H9X            52.1433051916      -16.3880052167       -5.4194268979  MEMB      336             0.0000000000
     41859       336  PMPE      H9Y            51.0478912118      -15.6691639155       -6.6991080517  MEMB      336             0.0000000000
     41860       336  PMPE      C310           51.2527913587      -14.4864128976       -4.8187453739  MEMB      336             0.0000000000
     41861       336  PMPE      H10X           50.2912604696      -14.9432205082       -4.5007734664  MEMB      336             0.0000000000
     41862       336  PMPE      H10Y           51.0741597926      -13.4767514409       -5.2465251963  MEMB      336             0.0000000000
     41863       336  PMPE      C311           52.2104281573      -14.2454390787       -3.6399642192  MEMB      336             0.0000000000
     41864       336  PMPE      H11X           52.8489250904      -13.3598560823       -3.8458408728  MEMB      336             0.0000000000
     41865       336  PMPE      H11Y           52.8098201073      -15.1422824876       -3.3740282080  MEMB      336             0.0000000000
     41866       336  PMPE      C312           51.4487223987      -14.0231190398       -2.3557022775  MEMB      336             0.0000000000
     41867       336  PMPE      H12X           52.2243699408      -13.9404405110       -1.5645909184  MEMB      336             0.0000000000
     41868       336  PMPE      H12Y           50.8155240817      -14.8941436008       -2.0823939317  MEMB      336             0.0000000000
     41869       336  PMPE      C313           50.5333195854      -12.8522750911       -2.2796798723  MEMB      336             0.0000000000
     41870       336  PMPE      H13X           49.9406645913      -12.5619220086       -3.1734220178  MEMB      336             0.0000000000
     41871       336  PMPE      H13Y           51.1536598949      -11.9390607501       -2.1550266970  MEMB      336             0.0000000000
     41872       336  PMPE      C314           49.6333819486      -12.8439729306       -1.0041215217  MEMB      336             0.0000000000
     41873       336  PMPE      H14X           50.1870733613      -13.3528682763       -0.1863377166  MEMB      336             0.0000000000
     41874       336  PMPE      H14Y           48.7082871688      -13.3856771685       -1.2958009040  MEMB      336             0.0000000000
     41875       336  PMPE      C315           49.2586711117      -11.4724236506       -0.3972653556  MEMB      336             0.0000000000
     41876       336  PMPE      H15X           48.6631225840      -11.7492644561        0.4988386729  MEMB      336             0.0000000000
     41877       336  PMPE      H15Y           48.6738259746      -10.8936221409       -1.1437664702  MEMB      336             0.0000000000
     41878       336  PMPE      C316           50.4858766877      -10.7451317384        0.0227793519  MEMB      336             0.0000000000
     41879       336  PMPE      H16X           51.0272427165      -10.2678159939       -0.8218577600  MEMB      336             0.0000000000
     41880       336  PMPE      H16Y           51.2206925369      -11.3714885645        0.5723642837  MEMB      336             0.0000000000
     41881       336  PMPE      H16Z           50.2280982668       -9.9353089417        0.7383635444  MEMB      336             0.0000000000
     41882       337  POPE      N             -41.6210761366      -33.3346937277      -17.3243354126  MEMB      337             0.0000000000
     41883       337  POPE      HN1           -42.3602665847      -33.0641673049      -18.0040506989  MEMB      337             0.0000000000
     41884       337  POPE      HN2           -42.0625701861      -33.3262097021      -16.3827352670  MEMB      337             0.0000000000
     41885       337  POPE      HN3           -40.7693323949      -32.7389405920      -17.3591344190  MEMB      337             0.0000000000
     41886       337  POPE      C12           -41.1716803105      -34.7699078068      -17.6032372275  MEMB      337             0.0000000000
     41887       337  POPE      H12A          -42.0231196521      -35.3526375183      -17.1911714645  MEMB      337             0.0000000000
     41888       337  POPE      H12B          -40.2677668709      -35.0483885570      -17.0203909204  MEMB      337             0.0000000000
     41889       337  POPE      C11           -40.9825841250      -34.9703512222      -19.1399447458  MEMB      337             0.0000000000
     41890       337  POPE      H11A          -41.9588936308      -34.8857858431      -19.6633845910  MEMB      337             0.0000000000
     41891       337  POPE      H11B          -40.6864876323      -36.0211563691      -19.3459940661  MEMB      337             0.0000000000
     41892       337  POPE      P             -38.4541318320      -34.4011067102      -19.6374049061  MEMB      337             0.0000000000
     41893       337  POPE      O13           -37.6984255599      -33.1189317919      -19.8923693973  MEMB      337             0.0000000000
     41894       337  POPE      O14           -38.2367087957      -35.5464141522      -20.6077382780  MEMB      337             0.0000000000
     41895       337  POPE      O11           -38.0255783774      -34.9259277014      -18.2215968108  MEMB      337             0.0000000000
     41896       337  POPE      O12           -40.0018996662      -34.0136516873      -19.5733732227  MEMB      337             0.0000000000
     41897       337  POPE      C1            -36.6873611580      -35.2349208106      -17.8786740474  MEMB      337             0.0000000000
     41898       337  POPE      HA            -36.1106196862      -34.2887265013      -17.9587160774  MEMB      337             0.0000000000
     41899       337  POPE      HB            -36.1558639534      -36.0064197803      -18.4758517753  MEMB      337             0.0000000000
     41900       337  POPE      C2            -36.6925614669      -35.6596387266      -16.3400085559  MEMB      337             0.0000000000
     41901       337  POPE      HS            -35.7096455052      -36.1774750881      -16.3465482373  MEMB      337             0.0000000000
     41902       337  POPE      O21           -37.8246626065      -36.5200628475      -15.9373982486  MEMB      337             0.0000000000
     41903       337  POPE      C21           -37.9351300781      -37.7680605990      -16.3885621103  MEMB      337             0.0000000000
     41904       337  POPE      O22           -37.3209779142      -38.2332499620      -17.3673241222  MEMB      337             0.0000000000
     41905       337  POPE      C22           -39.0709421453      -38.5381664397      -15.6153061508  MEMB      337             0.0000000000
     41906       337  POPE      H2R           -38.4890336917      -39.2858736662      -15.0351014319  MEMB      337             0.0000000000
     41907       337  POPE      H2S           -39.6708248962      -38.9106652591      -16.4730394506  MEMB      337             0.0000000000
     41908       337  POPE      C3            -36.6634883051      -34.3543741144      -15.3573960136  MEMB      337             0.0000000000
     41909       337  POPE      HX            -35.7228942267      -33.7955501258      -15.5505780779  MEMB      337             0.0000000000
     41910       337  POPE      HY            -36.7187916901      -34.6939203492      -14.3010008666  MEMB      337             0.0000000000
     41911       337  POPE      O31           -37.8011446951      -33.5101097026      -15.6198945279  MEMB      337             0.0000000000
     41912       337  POPE      C31           -37.8723415161      -32.5338180345      -14.7611339350  MEMB      337             0.0000000000
     41913       337  POPE      O32           -37.3475196025      -32.4090908550      -13.6808707577  MEMB      337             0.0000000000
     41914       337  POPE      C32           -38.9227145040      -31.5458863842      -15.2482467758  MEMB      337             0.0000000000
     41915       337  POPE      H2X           -39.4749000395      -31.9956652139      -16.1009548869  MEMB      337             0.0000000000
     41916       337  POPE      H2Y           -38.3110782799      -30.6944611906      -15.6160748546  MEMB      337             0.0000000000
     41917       337  POPE      C23           -39.9266052804      -37.6691512993      -14.6371711524  MEMB      337             0.0000000000
     41918       337  POPE      H3R           -40.1086911206      -36.7090802434      -15.1657815090  MEMB      337             0.0000000000
     41919       337  POPE      H3S           -39.2720322664      -37.5055738750      -13.7545061983  MEMB      337             0.0000000000
     41920       337  POPE      C24           -41.2461497075      -38.4162849384      -14.3204609168  MEMB      337             0.0000000000
     41921       337  POPE      H4R           -41.1518169075      -39.4590223630      -13.9488148659  MEMB      337             0.0000000000
     41922       337  POPE      H4S           -41.8893130231      -38.5790379423      -15.2116249435  MEMB      337             0.0000000000
     41923       337  POPE      C25           -42.2736954384      -37.6360187604      -13.3978869692  MEMB      337             0.0000000000
     41924       337  POPE      H5R           -43.2075443467      -38.2373730963      -13.3729879799  MEMB      337             0.0000000000
     41925       337  POPE      H5S           -42.7191323020      -36.7784141509      -13.9459937720  MEMB      337             0.0000000000
     41926       337  POPE      C26           -41.7598841191      -37.3111549236      -12.0157074871  MEMB      337             0.0000000000
     41927       337  POPE      H6R           -40.8155437825      -36.7258843212      -12.0163298063  MEMB      337             0.0000000000
     41928       337  POPE      H6S           -41.3186168029      -38.1988465276      -11.5141025324  MEMB      337             0.0000000000
     41929       337  POPE      C27           -42.8068974096      -36.7223755215      -11.2308785952  MEMB      337             0.0000000000
     41930       337  POPE      H7R           -43.7807912699      -37.2231277577      -11.4182260478  MEMB      337             0.0000000000
     41931       337  POPE      H7S           -42.9361004156      -35.6686629076      -11.5584723176  MEMB      337             0.0000000000
     41932       337  POPE      C28           -42.5225218418      -36.8183045770       -9.7407244060  MEMB      337             0.0000000000
     41933       337  POPE      H8R           -42.4064747448      -37.8819400507       -9.4415019371  MEMB      337             0.0000000000
     41934       337  POPE      H8S           -43.4460221319      -36.5059832431       -9.2078785882  MEMB      337             0.0000000000
     41935       337  POPE      C29           -41.3791571623      -36.0049703516       -9.3184635133  MEMB      337             0.0000000000
     41936       337  POPE      H91           -41.5201154611      -35.0157508304       -9.7784370162  MEMB      337             0.0000000000
     41937       337  POPE      C210          -40.3705120989      -36.2629715973       -8.3996205670  MEMB      337             0.0000000000
     41938       337  POPE      H101          -39.8050081369      -35.4122187367       -7.9916686852  MEMB      337             0.0000000000
     41939       337  POPE      C211          -40.2217406785      -37.5462093747       -7.5596330017  MEMB      337             0.0000000000
     41940       337  POPE      H11R          -39.4263000625      -38.1909252988       -7.9908363032  MEMB      337             0.0000000000
     41941       337  POPE      H11S          -41.1281766488      -38.1884449157       -7.5747478742  MEMB      337             0.0000000000
     41942       337  POPE      C212          -39.8420744408      -37.4887763772       -6.0497408598  MEMB      337             0.0000000000
     41943       337  POPE      H12R          -39.0815776563      -36.6839102786       -5.9594288152  MEMB      337             0.0000000000
     41944       337  POPE      H12S          -39.3416180247      -38.4266402305       -5.7268232577  MEMB      337             0.0000000000
     41945       337  POPE      C213          -40.9835602742      -37.1726223470       -5.1285928607  MEMB      337             0.0000000000
     41946       337  POPE      H13R          -41.7594355771      -37.9539941207       -4.9809556576  MEMB      337             0.0000000000
     41947       337  POPE      H13S          -41.4254538240      -36.3355817109       -5.7103262012  MEMB      337             0.0000000000
     41948       337  POPE      C214          -40.5082515585      -36.6780514942       -3.7584558176  MEMB      337             0.0000000000
     41949       337  POPE      H14R          -39.7047847856      -35.9109565574       -3.7765474237  MEMB      337             0.0000000000
     41950       337  POPE      H14S          -40.2842472889      -37.4267616245       -2.9687866125  MEMB      337             0.0000000000
     41951       337  POPE      C215          -41.7321191269      -35.9766913724       -3.0437117286  MEMB      337             0.0000000000
     41952       337  POPE      H15R          -42.5804012479      -36.6705769347       -2.8613341422  MEMB      337             0.0000000000
     41953       337  POPE      H15S          -42.0557695670      -35.1978351216       -3.7668670074  MEMB      337             0.0000000000
     41954       337  POPE      C216          -41.3142686884      -35.3370640263       -1.7302057942  MEMB      337             0.0000000000
     41955       337  POPE      H16R          -40.2786257041      -34.9357148408       -1.7040652313  MEMB      337             0.0000000000
     41956       337  POPE      H16S          -41.3022943799      -36.1405898510       -0.9630520112  MEMB      337             0.0000000000
     41957       337  POPE      C217          -42.2132752138      -34.2005896189       -1.1993531680  MEMB      337             0.0000000000
     41958       337  POPE      H17R          -43.2855100937      -34.4168240742       -1.0047362443  MEMB      337             0.0000000000
     41959       337  POPE      H17S          -42.2655122008      -33.4860922644       -2.0485224217  MEMB      337             0.0000000000
     41960       337  POPE      C218          -41.6079597074      -33.5387159888        0.0793654849  MEMB      337             0.0000000000
     41961       337  POPE      H18R          -41.4754994147      -34.2933091524        0.8839549843  MEMB      337             0.0000000000
     41962       337  POPE      H18S          -42.2633633599      -32.7526903829        0.5117213304  MEMB      337             0.0000000000
     41963       337  POPE      H18T          -40.6007801432      -33.1504130032       -0.1835620992  MEMB      337             0.0000000000
     41964       337  POPE      C33           -39.8411800482      -31.0915047290      -14.1079859494  MEMB      337             0.0000000000
     41965       337  POPE      H3X           -40.6566258818      -30.4257330626      -14.4631156990  MEMB      337             0.0000000000
     41966       337  POPE      H3Y           -39.1623772168      -30.5077970884      -13.4500855128  MEMB      337             0.0000000000
     41967       337  POPE      C34           -40.5074446115      -32.2596971733      -13.3452151132  MEMB      337             0.0000000000
     41968       337  POPE      H4X           -39.9216741825      -32.4558318740      -12.4217837759  MEMB      337             0.0000000000
     41969       337  POPE      H4Y           -40.5333724976      -33.2131280316      -13.9149676636  MEMB      337             0.0000000000
     41970       337  POPE      C35           -41.9615041146      -31.9894315536      -12.9956115183  MEMB      337             0.0000000000
     41971       337  POPE      H5X           -42.3462087423      -32.8106266570      -12.3537691017  MEMB      337             0.0000000000
     41972       337  POPE      H5Y           -42.5668752358      -31.9250061496      -13.9249640902  MEMB      337             0.0000000000
     41973       337  POPE      C36           -42.1848708290      -30.6850189624      -12.1461726287  MEMB      337             0.0000000000
     41974       337  POPE      H6X           -43.2818088850      -30.5119430327      -12.1131271264  MEMB      337             0.0000000000
     41975       337  POPE      H6Y           -41.8499122295      -29.8125226048      -12.7469005522  MEMB      337             0.0000000000
     41976       337  POPE      C37           -41.4991082781      -30.6444177033      -10.7578026999  MEMB      337             0.0000000000
     41977       337  POPE      H7X           -41.6437674675      -29.6063604055      -10.3892486074  MEMB      337             0.0000000000
     41978       337  POPE      H7Y           -40.4369925784      -30.9498749259      -10.8714987631  MEMB      337             0.0000000000
     41979       337  POPE      C38           -42.3375371111      -31.4923913690       -9.7503960921  MEMB      337             0.0000000000
     41980       337  POPE      H8X           -42.4486159140      -32.5401796468      -10.1027051642  MEMB      337             0.0000000000
     41981       337  POPE      H8Y           -43.3411430207      -31.0860329640       -9.5014596096  MEMB      337             0.0000000000
     41982       337  POPE      C39           -41.6994610054      -31.4840010165       -8.3394364734  MEMB      337             0.0000000000
     41983       337  POPE      H9X           -41.7364574511      -30.4433999949       -7.9520067860  MEMB      337             0.0000000000
     41984       337  POPE      H9Y           -40.6342271439      -31.6390934128       -8.6142888676  MEMB      337             0.0000000000
     41985       337  POPE      C310          -42.2877712452      -32.4526343348       -7.4008093437  MEMB      337             0.0000000000
     41986       337  POPE      H10X          -42.4549330175      -33.3959308985       -7.9634551870  MEMB      337             0.0000000000
     41987       337  POPE      H10Y          -43.2539144358      -31.9760006420       -7.1293162143  MEMB      337             0.0000000000
     41988       337  POPE      C311          -41.5571151819      -32.7981224168       -6.1304563632  MEMB      337             0.0000000000
     41989       337  POPE      H11X          -40.7353500610      -33.4627972284       -6.4728448944  MEMB      337             0.0000000000
     41990       337  POPE      H11Y          -42.2193342187      -33.3134085107       -5.4022615151  MEMB      337             0.0000000000
     41991       337  POPE      C312          -40.8667816700      -31.6713580184       -5.3682740232  MEMB      337             0.0000000000
     41992       337  POPE      H12X          -41.5738120408      -30.9053122837       -4.9840826486  MEMB      337             0.0000000000
     41993       337  POPE      H12Y          -40.1459716968      -31.1244788329       -6.0130042592  MEMB      337             0.0000000000
     41994       337  POPE      C313          -40.1151772947      -32.2929907333       -4.2146131298  MEMB      337             0.0000000000
     41995       337  POPE      H13X          -39.6583375686      -33.2636781621       -4.5033767939  MEMB      337             0.0000000000
     41996       337  POPE      H13Y          -40.8200656007      -32.5283002947       -3.3887294308  MEMB      337             0.0000000000
     41997       337  POPE      C314          -38.9869035478      -31.4802095027       -3.5437147575  MEMB      337             0.0000000000
     41998       337  POPE      H14X          -38.2893001165      -31.1718758218       -4.3515523941  MEMB      337             0.0000000000
     41999       337  POPE      H14Y          -38.4542381553      -32.1807245653       -2.8655808265  MEMB      337             0.0000000000
     42000       337  POPE      C315          -39.3769233397      -30.2017673894       -2.7793477622  MEMB      337             0.0000000000
     42001       337  POPE      H15X          -39.6676589442      -29.3847291706       -3.4737846167  MEMB      337             0.0000000000
     42002       337  POPE      H15Y          -38.4659427846      -29.8114722200       -2.2772471533  MEMB      337             0.0000000000
     42003       337  POPE      C316          -40.4800862540      -30.2638962158       -1.7644738498  MEMB      337             0.0000000000
     42004       337  POPE      H16X          -41.4774493228      -30.1171943671       -2.2314478366  MEMB      337             0.0000000000
     42005       337  POPE      H16Y          -40.3019533979      -29.5675610272       -0.9172965190  MEMB      337             0.0000000000
     42006       337  POPE      H16Z          -40.4674230826      -31.2445966160       -1.2425650374  MEMB      337             0.0000000000
     42007       338  POPE      N             -44.8729865225      -24.6333143893      -20.5717140600  MEMB      338             0.0000000000
     42008       338  POPE      HN1           -45.2127913280      -23.8439463448      -21.1574023602  MEMB      338             0.0000000000
     42009       338  POPE      HN2           -45.1621599283      -24.5312633060      -19.5779513623  MEMB      338             0.0000000000
     42010       338  POPE      HN3           -43.8467508871      -24.7677055649      -20.6735930297  MEMB      338             0.0000000000
     42011       338  POPE      C12           -45.5287230609      -25.9792431602      -20.9688192970  MEMB      338             0.0000000000
     42012       338  POPE      H12A          -45.6215111773      -25.9691385611      -22.0758914857  MEMB      338             0.0000000000
     42013       338  POPE      H12B          -46.6102259876      -26.0266047960      -20.7189598796  MEMB      338             0.0000000000
     42014       338  POPE      C11           -44.7974729274      -27.1406221265      -20.3815276508  MEMB      338             0.0000000000
     42015       338  POPE      H11A          -43.8505736064      -27.2736864479      -20.9472101408  MEMB      338             0.0000000000
     42016       338  POPE      H11B          -45.4542770141      -27.9978509308      -20.6424647492  MEMB      338             0.0000000000
     42017       338  POPE      P             -44.4454668920      -28.1289669338      -18.0589518194  MEMB      338             0.0000000000
     42018       338  POPE      O13           -43.2051143504      -27.8216657368      -17.3208746101  MEMB      338             0.0000000000
     42019       338  POPE      O14           -44.5971293428      -29.4965376128      -18.6668454567  MEMB      338             0.0000000000
     42020       338  POPE      O11           -45.6365072035      -28.1787716937      -17.0358790802  MEMB      338             0.0000000000
     42021       338  POPE      O12           -44.7316436887      -26.9975503596      -18.9953880239  MEMB      338             0.0000000000
     42022       338  POPE      C1            -46.9323305106      -27.7374264691      -17.3822970530  MEMB      338             0.0000000000
     42023       338  POPE      HA            -47.6009133253      -28.1261239269      -16.5846552598  MEMB      338             0.0000000000
     42024       338  POPE      HB            -47.3266800425      -28.1693056325      -18.3269079370  MEMB      338             0.0000000000
     42025       338  POPE      C2            -47.0575095277      -26.1854255474      -17.3305241672  MEMB      338             0.0000000000
     42026       338  POPE      HS            -46.8055617957      -25.7459972242      -18.3193346178  MEMB      338             0.0000000000
     42027       338  POPE      O21           -46.0810414758      -25.7782268346      -16.4008200569  MEMB      338             0.0000000000
     42028       338  POPE      C21           -45.8370248793      -24.4732772886      -16.3915720399  MEMB      338             0.0000000000
     42029       338  POPE      O22           -46.1922486049      -23.6864917308      -17.2573939547  MEMB      338             0.0000000000
     42030       338  POPE      C22           -45.0397070128      -24.1143939670      -15.1516364315  MEMB      338             0.0000000000
     42031       338  POPE      H2R           -44.2418042069      -23.3606503192      -15.3235165663  MEMB      338             0.0000000000
     42032       338  POPE      H2S           -44.6244313485      -25.0815635333      -14.7960381057  MEMB      338             0.0000000000
     42033       338  POPE      C3            -48.4757503189      -25.7644394598      -16.9568251158  MEMB      338             0.0000000000
     42034       338  POPE      HX            -49.1783807955      -25.9391913520      -17.7994953707  MEMB      338             0.0000000000
     42035       338  POPE      HY            -48.4333923274      -24.6658301239      -16.7968738436  MEMB      338             0.0000000000
     42036       338  POPE      O31           -48.9391319584      -26.4510734230      -15.7661131581  MEMB      338             0.0000000000
     42037       338  POPE      C31           -49.0221913092      -25.7461967724      -14.5845789867  MEMB      338             0.0000000000
     42038       338  POPE      O32           -49.3387840599      -24.5929128856      -14.4369925219  MEMB      338             0.0000000000
     42039       338  POPE      C32           -48.8381387142      -26.7450109864      -13.3895676359  MEMB      338             0.0000000000
     42040       338  POPE      H2X           -47.9086910349      -27.3361882858      -13.5343343658  MEMB      338             0.0000000000
     42041       338  POPE      H2Y           -49.7610130719      -27.3551584122      -13.4912740480  MEMB      338             0.0000000000
     42042       338  POPE      C23           -45.8931021954      -23.6463833244      -14.0182493397  MEMB      338             0.0000000000
     42043       338  POPE      H3R           -46.5861924859      -24.4266606658      -13.6373114303  MEMB      338             0.0000000000
     42044       338  POPE      H3S           -46.5583644229      -22.8759128483      -14.4633587751  MEMB      338             0.0000000000
     42045       338  POPE      C24           -45.1416821087      -23.1169604873      -12.8071026002  MEMB      338             0.0000000000
     42046       338  POPE      H4R           -45.8608963689      -22.4783925872      -12.2509709753  MEMB      338             0.0000000000
     42047       338  POPE      H4S           -44.1900797897      -22.6025040456      -13.0603004981  MEMB      338             0.0000000000
     42048       338  POPE      C25           -44.7415704806      -24.2644344979      -11.8564691680  MEMB      338             0.0000000000
     42049       338  POPE      H5R           -45.5188162979      -25.0582501301      -11.8646382581  MEMB      338             0.0000000000
     42050       338  POPE      H5S           -44.6081706045      -23.8251656273      -10.8447538244  MEMB      338             0.0000000000
     42051       338  POPE      C26           -43.4290392907      -25.0249745081      -12.1318221521  MEMB      338             0.0000000000
     42052       338  POPE      H6R           -42.7707577697      -24.9396338036      -11.2409217334  MEMB      338             0.0000000000
     42053       338  POPE      H6S           -42.8057223451      -24.6248299874      -12.9598808004  MEMB      338             0.0000000000
     42054       338  POPE      C27           -43.6360301122      -26.4837590745      -12.4852617900  MEMB      338             0.0000000000
     42055       338  POPE      H7R           -42.9278888343      -26.6897662244      -13.3161755202  MEMB      338             0.0000000000
     42056       338  POPE      H7S           -44.6396049968      -26.6021093259      -12.9469450897  MEMB      338             0.0000000000
     42057       338  POPE      C28           -43.4692069108      -27.5337574203      -11.4216366357  MEMB      338             0.0000000000
     42058       338  POPE      H8R           -42.5289550589      -27.3194693605      -10.8699774594  MEMB      338             0.0000000000
     42059       338  POPE      H8S           -43.2344192598      -28.4929097778      -11.9307754257  MEMB      338             0.0000000000
     42060       338  POPE      C29           -44.7405056649      -27.7283004956      -10.6296329334  MEMB      338             0.0000000000
     42061       338  POPE      H91           -45.6494450773      -27.8948604704      -11.2263631474  MEMB      338             0.0000000000
     42062       338  POPE      C210          -44.9422778146      -27.8492321371       -9.3364200196  MEMB      338             0.0000000000
     42063       338  POPE      H101          -45.9639456533      -27.9070422270       -8.9328698771  MEMB      338             0.0000000000
     42064       338  POPE      C211          -43.9288413851      -27.7571265955       -8.2452503014  MEMB      338             0.0000000000
     42065       338  POPE      H11R          -42.9765324124      -28.2618214554       -8.5149006420  MEMB      338             0.0000000000
     42066       338  POPE      H11S          -44.2322165657      -28.3721299014       -7.3711471834  MEMB      338             0.0000000000
     42067       338  POPE      C212          -43.6674819051      -26.2886224800       -7.8616607206  MEMB      338             0.0000000000
     42068       338  POPE      H12R          -43.8104400526      -25.6880550547       -8.7853504139  MEMB      338             0.0000000000
     42069       338  POPE      H12S          -42.6707140003      -26.0236173989       -7.4486875497  MEMB      338             0.0000000000
     42070       338  POPE      C213          -44.7385392222      -25.8831322250       -6.8127269854  MEMB      338             0.0000000000
     42071       338  POPE      H13R          -45.7160656967      -26.1335508754       -7.2775425036  MEMB      338             0.0000000000
     42072       338  POPE      H13S          -44.6292300031      -24.7948841152       -6.6175652490  MEMB      338             0.0000000000
     42073       338  POPE      C214          -44.7123254460      -26.6200514194       -5.4873710754  MEMB      338             0.0000000000
     42074       338  POPE      H14R          -43.7124061091      -26.4494695014       -5.0341773338  MEMB      338             0.0000000000
     42075       338  POPE      H14S          -44.9119097670      -27.6871551924       -5.7235414925  MEMB      338             0.0000000000
     42076       338  POPE      C215          -45.7712360234      -26.0726719013       -4.5266624112  MEMB      338             0.0000000000
     42077       338  POPE      H15R          -46.7975062333      -26.2514881731       -4.9128162448  MEMB      338             0.0000000000
     42078       338  POPE      H15S          -45.7051469787      -24.9763501184       -4.3592341762  MEMB      338             0.0000000000
     42079       338  POPE      C216          -45.8097101370      -26.8071218284       -3.1590296939  MEMB      338             0.0000000000
     42080       338  POPE      H16R          -44.8197851194      -26.7572556836       -2.6571505407  MEMB      338             0.0000000000
     42081       338  POPE      H16S          -46.0081110999      -27.8913994873       -3.2979552507  MEMB      338             0.0000000000
     42082       338  POPE      C217          -46.8299462047      -26.1979254719       -2.1932487212  MEMB      338             0.0000000000
     42083       338  POPE      H17R          -47.5563784483      -25.6303467099       -2.8133077374  MEMB      338             0.0000000000
     42084       338  POPE      H17S          -46.2952273318      -25.4109123477       -1.6196579365  MEMB      338             0.0000000000
     42085       338  POPE      C218          -47.4966775696      -27.1835311497       -1.2385187694  MEMB      338             0.0000000000
     42086       338  POPE      H18R          -47.9106962563      -26.5368539407       -0.4355759564  MEMB      338             0.0000000000
     42087       338  POPE      H18S          -46.6734110982      -27.7120441147       -0.7119949226  MEMB      338             0.0000000000
     42088       338  POPE      H18T          -48.1286453368      -28.0439156551       -1.5462135461  MEMB      338             0.0000000000
     42089       338  POPE      C33           -48.7539975273      -25.9357757297      -12.0747109754  MEMB      338             0.0000000000
     42090       338  POPE      H3X           -49.6317630448      -25.2608123261      -11.9837562142  MEMB      338             0.0000000000
     42091       338  POPE      H3Y           -47.9337474013      -25.1890406126      -12.1371421386  MEMB      338             0.0000000000
     42092       338  POPE      C34           -48.7361418853      -26.9401312450      -10.9024624328  MEMB      338             0.0000000000
     42093       338  POPE      H4X           -47.6545629801      -27.1768062713      -10.8103052243  MEMB      338             0.0000000000
     42094       338  POPE      H4Y           -49.3865765970      -27.8257123786      -11.0667844904  MEMB      338             0.0000000000
     42095       338  POPE      C35           -49.1070072230      -26.1991330821       -9.6024634030  MEMB      338             0.0000000000
     42096       338  POPE      H5X           -50.1753244855      -25.8950027456       -9.5795638641  MEMB      338             0.0000000000
     42097       338  POPE      H5Y           -48.4937468704      -25.2747001916       -9.6629307486  MEMB      338             0.0000000000
     42098       338  POPE      C36           -48.6796415526      -26.9587141683       -8.3199567410  MEMB      338             0.0000000000
     42099       338  POPE      H6X           -49.0492008785      -26.5507639723       -7.3549054261  MEMB      338             0.0000000000
     42100       338  POPE      H6Y           -47.5965885063      -26.7319497144       -8.2204826230  MEMB      338             0.0000000000
     42101       338  POPE      C37           -48.9268248385      -28.4197076304       -8.3185575500  MEMB      338             0.0000000000
     42102       338  POPE      H7X           -48.1509901185      -28.8018999234       -9.0159314072  MEMB      338             0.0000000000
     42103       338  POPE      H7Y           -49.9245317566      -28.8128012497       -8.6090383624  MEMB      338             0.0000000000
     42104       338  POPE      C38           -48.5145491400      -29.1404459312       -6.9690604074  MEMB      338             0.0000000000
     42105       338  POPE      H8X           -49.1517716931      -28.9346250839       -6.0825462948  MEMB      338             0.0000000000
     42106       338  POPE      H8Y           -47.5369276758      -28.7637901296       -6.5993204560  MEMB      338             0.0000000000
     42107       338  POPE      C39           -48.5577327389      -30.6917464740       -6.9994024294  MEMB      338             0.0000000000
     42108       338  POPE      H9X           -49.2997154082      -31.0263713273       -7.7555827168  MEMB      338             0.0000000000
     42109       338  POPE      H9Y           -48.9890227798      -31.0515861357       -6.0408488318  MEMB      338             0.0000000000
     42110       338  POPE      C310          -47.2619147510      -31.4715253942       -7.3650873876  MEMB      338             0.0000000000
     42111       338  POPE      H10X          -47.0369540914      -31.2542397952       -8.4311548425  MEMB      338             0.0000000000
     42112       338  POPE      H10Y          -47.4366015452      -32.5678517410       -7.3217958350  MEMB      338             0.0000000000
     42113       338  POPE      C311          -46.0267287635      -31.1961389525       -6.5228532506  MEMB      338             0.0000000000
     42114       338  POPE      H11X          -45.7385925047      -30.1258175231       -6.5984219373  MEMB      338             0.0000000000
     42115       338  POPE      H11Y          -45.1959224367      -31.7755725768       -6.9792933961  MEMB      338             0.0000000000
     42116       338  POPE      C312          -46.1210794603      -31.7645424602       -5.1089840884  MEMB      338             0.0000000000
     42117       338  POPE      H12X          -46.2764384689      -32.8591028027       -5.2190854916  MEMB      338             0.0000000000
     42118       338  POPE      H12Y          -47.0495577395      -31.3888651199       -4.6282381743  MEMB      338             0.0000000000
     42119       338  POPE      C313          -44.8865823735      -31.3745884568       -4.2115397324  MEMB      338             0.0000000000
     42120       338  POPE      H13X          -45.1842397972      -30.4553887485       -3.6630936446  MEMB      338             0.0000000000
     42121       338  POPE      H13Y          -43.8912310220      -31.2761674242       -4.6951820099  MEMB      338             0.0000000000
     42122       338  POPE      C314          -44.6297391672      -32.3858247514       -3.0829330099  MEMB      338             0.0000000000
     42123       338  POPE      H14X          -43.9965296597      -31.8767444062       -2.3251706209  MEMB      338             0.0000000000
     42124       338  POPE      H14Y          -44.3802196082      -33.3967300137       -3.4704015246  MEMB      338             0.0000000000
     42125       338  POPE      C315          -45.8857522342      -32.5043530727       -2.1389584293  MEMB      338             0.0000000000
     42126       338  POPE      H15X          -46.6985864548      -32.9962470002       -2.7148604569  MEMB      338             0.0000000000
     42127       338  POPE      H15Y          -46.2355738624      -31.4651665810       -1.9599698121  MEMB      338             0.0000000000
     42128       338  POPE      C316          -45.6091947390      -33.2075375567       -0.7962475956  MEMB      338             0.0000000000
     42129       338  POPE      H16X          -44.6994887208      -32.8225639703       -0.2877670857  MEMB      338             0.0000000000
     42130       338  POPE      H16Y          -45.4784675729      -34.2926222338       -0.9958038954  MEMB      338             0.0000000000
     42131       338  POPE      H16Z          -46.5151173250      -32.9590812916       -0.2030385450  MEMB      338             0.0000000000
     42132       339  PMPE      N             -40.8563869622       30.2085002420      -20.2182897361  MEMB      339             0.0000000000
     42133       339  PMPE      HN1           -39.9294641480       30.6576974204      -20.0746381828  MEMB      339             0.0000000000
     42134       339  PMPE      HN2           -40.8390830611       29.3286931761      -19.6639969781  MEMB      339             0.0000000000
     42135       339  PMPE      HN3           -41.0284366060       29.9928468064      -21.2210322345  MEMB      339             0.0000000000
     42136       339  PMPE      C12           -41.9955078737       31.0182088931      -19.6650271777  MEMB      339             0.0000000000
     42137       339  PMPE      H12A          -42.2171599100       30.6174475747      -18.6528108854  MEMB      339             0.0000000000
     42138       339  PMPE      H12B          -42.8906289920       30.8708938798      -20.3064144079  MEMB      339             0.0000000000
     42139       339  PMPE      C11           -41.6872569838       32.4900532796      -19.5053354178  MEMB      339             0.0000000000
     42140       339  PMPE      H11A          -42.5687743463       32.9577643879      -19.0169764953  MEMB      339             0.0000000000
     42141       339  PMPE      H11B          -41.4750827184       32.9513076102      -20.4935395502  MEMB      339             0.0000000000
     42142       339  PMPE      P             -40.0875396481       34.2657283450      -18.5272707191  MEMB      339             0.0000000000
     42143       339  PMPE      O13           -39.4092896166       34.5397589863      -19.8066183947  MEMB      339             0.0000000000
     42144       339  PMPE      O14           -39.2666523521       34.3913670122      -17.3020327911  MEMB      339             0.0000000000
     42145       339  PMPE      O11           -41.2990152349       35.2689158473      -18.3417445019  MEMB      339             0.0000000000
     42146       339  PMPE      O12           -40.5848465340       32.7359481830      -18.6336812330  MEMB      339             0.0000000000
     42147       339  PMPE      C1            -42.2050251710       35.0553218736      -17.2983725128  MEMB      339             0.0000000000
     42148       339  PMPE      HA            -42.2112520491       34.0109687974      -16.9194149459  MEMB      339             0.0000000000
     42149       339  PMPE      HB            -43.1998960369       35.2529318505      -17.7516971921  MEMB      339             0.0000000000
     42150       339  PMPE      C2            -42.1597717717       36.0757637551      -16.1782929679  MEMB      339             0.0000000000
     42151       339  PMPE      HS            -42.5388822014       37.0714698201      -16.4931990183  MEMB      339             0.0000000000
     42152       339  PMPE      O21           -40.7415256345       36.1118454643      -15.7747894296  MEMB      339             0.0000000000
     42153       339  PMPE      C21           -40.3651661225       36.9485611292      -14.8196368216  MEMB      339             0.0000000000
     42154       339  PMPE      O22           -41.0442900726       37.7503980497      -14.1858278917  MEMB      339             0.0000000000
     42155       339  PMPE      C22           -38.8490789894       36.7970449233      -14.6139074750  MEMB      339             0.0000000000
     42156       339  PMPE      H2R           -38.3355739324       37.7450223759      -14.8821841215  MEMB      339             0.0000000000
     42157       339  PMPE      H2S           -38.4730685284       36.0812692114      -15.3758802638  MEMB      339             0.0000000000
     42158       339  PMPE      C3            -43.0694289056       35.6987673814      -14.9366099366  MEMB      339             0.0000000000
     42159       339  PMPE      HX            -44.1001556342       35.7183111570      -15.3507853595  MEMB      339             0.0000000000
     42160       339  PMPE      HY            -42.9562447119       36.4216749441      -14.1005986325  MEMB      339             0.0000000000
     42161       339  PMPE      O31           -42.7538993249       34.3791437675      -14.5246020326  MEMB      339             0.0000000000
     42162       339  PMPE      C31           -43.6596133382       33.3785688477      -14.5169111920  MEMB      339             0.0000000000
     42163       339  PMPE      O32           -44.8126071907       33.4375592369      -14.9274187801  MEMB      339             0.0000000000
     42164       339  PMPE      C32           -43.1751269813       32.1262663801      -13.7697768299  MEMB      339             0.0000000000
     42165       339  PMPE      H2X           -43.9324534892       31.3293174491      -13.9299326155  MEMB      339             0.0000000000
     42166       339  PMPE      H2Y           -43.1481584940       32.2279869969      -12.6637721607  MEMB      339             0.0000000000
     42167       339  PMPE      C23           -38.5415514538       36.3348540571      -13.1657081380  MEMB      339             0.0000000000
     42168       339  PMPE      H3R           -37.9277862311       35.4205069760      -13.3126195705  MEMB      339             0.0000000000
     42169       339  PMPE      H3S           -39.4328622278       36.0573598529      -12.5633103226  MEMB      339             0.0000000000
     42170       339  PMPE      C24           -37.6197409453       37.3329899442      -12.3673436370  MEMB      339             0.0000000000
     42171       339  PMPE      H4R           -36.6592349592       37.4793086026      -12.9061753020  MEMB      339             0.0000000000
     42172       339  PMPE      H4S           -37.3714101345       36.8171956508      -11.4151830420  MEMB      339             0.0000000000
     42173       339  PMPE      C25           -38.2493067097       38.6306147634      -11.8822858238  MEMB      339             0.0000000000
     42174       339  PMPE      H5R           -38.5075101274       39.0474786824      -12.8792194123  MEMB      339             0.0000000000
     42175       339  PMPE      H5S           -37.4532571978       39.2342426024      -11.3962199334  MEMB      339             0.0000000000
     42176       339  PMPE      C26           -39.5478105993       38.4576552751      -10.9791371224  MEMB      339             0.0000000000
     42177       339  PMPE      H6R           -40.2425010253       37.6697067545      -11.3408868704  MEMB      339             0.0000000000
     42178       339  PMPE      H6S           -40.0232486597       39.4577533044      -11.0690456166  MEMB      339             0.0000000000
     42179       339  PMPE      C27           -39.1986564771       38.2240178587       -9.4971253155  MEMB      339             0.0000000000
     42180       339  PMPE      H7R           -38.7573927686       39.1630916701       -9.0999504514  MEMB      339             0.0000000000
     42181       339  PMPE      H7S           -38.4164614687       37.4387031143       -9.5731039963  MEMB      339             0.0000000000
     42182       339  PMPE      C28           -40.2836693294       37.6338663766       -8.6640760969  MEMB      339             0.0000000000
     42183       339  PMPE      H8R           -41.1287274007       38.3551131711       -8.6650795886  MEMB      339             0.0000000000
     42184       339  PMPE      H8S           -39.8888046020       37.6626499821       -7.6260133010  MEMB      339             0.0000000000
     42185       339  PMPE      C29           -40.8772948577       36.2771824627       -9.1073325661  MEMB      339             0.0000000000
     42186       339  PMPE      H9R           -40.1478706062       35.5652813132       -9.5494396712  MEMB      339             0.0000000000
     42187       339  PMPE      C217          -42.0414446116       36.5107165645      -10.0567402824  MEMB      339             0.0000000000
     42188       339  PMPE      H17R          -42.0628057738       35.9101877229      -10.9577384652  MEMB      339             0.0000000000
     42189       339  PMPE      H17S          -42.5419189780       37.4695894615      -10.0021739279  MEMB      339             0.0000000000
     42190       339  PMPE      C210          -42.2571746722       35.7295544544       -8.8291884715  MEMB      339             0.0000000000
     42191       339  PMPE      H10R          -42.3484322156       34.6242942964       -8.8954711188  MEMB      339             0.0000000000
     42192       339  PMPE      C211          -43.0189743252       36.3399786674       -7.7488810102  MEMB      339             0.0000000000
     42193       339  PMPE      H11R          -43.9710743030       35.7981668637       -7.5637689508  MEMB      339             0.0000000000
     42194       339  PMPE      H11S          -43.2696146385       37.3853547769       -8.0293967340  MEMB      339             0.0000000000
     42195       339  PMPE      C212          -42.3878236063       36.3974638149       -6.3529794035  MEMB      339             0.0000000000
     42196       339  PMPE      H12R          -41.5505593338       37.1247507300       -6.2869230572  MEMB      339             0.0000000000
     42197       339  PMPE      H12S          -41.9460802601       35.4042603715       -6.1233475153  MEMB      339             0.0000000000
     42198       339  PMPE      C213          -43.4905654230       36.6480985841       -5.3231099375  MEMB      339             0.0000000000
     42199       339  PMPE      H13R          -44.1827822311       35.7792578086       -5.3066049240  MEMB      339             0.0000000000
     42200       339  PMPE      H13S          -44.0529120869       37.5481967588       -5.6516074712  MEMB      339             0.0000000000
     42201       339  PMPE      C214          -42.8932545323       37.0112612883       -3.9312559896  MEMB      339             0.0000000000
     42202       339  PMPE      H14R          -42.2402389307       36.1607532308       -3.6405195195  MEMB      339             0.0000000000
     42203       339  PMPE      H14S          -43.7332579320       37.1399524153       -3.2156072441  MEMB      339             0.0000000000
     42204       339  PMPE      C215          -41.9252679202       38.2578855062       -3.8276155124  MEMB      339             0.0000000000
     42205       339  PMPE      H15R          -42.5742016988       39.0965128213       -4.1591427231  MEMB      339             0.0000000000
     42206       339  PMPE      H15S          -40.9412664484       38.1255756252       -4.3261698822  MEMB      339             0.0000000000
     42207       339  PMPE      C216          -41.6175584365       38.5338315699       -2.3520622256  MEMB      339             0.0000000000
     42208       339  PMPE      H16R          -42.5813085193       38.5031712710       -1.8001852763  MEMB      339             0.0000000000
     42209       339  PMPE      H16S          -40.9520647827       37.7579387391       -1.9168266428  MEMB      339             0.0000000000
     42210       339  PMPE      H16T          -41.1251421851       39.5256819313       -2.2621718638  MEMB      339             0.0000000000
     42211       339  PMPE      C33           -41.8064589236       31.6706985817      -14.2650051196  MEMB      339             0.0000000000
     42212       339  PMPE      H3X           -41.7490367978       31.5509329029      -15.3680372514  MEMB      339             0.0000000000
     42213       339  PMPE      H3Y           -41.6238203933       30.6341579162      -13.9092692810  MEMB      339             0.0000000000
     42214       339  PMPE      C34           -40.6527024165       32.4341946102      -13.7340306428  MEMB      339             0.0000000000
     42215       339  PMPE      H4X           -40.9066896558       32.6762681115      -12.6798905297  MEMB      339             0.0000000000
     42216       339  PMPE      H4Y           -40.6005271449       33.3782023650      -14.3175099086  MEMB      339             0.0000000000
     42217       339  PMPE      C35           -39.3299344720       31.6848671986      -13.9388441939  MEMB      339             0.0000000000
     42218       339  PMPE      H5X           -39.3018737872       31.3744138213      -15.0052174904  MEMB      339             0.0000000000
     42219       339  PMPE      H5Y           -39.2741986380       30.7071810578      -13.4141115741  MEMB      339             0.0000000000
     42220       339  PMPE      C36           -38.1764379389       32.6017676713      -13.5470912738  MEMB      339             0.0000000000
     42221       339  PMPE      H6X           -38.3243873912       33.6157792803      -13.9762910384  MEMB      339             0.0000000000
     42222       339  PMPE      H6Y           -37.2515017383       32.1757467156      -13.9912990835  MEMB      339             0.0000000000
     42223       339  PMPE      C37           -38.1794740311       32.7691018617      -11.9777557505  MEMB      339             0.0000000000
     42224       339  PMPE      H7X           -38.4257710511       31.8325071414      -11.4332844064  MEMB      339             0.0000000000
     42225       339  PMPE      H7Y           -38.8749480179       33.5908392732      -11.7031933064  MEMB      339             0.0000000000
     42226       339  PMPE      C38           -36.7637891818       33.0225980202      -11.3861741824  MEMB      339             0.0000000000
     42227       339  PMPE      H8X           -36.2599290078       33.6236300726      -12.1730706669  MEMB      339             0.0000000000
     42228       339  PMPE      H8Y           -36.2954989923       32.0170206249      -11.3242092555  MEMB      339             0.0000000000
     42229       339  PMPE      C39           -36.7505704174       33.6185813869       -9.9859014558  MEMB      339             0.0000000000
     42230       339  PMPE      H9X           -36.8587191581       34.7169725307      -10.1130303079  MEMB      339             0.0000000000
     42231       339  PMPE      H9Y           -35.7174864268       33.4681986196       -9.6058437146  MEMB      339             0.0000000000
     42232       339  PMPE      C310          -37.8795844328       33.1410334993       -9.1107676246  MEMB      339             0.0000000000
     42233       339  PMPE      H10X          -37.8666886091       32.0424364665       -8.9457245602  MEMB      339             0.0000000000
     42234       339  PMPE      H10Y          -38.9238962008       33.3806569638       -9.4045604167  MEMB      339             0.0000000000
     42235       339  PMPE      C311          -37.7113459410       33.6497537042       -7.6796224120  MEMB      339             0.0000000000
     42236       339  PMPE      H11X          -37.5112840420       34.7422970056       -7.7050248589  MEMB      339             0.0000000000
     42237       339  PMPE      H11Y          -36.8936223644       33.1922198569       -7.0827045412  MEMB      339             0.0000000000
     42238       339  PMPE      C312          -38.9063888756       33.4737854415       -6.8410125017  MEMB      339             0.0000000000
     42239       339  PMPE      H12X          -39.1659919652       32.3963965262       -6.7625240943  MEMB      339             0.0000000000
     42240       339  PMPE      H12Y          -39.8312359017       33.7974927275       -7.3646466073  MEMB      339             0.0000000000
     42241       339  PMPE      C313          -38.7676115671       33.8926934414       -5.2814975065  MEMB      339             0.0000000000
     42242       339  PMPE      H13X          -37.8136363114       33.4119016069       -4.9763882773  MEMB      339             0.0000000000
     42243       339  PMPE      H13Y          -39.5955210307       33.4237553851       -4.7079258906  MEMB      339             0.0000000000
     42244       339  PMPE      C314          -38.8721341645       35.4139013279       -5.2489572316  MEMB      339             0.0000000000
     42245       339  PMPE      H14X          -39.6593605592       35.8765883520       -5.8818207545  MEMB      339             0.0000000000
     42246       339  PMPE      H14Y          -37.8518346838       35.7761408507       -5.4981407179  MEMB      339             0.0000000000
     42247       339  PMPE      C315          -38.8542388039       36.0450512223       -3.7890150031  MEMB      339             0.0000000000
     42248       339  PMPE      H15X          -39.7181664233       35.7837236240       -3.1412041259  MEMB      339             0.0000000000
     42249       339  PMPE      H15Y          -38.8791663387       37.1267897736       -4.0410888289  MEMB      339             0.0000000000
     42250       339  PMPE      C316          -37.6184122803       35.7832712924       -2.9038629411  MEMB      339             0.0000000000
     42251       339  PMPE      H16X          -36.7048887709       36.2706845692       -3.3066333993  MEMB      339             0.0000000000
     42252       339  PMPE      H16Y          -37.4144421882       34.7004347001       -2.7617996457  MEMB      339             0.0000000000
     42253       339  PMPE      H16Z          -37.8638789166       36.2810721171       -1.9414386517  MEMB      339             0.0000000000
     42254       340  PMPE      N              21.8812468724       47.2826649667      -20.1863073376  MEMB      340             0.0000000000
     42255       340  PMPE      HN1            21.4841506865       47.5893415964      -19.2753386494  MEMB      340             0.0000000000
     42256       340  PMPE      HN2            21.1399165391       47.4192094690      -20.9028161550  MEMB      340             0.0000000000
     42257       340  PMPE      HN3            22.1842721167       46.2942817407      -20.0728421719  MEMB      340             0.0000000000
     42258       340  PMPE      C12            23.1336350550       48.1557100600      -20.3717370181  MEMB      340             0.0000000000
     42259       340  PMPE      H12A           22.6663494291       49.1578887354      -20.2640192032  MEMB      340             0.0000000000
     42260       340  PMPE      H12B           23.4666701342       47.9100325723      -21.4027808353  MEMB      340             0.0000000000
     42261       340  PMPE      C11            24.2271428596       47.8773955711      -19.3703467440  MEMB      340             0.0000000000
     42262       340  PMPE      H11A           23.7343138226       48.0785976457      -18.3951758918  MEMB      340             0.0000000000
     42263       340  PMPE      H11B           24.9830024744       48.6525940494      -19.6194746148  MEMB      340             0.0000000000
     42264       340  PMPE      P              25.6269003007       45.9795144176      -18.4214235829  MEMB      340             0.0000000000
     42265       340  PMPE      O13            26.9637278002       46.4764505850      -18.7395608227  MEMB      340             0.0000000000
     42266       340  PMPE      O14            25.4955901765       44.5282252661      -18.3387357046  MEMB      340             0.0000000000
     42267       340  PMPE      O11            25.1774797807       46.6836735768      -17.0485135272  MEMB      340             0.0000000000
     42268       340  PMPE      O12            24.6787275560       46.5622727588      -19.5233752619  MEMB      340             0.0000000000
     42269       340  PMPE      C1             23.9882154460       46.2072772957      -16.4598727579  MEMB      340             0.0000000000
     42270       340  PMPE      HA             24.0129901491       45.1265748405      -16.2033783534  MEMB      340             0.0000000000
     42271       340  PMPE      HB             23.0775269661       46.4433980489      -17.0508165507  MEMB      340             0.0000000000
     42272       340  PMPE      C2             23.8606123828       46.9832632379      -15.1187304121  MEMB      340             0.0000000000
     42273       340  PMPE      HS             23.7533617893       48.0811172546      -15.2511493731  MEMB      340             0.0000000000
     42274       340  PMPE      O21            25.0932050766       46.7648395967      -14.3648577641  MEMB      340             0.0000000000
     42275       340  PMPE      C21            25.4067103600       47.7683698722      -13.5982977620  MEMB      340             0.0000000000
     42276       340  PMPE      O22            24.7117612577       48.7021658333      -13.2568312615  MEMB      340             0.0000000000
     42277       340  PMPE      C22            26.8851006037       47.5710440962      -13.2327379013  MEMB      340             0.0000000000
     42278       340  PMPE      H2R            27.2941102417       48.5912900207      -13.0710884357  MEMB      340             0.0000000000
     42279       340  PMPE      H2S            27.4505480594       46.9707149826      -13.9771805847  MEMB      340             0.0000000000
     42280       340  PMPE      C3             22.6131425844       46.5511119548      -14.2984758379  MEMB      340             0.0000000000
     42281       340  PMPE      HX             22.7307189794       45.4768311087      -14.0407600681  MEMB      340             0.0000000000
     42282       340  PMPE      HY             21.7604162616       46.7842473773      -14.9713995920  MEMB      340             0.0000000000
     42283       340  PMPE      O31            22.3563295337       47.3447142567      -13.1545297008  MEMB      340             0.0000000000
     42284       340  PMPE      C31            21.9342086352       46.7743139041      -12.0080649117  MEMB      340             0.0000000000
     42285       340  PMPE      O32            21.7341444608       45.6155631941      -11.8665166306  MEMB      340             0.0000000000
     42286       340  PMPE      C32            21.4729174623       47.8014981752      -10.9410793059  MEMB      340             0.0000000000
     42287       340  PMPE      H2X            21.5343737316       47.4248265638       -9.8976895817  MEMB      340             0.0000000000
     42288       340  PMPE      H2Y            20.3918664833       47.9458139751      -11.1527941467  MEMB      340             0.0000000000
     42289       340  PMPE      C23            27.0672394630       46.8524741401      -11.8318535789  MEMB      340             0.0000000000
     42290       340  PMPE      H3R            26.7698698776       47.5864565353      -11.0526477843  MEMB      340             0.0000000000
     42291       340  PMPE      H3S            28.1307405801       46.5830028432      -11.6567211802  MEMB      340             0.0000000000
     42292       340  PMPE      C24            26.2643276938       45.4781362492      -11.7727739265  MEMB      340             0.0000000000
     42293       340  PMPE      H4R            26.7391128141       44.8378745137      -12.5467022041  MEMB      340             0.0000000000
     42294       340  PMPE      H4S            25.1812995209       45.4998890778      -12.0195484837  MEMB      340             0.0000000000
     42295       340  PMPE      C25            26.3783784348       44.7279941199      -10.4101976629  MEMB      340             0.0000000000
     42296       340  PMPE      H5R            27.4194286656       44.8533300626      -10.0430110642  MEMB      340             0.0000000000
     42297       340  PMPE      H5S            26.0187462619       43.6768340820      -10.4032501931  MEMB      340             0.0000000000
     42298       340  PMPE      C26            25.6027612184       45.4030168779       -9.2978878716  MEMB      340             0.0000000000
     42299       340  PMPE      H6R            24.5024483757       45.2554051249       -9.3408234320  MEMB      340             0.0000000000
     42300       340  PMPE      H6S            25.7863565262       46.4984577622       -9.3228488764  MEMB      340             0.0000000000
     42301       340  PMPE      C27            25.8389435369       44.7757674369       -7.9312555251  MEMB      340             0.0000000000
     42302       340  PMPE      H7R            26.8049199206       45.2666774457       -7.6858623001  MEMB      340             0.0000000000
     42303       340  PMPE      H7S            25.8514483686       43.6659975931       -7.9820044883  MEMB      340             0.0000000000
     42304       340  PMPE      C28            24.8306992345       45.1073675690       -6.8523514343  MEMB      340             0.0000000000
     42305       340  PMPE      H8R            23.8621518558       44.6722430519       -7.1793125134  MEMB      340             0.0000000000
     42306       340  PMPE      H8S            24.7320467251       46.2113939448       -6.7767577458  MEMB      340             0.0000000000
     42307       340  PMPE      C29            25.3562237582       44.5638722097       -5.5383775909  MEMB      340             0.0000000000
     42308       340  PMPE      H9R            26.3922749246       44.8467633287       -5.2539636936  MEMB      340             0.0000000000
     42309       340  PMPE      C217           24.6817398611       43.2464795074       -5.0810954660  MEMB      340             0.0000000000
     42310       340  PMPE      H17R           25.3273968739       42.5489298264       -4.5620181539  MEMB      340             0.0000000000
     42311       340  PMPE      H17S           23.8842511347       43.0914341082       -5.7972386140  MEMB      340             0.0000000000
     42312       340  PMPE      C210           24.5337377615       44.5245815989       -4.2927968087  MEMB      340             0.0000000000
     42313       340  PMPE      H10R           25.1207704087       44.5263461796       -3.3495521319  MEMB      340             0.0000000000
     42314       340  PMPE      C211           23.1042369745       45.1055429422       -4.3394319937  MEMB      340             0.0000000000
     42315       340  PMPE      H11R           22.4979143471       44.3094526993       -4.8220638976  MEMB      340             0.0000000000
     42316       340  PMPE      H11S           23.0405948141       45.8883375479       -5.1252449618  MEMB      340             0.0000000000
     42317       340  PMPE      C212           22.4975693409       45.5032736483       -2.9571808614  MEMB      340             0.0000000000
     42318       340  PMPE      H12R           22.8261227972       44.6532056130       -2.3217612169  MEMB      340             0.0000000000
     42319       340  PMPE      H12S           21.3942201706       45.5996834322       -3.0446258940  MEMB      340             0.0000000000
     42320       340  PMPE      C213           22.9544329848       46.8848590194       -2.3175833697  MEMB      340             0.0000000000
     42321       340  PMPE      H13R           24.0651611639       46.9091096841       -2.3215820340  MEMB      340             0.0000000000
     42322       340  PMPE      H13S           22.8017997306       46.7695979054       -1.2231709110  MEMB      340             0.0000000000
     42323       340  PMPE      C214           22.5042864624       48.1863057822       -2.9633182392  MEMB      340             0.0000000000
     42324       340  PMPE      H14R           21.4121956693       47.9892367201       -3.0164451405  MEMB      340             0.0000000000
     42325       340  PMPE      H14S           23.0036520629       48.2253796293       -3.9549982800  MEMB      340             0.0000000000
     42326       340  PMPE      C215           22.9973037114       49.4739378366       -2.2704543170  MEMB      340             0.0000000000
     42327       340  PMPE      H15R           22.9988741460       50.2824442076       -3.0324490721  MEMB      340             0.0000000000
     42328       340  PMPE      H15S           23.9994887405       49.4430630438       -1.7919217917  MEMB      340             0.0000000000
     42329       340  PMPE      C216           22.1323895620       50.0867358410       -1.0878869333  MEMB      340             0.0000000000
     42330       340  PMPE      H16R           22.3083999907       49.4592260543       -0.1881232231  MEMB      340             0.0000000000
     42331       340  PMPE      H16S           22.5699319017       51.0513821466       -0.7527221775  MEMB      340             0.0000000000
     42332       340  PMPE      H16T           21.0433728766       50.1715830286       -1.2907770309  MEMB      340             0.0000000000
     42333       340  PMPE      C33            22.2828262763       49.0957740819      -10.9871059065  MEMB      340             0.0000000000
     42334       340  PMPE      H3X            21.6640654918       49.8915869886      -10.5200537209  MEMB      340             0.0000000000
     42335       340  PMPE      H3Y            22.3953487409       49.3475513441      -12.0633343184  MEMB      340             0.0000000000
     42336       340  PMPE      C34            23.6754775798       49.0976749750      -10.2969020847  MEMB      340             0.0000000000
     42337       340  PMPE      H4X            24.2265313980       48.3131590191      -10.8583252382  MEMB      340             0.0000000000
     42338       340  PMPE      H4Y            23.6837937845       48.7079474516       -9.2565350553  MEMB      340             0.0000000000
     42339       340  PMPE      C35            24.3750706217       50.4447671806      -10.4672044796  MEMB      340             0.0000000000
     42340       340  PMPE      H5X            23.7924590651       51.2570335578       -9.9823247826  MEMB      340             0.0000000000
     42341       340  PMPE      H5Y            24.3967418765       50.6706304569      -11.5547878009  MEMB      340             0.0000000000
     42342       340  PMPE      C36            25.7895677670       50.5242437879       -9.9358079476  MEMB      340             0.0000000000
     42343       340  PMPE      H6X            26.2898988467       51.4928157327      -10.1499527635  MEMB      340             0.0000000000
     42344       340  PMPE      H6Y            26.3748181910       49.8519102089      -10.5989599719  MEMB      340             0.0000000000
     42345       340  PMPE      C37            25.9520563819       50.2043046751       -8.4319891483  MEMB      340             0.0000000000
     42346       340  PMPE      H7X            25.1537367031       49.5297277511       -8.0552237117  MEMB      340             0.0000000000
     42347       340  PMPE      H7Y            25.9125870176       51.1498561684       -7.8500128684  MEMB      340             0.0000000000
     42348       340  PMPE      C38            27.3228818548       49.5469099139       -8.2046487443  MEMB      340             0.0000000000
     42349       340  PMPE      H8X            27.9572433948       50.1581539641       -8.8816174417  MEMB      340             0.0000000000
     42350       340  PMPE      H8Y            27.4221185782       48.5281090441       -8.6365258387  MEMB      340             0.0000000000
     42351       340  PMPE      C39            27.8486440141       49.6805385854       -6.8020676347  MEMB      340             0.0000000000
     42352       340  PMPE      H9X            27.7517731052       50.7162638358       -6.4119264579  MEMB      340             0.0000000000
     42353       340  PMPE      H9Y            28.8884955717       49.3443752041       -6.6020077321  MEMB      340             0.0000000000
     42354       340  PMPE      C310           27.0640046954       48.8216545465       -5.7519950508  MEMB      340             0.0000000000
     42355       340  PMPE      H10X           27.2529745851       47.7764024940       -6.0776629195  MEMB      340             0.0000000000
     42356       340  PMPE      H10Y           25.9731269353       49.0306462830       -5.7269091232  MEMB      340             0.0000000000
     42357       340  PMPE      C311           27.5942342781       48.8643995441       -4.2469211119  MEMB      340             0.0000000000
     42358       340  PMPE      H11X           27.8232606941       49.9302751370       -4.0329640334  MEMB      340             0.0000000000
     42359       340  PMPE      H11Y           28.5355387809       48.2763855015       -4.2969847174  MEMB      340             0.0000000000
     42360       340  PMPE      C312           26.7157090836       48.2430168436       -3.2666608338  MEMB      340             0.0000000000
     42361       340  PMPE      H12X           26.5306474517       47.1762440108       -3.5157971083  MEMB      340             0.0000000000
     42362       340  PMPE      H12Y           25.6950117121       48.6775779111       -3.3271157853  MEMB      340             0.0000000000
     42363       340  PMPE      C313           27.1663106128       48.1840909072       -1.8468136287  MEMB      340             0.0000000000
     42364       340  PMPE      H13X           26.4278495624       47.9133579309       -1.0621478782  MEMB      340             0.0000000000
     42365       340  PMPE      H13Y           27.2845530124       49.2180319459       -1.4578327465  MEMB      340             0.0000000000
     42366       340  PMPE      C314           28.3345651567       47.2576948380       -1.5647061561  MEMB      340             0.0000000000
     42367       340  PMPE      H14X           28.8389006490       47.0244553884       -2.5267701515  MEMB      340             0.0000000000
     42368       340  PMPE      H14Y           27.9902238869       46.3953389908       -0.9547135296  MEMB      340             0.0000000000
     42369       340  PMPE      C315           29.5254134584       47.8860816219       -0.8821499050  MEMB      340             0.0000000000
     42370       340  PMPE      H15X           29.7844974352       48.7810706534       -1.4872875987  MEMB      340             0.0000000000
     42371       340  PMPE      H15Y           30.4820501985       47.3219959502       -0.8509349538  MEMB      340             0.0000000000
     42372       340  PMPE      C316           29.2487324584       48.2778014676        0.5631150984  MEMB      340             0.0000000000
     42373       340  PMPE      H16X           29.0602243561       49.3584428990        0.7391829706  MEMB      340             0.0000000000
     42374       340  PMPE      H16Y           30.1289418398       47.9464002092        1.1544908641  MEMB      340             0.0000000000
     42375       340  PMPE      H16Z           28.3158694769       47.8163847164        0.9519349958  MEMB      340             0.0000000000
     42376       341  PMPE      N              -8.4407861612       52.3810929976      -19.2199125468  MEMB      341             0.0000000000
     42377       341  PMPE      HN1            -8.1094918443       51.7346301919      -18.4756477256  MEMB      341             0.0000000000
     42378       341  PMPE      HN2            -7.6530018395       52.7827574327      -19.7673256194  MEMB      341             0.0000000000
     42379       341  PMPE      HN3            -8.8654682651       53.2779956627      -18.9087683775  MEMB      341             0.0000000000
     42380       341  PMPE      C12            -9.1982776314       51.6772072100      -20.2487846273  MEMB      341             0.0000000000
     42381       341  PMPE      H12A           -9.1130683653       50.5873526983      -20.0505985912  MEMB      341             0.0000000000
     42382       341  PMPE      H12B           -8.7525810869       51.9422505804      -21.2313462271  MEMB      341             0.0000000000
     42383       341  PMPE      C11           -10.7219587405       51.7421916998      -20.1002650729  MEMB      341             0.0000000000
     42384       341  PMPE      H11A          -11.1124105776       51.0698329253      -20.8938656913  MEMB      341             0.0000000000
     42385       341  PMPE      H11B          -11.1815723284       52.7064187610      -20.4057852474  MEMB      341             0.0000000000
     42386       341  PMPE      P             -12.9117645074       51.3970122197      -18.5608134258  MEMB      341             0.0000000000
     42387       341  PMPE      O13           -13.6634820605       50.1342783284      -18.8114985768  MEMB      341             0.0000000000
     42388       341  PMPE      O14           -13.4737998704       52.6339388854      -19.1023622991  MEMB      341             0.0000000000
     42389       341  PMPE      O11           -12.8042608268       51.6096178306      -17.0556473667  MEMB      341             0.0000000000
     42390       341  PMPE      O12           -11.3646958034       51.2939064256      -18.9007160881  MEMB      341             0.0000000000
     42391       341  PMPE      C1            -12.2456515938       52.7101839767      -16.4232621291  MEMB      341             0.0000000000
     42392       341  PMPE      HA            -12.9827406397       53.3022085418      -15.8397144710  MEMB      341             0.0000000000
     42393       341  PMPE      HB            -11.8912001716       53.4534537500      -17.1690739173  MEMB      341             0.0000000000
     42394       341  PMPE      C2            -11.0668121795       52.2591785773      -15.5248614699  MEMB      341             0.0000000000
     42395       341  PMPE      HS            -10.1962378157       51.8263760690      -16.0625446362  MEMB      341             0.0000000000
     42396       341  PMPE      O21           -11.5878876476       51.3096157859      -14.6298888753  MEMB      341             0.0000000000
     42397       341  PMPE      C21           -11.2185420091       50.0336494561      -14.7473328052  MEMB      341             0.0000000000
     42398       341  PMPE      O22           -10.2694520622       49.5683366057      -15.3637917200  MEMB      341             0.0000000000
     42399       341  PMPE      C22           -12.1140722955       49.3363683971      -13.7825391136  MEMB      341             0.0000000000
     42400       341  PMPE      H2R           -12.4538478431       48.3283461669      -14.1031088477  MEMB      341             0.0000000000
     42401       341  PMPE      H2S           -13.0621198112       49.8543497350      -13.5232666827  MEMB      341             0.0000000000
     42402       341  PMPE      C3            -10.4399717632       53.4193375815      -14.7055313697  MEMB      341             0.0000000000
     42403       341  PMPE      HX            -11.3147332602       53.8670997538      -14.1872432934  MEMB      341             0.0000000000
     42404       341  PMPE      HY             -9.9780881104       54.1497645864      -15.4037153635  MEMB      341             0.0000000000
     42405       341  PMPE      O31            -9.4572757618       52.9301204193      -13.7819136701  MEMB      341             0.0000000000
     42406       341  PMPE      C31            -9.7822439408       53.1428494444      -12.5057367464  MEMB      341             0.0000000000
     42407       341  PMPE      O32           -10.9172565089       53.1969829598      -12.0139207468  MEMB      341             0.0000000000
     42408       341  PMPE      C32            -8.4224366015       53.3034811884      -11.7882685165  MEMB      341             0.0000000000
     42409       341  PMPE      H2X            -7.7358247434       54.0267888051      -12.2778718384  MEMB      341             0.0000000000
     42410       341  PMPE      H2Y            -7.9644546952       52.2979174039      -11.6724451366  MEMB      341             0.0000000000
     42411       341  PMPE      C23           -11.4728080361       49.1846753545      -12.3734403689  MEMB      341             0.0000000000
     42412       341  PMPE      H3R           -10.8037279920       50.0241912175      -12.0873181121  MEMB      341             0.0000000000
     42413       341  PMPE      H3S           -10.8380195729       48.2731260535      -12.3944773378  MEMB      341             0.0000000000
     42414       341  PMPE      C24           -12.4773499592       49.1187540200      -11.2508465027  MEMB      341             0.0000000000
     42415       341  PMPE      H4R           -13.2187452216       48.3166552473      -11.4540498028  MEMB      341             0.0000000000
     42416       341  PMPE      H4S           -13.0445005107       50.0724326647      -11.3070451425  MEMB      341             0.0000000000
     42417       341  PMPE      C25           -11.8251017004       48.8907806794       -9.8776908770  MEMB      341             0.0000000000
     42418       341  PMPE      H5R           -11.2351474918       47.9494400897       -9.8900667641  MEMB      341             0.0000000000
     42419       341  PMPE      H5S           -12.6287707166       48.7879721762       -9.1175146156  MEMB      341             0.0000000000
     42420       341  PMPE      C26           -11.0590669242       50.1047165365       -9.2364308790  MEMB      341             0.0000000000
     42421       341  PMPE      H6R           -10.1844421906       50.1655469293       -9.9188188507  MEMB      341             0.0000000000
     42422       341  PMPE      H6S           -10.5566166602       49.8305557021       -8.2842225527  MEMB      341             0.0000000000
     42423       341  PMPE      C27           -11.7708604993       51.4357307350       -9.2387269254  MEMB      341             0.0000000000
     42424       341  PMPE      H7R           -12.1506257246       51.7291650283      -10.2407232979  MEMB      341             0.0000000000
     42425       341  PMPE      H7S           -10.9322343725       52.0469859991       -8.8419979807  MEMB      341             0.0000000000
     42426       341  PMPE      C28           -12.9165354702       51.6248276026       -8.1763750837  MEMB      341             0.0000000000
     42427       341  PMPE      H8R           -13.8748308476       51.4091716246       -8.6954929186  MEMB      341             0.0000000000
     42428       341  PMPE      H8S           -12.7655395350       52.6997062739       -7.9394007103  MEMB      341             0.0000000000
     42429       341  PMPE      C29           -12.6436616178       50.7117903567       -6.9282765004  MEMB      341             0.0000000000
     42430       341  PMPE      H9R           -11.5770671339       50.5219558373       -6.6819842186  MEMB      341             0.0000000000
     42431       341  PMPE      C217          -13.4618468981       49.5171806319       -6.5290728999  MEMB      341             0.0000000000
     42432       341  PMPE      H17R          -12.8590453756       48.8161229682       -5.9651251614  MEMB      341             0.0000000000
     42433       341  PMPE      H17S          -14.4423269346       49.2273510978       -6.8862101846  MEMB      341             0.0000000000
     42434       341  PMPE      C210          -13.5907192694       50.8267517347       -5.7652032378  MEMB      341             0.0000000000
     42435       341  PMPE      H10R          -13.2251923996       50.6463227142       -4.7316867310  MEMB      341             0.0000000000
     42436       341  PMPE      C211          -15.0233442967       51.5061479596       -5.8173170399  MEMB      341             0.0000000000
     42437       341  PMPE      H11R          -15.7075251123       50.7871776426       -5.3180189781  MEMB      341             0.0000000000
     42438       341  PMPE      H11S          -15.3768238734       51.5696687045       -6.8686680906  MEMB      341             0.0000000000
     42439       341  PMPE      C212          -15.0541165492       52.9258346512       -5.3837621156  MEMB      341             0.0000000000
     42440       341  PMPE      H12R          -14.4432269125       53.5311977445       -6.0870904266  MEMB      341             0.0000000000
     42441       341  PMPE      H12S          -14.5898731492       53.0749300631       -4.3854787699  MEMB      341             0.0000000000
     42442       341  PMPE      C213          -16.5024329362       53.3956422837       -5.1608270278  MEMB      341             0.0000000000
     42443       341  PMPE      H13R          -16.8769283090       52.8513658260       -4.2676090847  MEMB      341             0.0000000000
     42444       341  PMPE      H13S          -17.0784452654       53.0786481451       -6.0563964453  MEMB      341             0.0000000000
     42445       341  PMPE      C214          -16.7723126861       54.9159506585       -4.9097459432  MEMB      341             0.0000000000
     42446       341  PMPE      H14R          -17.8159855443       55.2432304538       -5.1045688321  MEMB      341             0.0000000000
     42447       341  PMPE      H14S          -16.1272922009       55.4484494828       -5.6409879070  MEMB      341             0.0000000000
     42448       341  PMPE      C215          -16.4569723429       55.3901070095       -3.4744601394  MEMB      341             0.0000000000
     42449       341  PMPE      H15R          -16.6313028657       56.4800657854       -3.3482872281  MEMB      341             0.0000000000
     42450       341  PMPE      H15S          -15.3561298535       55.2645445693       -3.3926006557  MEMB      341             0.0000000000
     42451       341  PMPE      C216          -17.1812847404       54.5949106395       -2.4047052012  MEMB      341             0.0000000000
     42452       341  PMPE      H16R          -16.7792926611       53.5593635057       -2.4238113854  MEMB      341             0.0000000000
     42453       341  PMPE      H16S          -16.9948255271       55.1259501882       -1.4468165055  MEMB      341             0.0000000000
     42454       341  PMPE      H16T          -18.2636978898       54.5662814777       -2.6534674605  MEMB      341             0.0000000000
     42455       341  PMPE      C33            -8.7691205893       53.6115721957      -10.3597618923  MEMB      341             0.0000000000
     42456       341  PMPE      H3X            -9.0172756977       52.7008471770       -9.7738267346  MEMB      341             0.0000000000
     42457       341  PMPE      H3Y            -9.6112561178       54.3035544812      -10.1446125303  MEMB      341             0.0000000000
     42458       341  PMPE      C34            -7.4520183495       54.0222145548       -9.6426361232  MEMB      341             0.0000000000
     42459       341  PMPE      H4X            -6.9884318684       54.8839540279      -10.1687668758  MEMB      341             0.0000000000
     42460       341  PMPE      H4Y            -6.6921499068       53.2152205921       -9.7180125656  MEMB      341             0.0000000000
     42461       341  PMPE      C35            -7.8413593584       54.2374856549       -8.1724871250  MEMB      341             0.0000000000
     42462       341  PMPE      H5X            -6.9255798902       54.3441185931       -7.5525691680  MEMB      341             0.0000000000
     42463       341  PMPE      H5Y            -8.4644503609       53.4749883883       -7.6580197276  MEMB      341             0.0000000000
     42464       341  PMPE      C36            -8.7384690018       55.4945506316       -8.0261785074  MEMB      341             0.0000000000
     42465       341  PMPE      H6X            -9.8101396691       55.3533631039       -8.2829059669  MEMB      341             0.0000000000
     42466       341  PMPE      H6Y            -8.2754561917       56.3450730360       -8.5707450407  MEMB      341             0.0000000000
     42467       341  PMPE      C37            -8.7730274226       55.9317294906       -6.5555072298  MEMB      341             0.0000000000
     42468       341  PMPE      H7X            -9.1874112167       56.9591292756       -6.4715008334  MEMB      341             0.0000000000
     42469       341  PMPE      H7Y            -7.7135994546       56.0174672012       -6.2321150500  MEMB      341             0.0000000000
     42470       341  PMPE      C38            -9.5877161243       55.0396692762       -5.6710515968  MEMB      341             0.0000000000
     42471       341  PMPE      H8X            -9.1916969976       54.0122715063       -5.8191841180  MEMB      341             0.0000000000
     42472       341  PMPE      H8Y           -10.6514832479       54.9971183692       -5.9887146580  MEMB      341             0.0000000000
     42473       341  PMPE      C39            -9.5396328447       55.5010113449       -4.1953074564  MEMB      341             0.0000000000
     42474       341  PMPE      H9X           -10.2647573508       54.8339892644       -3.6818912893  MEMB      341             0.0000000000
     42475       341  PMPE      H9Y            -9.8159989124       56.5759285634       -4.1453470002  MEMB      341             0.0000000000
     42476       341  PMPE      C310           -8.1537098836       55.3848785611       -3.5752439163  MEMB      341             0.0000000000
     42477       341  PMPE      H10X           -8.3439605566       55.7435565272       -2.5410897231  MEMB      341             0.0000000000
     42478       341  PMPE      H10Y           -7.3676254553       56.0313664891       -4.0207164826  MEMB      341             0.0000000000
     42479       341  PMPE      C311           -7.6781817538       53.9360950299       -3.3813747545  MEMB      341             0.0000000000
     42480       341  PMPE      H11X           -6.8401388546       53.6750024345       -4.0624294936  MEMB      341             0.0000000000
     42481       341  PMPE      H11Y           -8.5276245035       53.2321503494       -3.5126380249  MEMB      341             0.0000000000
     42482       341  PMPE      C312           -7.0336051524       53.7204477085       -1.9652558097  MEMB      341             0.0000000000
     42483       341  PMPE      H12X           -7.7412691638       54.3332155631       -1.3668851904  MEMB      341             0.0000000000
     42484       341  PMPE      H12Y           -6.0771679568       54.2835446193       -2.0149615410  MEMB      341             0.0000000000
     42485       341  PMPE      C313           -6.9088387307       52.2876681772       -1.5549428140  MEMB      341             0.0000000000
     42486       341  PMPE      H13X           -6.5687492464       52.2149089873       -0.4997821990  MEMB      341             0.0000000000
     42487       341  PMPE      H13Y           -6.0492193164       51.8082210252       -2.0702148507  MEMB      341             0.0000000000
     42488       341  PMPE      C314           -8.1101011767       51.2371240095       -1.8066206471  MEMB      341             0.0000000000
     42489       341  PMPE      H14X           -7.6949140843       50.2375795462       -1.5559178710  MEMB      341             0.0000000000
     42490       341  PMPE      H14Y           -8.3511921605       51.2111450683       -2.8908360811  MEMB      341             0.0000000000
     42491       341  PMPE      C315           -9.4210757943       51.5168778057       -0.9445288695  MEMB      341             0.0000000000
     42492       341  PMPE      H15X          -10.2264474909       50.7892415466       -1.1816840747  MEMB      341             0.0000000000
     42493       341  PMPE      H15Y           -9.7258586145       52.5614052384       -1.1690085120  MEMB      341             0.0000000000
     42494       341  PMPE      C316           -9.1605822297       51.4509435887        0.5620233406  MEMB      341             0.0000000000
     42495       341  PMPE      H16X           -9.9965893162       51.6049327979        1.2773564590  MEMB      341             0.0000000000
     42496       341  PMPE      H16Y           -8.4611425236       52.2486252727        0.8918866991  MEMB      341             0.0000000000
     42497       341  PMPE      H16Z           -8.7073435088       50.4856269090        0.8735675803  MEMB      341             0.0000000000
     42498       342  PMPE      N              -4.0189829153       49.7420056795      -19.2853560637  MEMB      342             0.0000000000
     42499       342  PMPE      HN1            -4.3334862787       48.9053921826      -18.7535985814  MEMB      342             0.0000000000
     42500       342  PMPE      HN2            -4.7469939262       49.8224337564      -20.0236862051  MEMB      342             0.0000000000
     42501       342  PMPE      HN3            -3.0880543072       49.7616886884      -19.7485886326  MEMB      342             0.0000000000
     42502       342  PMPE      C12            -4.2233383165       50.8940802061      -18.3199403281  MEMB      342             0.0000000000
     42503       342  PMPE      H12A           -3.6508673802       50.6176183713      -17.4088053900  MEMB      342             0.0000000000
     42504       342  PMPE      H12B           -5.3197971650       50.9704151156      -18.1578545522  MEMB      342             0.0000000000
     42505       342  PMPE      C11            -3.7738098901       52.3296816148      -18.8257657400  MEMB      342             0.0000000000
     42506       342  PMPE      H11A           -4.0216693701       53.0850512422      -18.0496837307  MEMB      342             0.0000000000
     42507       342  PMPE      H11B           -4.2618488786       52.5733490763      -19.7936320843  MEMB      342             0.0000000000
     42508       342  PMPE      P              -1.6005043513       53.7667099426      -19.1632885845  MEMB      342             0.0000000000
     42509       342  PMPE      O13            -2.2593889890       54.5703813245      -20.1771835411  MEMB      342             0.0000000000
     42510       342  PMPE      O14            -0.2289766057       53.4143046810      -19.4356048520  MEMB      342             0.0000000000
     42511       342  PMPE      O11            -1.6522496070       54.4670966501      -17.7675313097  MEMB      342             0.0000000000
     42512       342  PMPE      O12            -2.3798325184       52.4032673443      -19.0253295841  MEMB      342             0.0000000000
     42513       342  PMPE      C1             -1.7708937818       53.7436007998      -16.5654056428  MEMB      342             0.0000000000
     42514       342  PMPE      HA             -1.4306666650       52.6902202229      -16.6600409104  MEMB      342             0.0000000000
     42515       342  PMPE      HB             -2.8233813576       53.6190047142      -16.2321387990  MEMB      342             0.0000000000
     42516       342  PMPE      C2             -1.0546741990       54.3126219233      -15.2848488428  MEMB      342             0.0000000000
     42517       342  PMPE      HS             -1.3445059784       55.3849158323      -15.2623899931  MEMB      342             0.0000000000
     42518       342  PMPE      O21             0.3328575079       54.1975596110      -15.4879422153  MEMB      342             0.0000000000
     42519       342  PMPE      C21             1.2035481044       54.9639220533      -14.7204442748  MEMB      342             0.0000000000
     42520       342  PMPE      O22             0.7392034890       55.8038016582      -13.9342127983  MEMB      342             0.0000000000
     42521       342  PMPE      C22             2.6568826928       54.5012859986      -14.8800870405  MEMB      342             0.0000000000
     42522       342  PMPE      H2R             3.2157069258       55.0104558030      -15.6942018638  MEMB      342             0.0000000000
     42523       342  PMPE      H2S             2.7597088908       53.4355475512      -15.1766490333  MEMB      342             0.0000000000
     42524       342  PMPE      C3             -1.4365859066       53.4645512987      -14.0338068934  MEMB      342             0.0000000000
     42525       342  PMPE      HX             -2.5388679818       53.3691325926      -13.9328587605  MEMB      342             0.0000000000
     42526       342  PMPE      HY             -1.0719125605       54.0570522441      -13.1676217840  MEMB      342             0.0000000000
     42527       342  PMPE      O31            -0.6810346293       52.2577295512      -13.9300189967  MEMB      342             0.0000000000
     42528       342  PMPE      C31            -1.2869435520       51.1014724040      -14.1478213173  MEMB      342             0.0000000000
     42529       342  PMPE      O32            -2.4095394958       50.9319080793      -14.5972085664  MEMB      342             0.0000000000
     42530       342  PMPE      C32            -0.3121543696       49.9757197504      -13.8809105418  MEMB      342             0.0000000000
     42531       342  PMPE      H2X             0.1179010339       49.7162601174      -14.8718968849  MEMB      342             0.0000000000
     42532       342  PMPE      H2Y            -0.8762910236       49.0726551063      -13.5638217354  MEMB      342             0.0000000000
     42533       342  PMPE      C23             3.3092413219       54.4989616335      -13.4749350578  MEMB      342             0.0000000000
     42534       342  PMPE      H3R             3.1675863230       55.5215930473      -13.0644717416  MEMB      342             0.0000000000
     42535       342  PMPE      H3S             4.3874061065       54.3673812379      -13.7085342668  MEMB      342             0.0000000000
     42536       342  PMPE      C24             2.9206025802       53.3511833277      -12.6040685250  MEMB      342             0.0000000000
     42537       342  PMPE      H4R             2.9635967847       52.3530219827      -13.0900177276  MEMB      342             0.0000000000
     42538       342  PMPE      H4S             1.8718429010       53.5951040726      -12.3303408000  MEMB      342             0.0000000000
     42539       342  PMPE      C25             3.8007981483       53.2736009382      -11.3992604571  MEMB      342             0.0000000000
     42540       342  PMPE      H5R             4.7076400181       53.8699517949      -11.6365882252  MEMB      342             0.0000000000
     42541       342  PMPE      H5S             4.0739075873       52.1966990216      -11.4031117484  MEMB      342             0.0000000000
     42542       342  PMPE      C26             3.2067822176       53.6424879081      -10.0829732461  MEMB      342             0.0000000000
     42543       342  PMPE      H6R             3.8651932498       53.4045887201       -9.2202912349  MEMB      342             0.0000000000
     42544       342  PMPE      H6S             2.3230864868       52.9753014968       -9.9920610336  MEMB      342             0.0000000000
     42545       342  PMPE      C27             2.8162631411       55.1177560748       -9.9276683616  MEMB      342             0.0000000000
     42546       342  PMPE      H7R             2.3988012480       55.5525137523      -10.8609592701  MEMB      342             0.0000000000
     42547       342  PMPE      H7S             3.7247675272       55.7381226966       -9.7724708901  MEMB      342             0.0000000000
     42548       342  PMPE      C28             1.9463416261       55.3905575966       -8.6956573550  MEMB      342             0.0000000000
     42549       342  PMPE      H8R             1.8153650075       56.4837453191       -8.5469751617  MEMB      342             0.0000000000
     42550       342  PMPE      H8S             2.3479991472       54.9132406504       -7.7763314803  MEMB      342             0.0000000000
     42551       342  PMPE      C29             0.5719912504       54.7694843656       -8.9466953182  MEMB      342             0.0000000000
     42552       342  PMPE      H9R             0.5694849616       53.6914804869       -9.2154378177  MEMB      342             0.0000000000
     42553       342  PMPE      C217           -0.5376317890       55.6721284102       -9.6236843482  MEMB      342             0.0000000000
     42554       342  PMPE      H17R           -1.1520896398       55.0652326326      -10.2771433895  MEMB      342             0.0000000000
     42555       342  PMPE      H17S           -0.5051163078       56.7539339614       -9.6627772359  MEMB      342             0.0000000000
     42556       342  PMPE      C210           -0.6469498924       55.2004196670       -8.1360471012  MEMB      342             0.0000000000
     42557       342  PMPE      H10R           -1.4548156693       54.4656592378       -7.9315943023  MEMB      342             0.0000000000
     42558       342  PMPE      C211           -0.7477451161       56.3897898213       -7.0715472613  MEMB      342             0.0000000000
     42559       342  PMPE      H11R           -1.8113800982       56.6168295141       -6.8447118952  MEMB      342             0.0000000000
     42560       342  PMPE      H11S           -0.3211449967       57.3426548389       -7.4515224637  MEMB      342             0.0000000000
     42561       342  PMPE      C212            0.0491310532       55.9685081833       -5.8094219033  MEMB      342             0.0000000000
     42562       342  PMPE      H12R            1.0998689673       56.1470436132       -6.1231033661  MEMB      342             0.0000000000
     42563       342  PMPE      H12S           -0.0335191138       54.8861273722       -5.5729022719  MEMB      342             0.0000000000
     42564       342  PMPE      C213           -0.4201785857       56.7061296940       -4.5240292213  MEMB      342             0.0000000000
     42565       342  PMPE      H13R           -0.3278661289       57.8090719686       -4.6205593730  MEMB      342             0.0000000000
     42566       342  PMPE      H13S            0.3116232855       56.4310398863       -3.7346541254  MEMB      342             0.0000000000
     42567       342  PMPE      C214           -1.7775668700       56.1497037892       -3.9683010685  MEMB      342             0.0000000000
     42568       342  PMPE      H14R           -2.0733316813       55.3240861917       -4.6503561906  MEMB      342             0.0000000000
     42569       342  PMPE      H14S           -2.5734580747       56.9119957412       -4.1089745221  MEMB      342             0.0000000000
     42570       342  PMPE      C215           -1.6185080674       55.5394003403       -2.6069781636  MEMB      342             0.0000000000
     42571       342  PMPE      H15R           -1.0023789360       54.6160972945       -2.6540656257  MEMB      342             0.0000000000
     42572       342  PMPE      H15S           -2.5806275833       55.1213071904       -2.2411297715  MEMB      342             0.0000000000
     42573       342  PMPE      C216           -1.1679129560       56.6235359699       -1.5759916592  MEMB      342             0.0000000000
     42574       342  PMPE      H16R           -0.0680903165       56.7806845342       -1.5799098805  MEMB      342             0.0000000000
     42575       342  PMPE      H16S           -1.6867614965       57.5934925036       -1.7318824387  MEMB      342             0.0000000000
     42576       342  PMPE      H16T           -1.2874630138       56.2523657260       -0.5356749579  MEMB      342             0.0000000000
     42577       342  PMPE      C33             0.8925398839       50.2935094014      -12.9652321465  MEMB      342             0.0000000000
     42578       342  PMPE      H3X             1.4493870419       51.1661999368      -13.3685353082  MEMB      342             0.0000000000
     42579       342  PMPE      H3Y             1.6362466848       49.4745884704      -13.0681363369  MEMB      342             0.0000000000
     42580       342  PMPE      C34             0.5329391366       50.3048806565      -11.4067658170  MEMB      342             0.0000000000
     42581       342  PMPE      H4X            -0.1673176951       49.4423830380      -11.3990637764  MEMB      342             0.0000000000
     42582       342  PMPE      H4Y             0.0705997685       51.2457420098      -11.0388754560  MEMB      342             0.0000000000
     42583       342  PMPE      C35             1.6449061918       49.8679360582      -10.5101781419  MEMB      342             0.0000000000
     42584       342  PMPE      H5X             2.5015017107       50.5153879862      -10.7954343999  MEMB      342             0.0000000000
     42585       342  PMPE      H5Y             1.8112856782       48.8769106274      -10.9839997480  MEMB      342             0.0000000000
     42586       342  PMPE      C36             1.3578169735       49.7437823116       -8.9963668077  MEMB      342             0.0000000000
     42587       342  PMPE      H6X             2.2525181662       49.2354263625       -8.5775524643  MEMB      342             0.0000000000
     42588       342  PMPE      H6Y             0.4961433148       49.0796240984       -8.7711257224  MEMB      342             0.0000000000
     42589       342  PMPE      C37             1.3694556915       51.0384915320       -8.2189052525  MEMB      342             0.0000000000
     42590       342  PMPE      H7X             0.3721721675       51.5048813140       -8.3679932764  MEMB      342             0.0000000000
     42591       342  PMPE      H7Y             2.1210382502       51.7728004647       -8.5797864823  MEMB      342             0.0000000000
     42592       342  PMPE      C38             1.6406942162       50.7767695307       -6.7560825641  MEMB      342             0.0000000000
     42593       342  PMPE      H8X             2.2961526479       49.8797780079       -6.7460210818  MEMB      342             0.0000000000
     42594       342  PMPE      H8Y             0.7145252599       50.5093029579       -6.2038202054  MEMB      342             0.0000000000
     42595       342  PMPE      C39             2.2370551197       51.9300063392       -5.9413225859  MEMB      342             0.0000000000
     42596       342  PMPE      H9X             1.5526133738       52.8027949349       -6.0053596344  MEMB      342             0.0000000000
     42597       342  PMPE      H9Y             3.1386476272       52.3243803437       -6.4569978323  MEMB      342             0.0000000000
     42598       342  PMPE      C310            2.5567810644       51.6614307762       -4.4567567746  MEMB      342             0.0000000000
     42599       342  PMPE      H10X            3.4506236645       51.0230938240       -4.2897468067  MEMB      342             0.0000000000
     42600       342  PMPE      H10Y            1.7268075245       51.0751845712       -4.0075571414  MEMB      342             0.0000000000
     42601       342  PMPE      C311            2.8539757794       52.9861406899       -3.6901833898  MEMB      342             0.0000000000
     42602       342  PMPE      H11X            1.9679810472       53.6343834092       -3.8608164244  MEMB      342             0.0000000000
     42603       342  PMPE      H11Y            3.7126544352       53.5274728114       -4.1417929541  MEMB      342             0.0000000000
     42604       342  PMPE      C312            3.0132159849       52.9863846951       -2.1814860820  MEMB      342             0.0000000000
     42605       342  PMPE      H12X            3.1535087912       54.0444798049       -1.8731452675  MEMB      342             0.0000000000
     42606       342  PMPE      H12Y            3.8912531974       52.4026802724       -1.8312566486  MEMB      342             0.0000000000
     42607       342  PMPE      C313            1.8469334914       52.4741020160       -1.3535035487  MEMB      342             0.0000000000
     42608       342  PMPE      H13X            1.5696297877       51.4413811995       -1.6550205752  MEMB      342             0.0000000000
     42609       342  PMPE      H13Y            1.0288506737       53.1820422618       -1.6062542905  MEMB      342             0.0000000000
     42610       342  PMPE      C314            2.0307297760       52.5159013486        0.1561140637  MEMB      342             0.0000000000
     42611       342  PMPE      H14X            2.5617129743       53.4647510783        0.3842862351  MEMB      342             0.0000000000
     42612       342  PMPE      H14Y            2.7198027466       51.6921463771        0.4405917241  MEMB      342             0.0000000000
     42613       342  PMPE      C315            0.7248329890       52.3988573206        0.9360004332  MEMB      342             0.0000000000
     42614       342  PMPE      H15X            0.1193874052       53.1412338797        0.3732981273  MEMB      342             0.0000000000
     42615       342  PMPE      H15Y            0.7551023265       52.6106002558        2.0262152857  MEMB      342             0.0000000000
     42616       342  PMPE      C316           -0.1233315233       51.1326849169        0.8267063013  MEMB      342             0.0000000000
     42617       342  PMPE      H16X           -1.0956180326       51.1132826871        1.3639253921  MEMB      342             0.0000000000
     42618       342  PMPE      H16Y            0.4793195280       50.2862613950        1.2200254169  MEMB      342             0.0000000000
     42619       342  PMPE      H16Z           -0.3811934236       51.1296714766       -0.2539498936  MEMB      342             0.0000000000
     42620       343  QMPE      N             -47.0359167116      -20.2122315754      -21.0709837629  MEMB      343             0.0000000000
     42621       343  QMPE      HN1           -46.7072468001      -21.0959380944      -21.5098902696  MEMB      343             0.0000000000
     42622       343  QMPE      HN2           -46.6357859404      -19.3763746586      -21.5430420205  MEMB      343             0.0000000000
     42623       343  QMPE      HN3           -46.8819868648      -20.2434224228      -20.0429115499  MEMB      343             0.0000000000
     42624       343  QMPE      C12           -48.5698781029      -20.2004160024      -21.1489240889  MEMB      343             0.0000000000
     42625       343  QMPE      H12A          -48.8291223572      -20.2645083744      -22.2273515319  MEMB      343             0.0000000000
     42626       343  QMPE      H12B          -48.9676104567      -19.2265663239      -20.7915072666  MEMB      343             0.0000000000
     42627       343  QMPE      C11           -49.2077942491      -21.3866225416      -20.3502768250  MEMB      343             0.0000000000
     42628       343  QMPE      H11A          -48.9136410758      -22.4328002659      -20.5811603626  MEMB      343             0.0000000000
     42629       343  QMPE      H11B          -50.2936199954      -21.3460562528      -20.5819184421  MEMB      343             0.0000000000
     42630       343  QMPE      P             -50.0077509181      -20.6852982783      -17.8496148760  MEMB      343             0.0000000000
     42631       343  QMPE      O13           -51.2841800503      -20.3113083632      -18.4974219002  MEMB      343             0.0000000000
     42632       343  QMPE      O14           -49.2893303434      -19.5900824125      -17.1461111831  MEMB      343             0.0000000000
     42633       343  QMPE      O11           -50.0848675539      -21.9579835788      -16.9786823994  MEMB      343             0.0000000000
     42634       343  QMPE      O12           -48.9765676197      -21.1242509070      -18.9579849676  MEMB      343             0.0000000000
     42635       343  QMPE      C1            -49.2078878326      -22.6348360660      -16.1866348382  MEMB      343             0.0000000000
     42636       343  QMPE      HA            -48.1538496872      -22.3980035986      -16.4459320487  MEMB      343             0.0000000000
     42637       343  QMPE      HB            -49.4267152500      -23.6952033568      -16.4357470262  MEMB      343             0.0000000000
     42638       343  QMPE      C2            -49.4341056984      -22.2409769664      -14.6779439463  MEMB      343             0.0000000000
     42639       343  QMPE      HS            -48.9025493783      -22.9760733068      -14.0365375023  MEMB      343             0.0000000000
     42640       343  QMPE      O21           -50.8318399912      -22.2449227075      -14.2918482726  MEMB      343             0.0000000000
     42641       343  QMPE      C21           -51.2551060921      -23.4055582117      -13.9097001999  MEMB      343             0.0000000000
     42642       343  QMPE      O22           -50.6461426929      -24.4631944843      -13.9956338183  MEMB      343             0.0000000000
     42643       343  QMPE      C22           -52.7485378114      -23.2157637255      -13.5274008251  MEMB      343             0.0000000000
     42644       343  QMPE      H2R           -53.2924946972      -23.2724594924      -14.4944672459  MEMB      343             0.0000000000
     42645       343  QMPE      H2S           -52.9821637207      -22.2265192239      -13.0789197615  MEMB      343             0.0000000000
     42646       343  QMPE      C3            -48.7884284630      -20.8075607741      -14.3969322498  MEMB      343             0.0000000000
     42647       343  QMPE      HX            -49.4194529987      -20.0627191125      -14.9273469543  MEMB      343             0.0000000000
     42648       343  QMPE      HY            -47.7241026317      -20.8249238182      -14.7150988397  MEMB      343             0.0000000000
     42649       343  QMPE      O31           -48.8052498577      -20.5635704942      -12.9863894817  MEMB      343             0.0000000000
     42650       343  QMPE      C31           -47.9587669077      -19.6586128760      -12.6505307863  MEMB      343             0.0000000000
     42651       343  QMPE      O32           -47.4350064624      -18.8927375183      -13.4776409361  MEMB      343             0.0000000000
     42652       343  QMPE      C32           -47.5377736314      -19.7952538595      -11.1078585089  MEMB      343             0.0000000000
     42653       343  QMPE      H2X           -47.7327822246      -20.8072879148      -10.6930332287  MEMB      343             0.0000000000
     42654       343  QMPE      H2Y           -46.4679002033      -19.5333221194      -10.9626557933  MEMB      343             0.0000000000
     42655       343  QMPE      C23           -53.2409097067      -24.4334458959      -12.6711618619  MEMB      343             0.0000000000
     42656       343  QMPE      H3R           -53.0386449199      -25.4263019757      -13.1268445679  MEMB      343             0.0000000000
     42657       343  QMPE      H3S           -54.3462120048      -24.3322687439      -12.6222632593  MEMB      343             0.0000000000
     42658       343  QMPE      C24           -52.8921784133      -24.2522174117      -11.1781223952  MEMB      343             0.0000000000
     42659       343  QMPE      H4R           -53.4714634010      -24.9624591254      -10.5501837473  MEMB      343             0.0000000000
     42660       343  QMPE      H4S           -53.1819822629      -23.2646130361      -10.7598256253  MEMB      343             0.0000000000
     42661       343  QMPE      C25           -51.4241106084      -24.3207165344      -10.7506945029  MEMB      343             0.0000000000
     42662       343  QMPE      H5R           -51.0911838049      -23.2736154836      -10.9151939781  MEMB      343             0.0000000000
     42663       343  QMPE      H5S           -50.9985853259      -25.1540313089      -11.3497235461  MEMB      343             0.0000000000
     42664       343  QMPE      C26           -51.2234096919      -24.7632730040       -9.3037661986  MEMB      343             0.0000000000
     42665       343  QMPE      H6R           -51.6924696277      -25.7684394207       -9.2409615765  MEMB      343             0.0000000000
     42666       343  QMPE      H6S           -51.9038341188      -24.1282040797       -8.6971102987  MEMB      343             0.0000000000
     42667       343  QMPE      C27           -49.7596800448      -24.9025686051       -8.8142802487  MEMB      343             0.0000000000
     42668       343  QMPE      H7R           -49.2317985836      -23.9593377484       -9.0711414916  MEMB      343             0.0000000000
     42669       343  QMPE      H7S           -49.2968608975      -25.7748156966       -9.3234995527  MEMB      343             0.0000000000
     42670       343  QMPE      C28           -49.4612138796      -24.9891301714       -7.3111735586  MEMB      343             0.0000000000
     42671       343  QMPE      H8R           -49.8168582562      -25.9524294812       -6.8870367532  MEMB      343             0.0000000000
     42672       343  QMPE      H8S           -50.0355105620      -24.1455491177       -6.8719978238  MEMB      343             0.0000000000
     42673       343  QMPE      C29           -47.9377244062      -24.6434941321       -7.1492329306  MEMB      343             0.0000000000
     42674       343  QMPE      H9R           -47.5642261655      -23.6638448911       -7.5168020228  MEMB      343             0.0000000000
     42675       343  QMPE      C217          -47.0847810853      -25.7943733353       -7.5510696697  MEMB      343             0.0000000000
     42676       343  QMPE      H17R          -47.7649045071      -26.6297575937       -7.6626686250  MEMB      343             0.0000000000
     42677       343  QMPE      H17S          -46.2405141861      -25.5519993100       -8.1845970378  MEMB      343             0.0000000000
     42678       343  QMPE      C210          -47.1044257766      -25.2746519008       -6.1164985099  MEMB      343             0.0000000000
     42679       343  QMPE      H10R          -46.2391497133      -24.6606811407       -5.7868643502  MEMB      343             0.0000000000
     42680       343  QMPE      C211          -47.5541602959      -26.3408894730       -5.0795287919  MEMB      343             0.0000000000
     42681       343  QMPE      H11R          -48.2315049738      -27.0560040251       -5.5934708011  MEMB      343             0.0000000000
     42682       343  QMPE      H11S          -46.7089684295      -26.8492562036       -4.5681241196  MEMB      343             0.0000000000
     42683       343  QMPE      C212          -48.4956511477      -25.6542723512       -4.0551329989  MEMB      343             0.0000000000
     42684       343  QMPE      H12R          -49.2362319997      -25.0393380218       -4.6098556835  MEMB      343             0.0000000000
     42685       343  QMPE      H12S          -48.0004789492      -24.9385329332       -3.3645953680  MEMB      343             0.0000000000
     42686       343  QMPE      C213          -49.3932480972      -26.6670110868       -3.3079789178  MEMB      343             0.0000000000
     42687       343  QMPE      H13R          -48.8148456112      -27.0438243648       -2.4374722022  MEMB      343             0.0000000000
     42688       343  QMPE      H13S          -49.6768369072      -27.5614263410       -3.9028909817  MEMB      343             0.0000000000
     42689       343  QMPE      C214          -50.6804065572      -26.0851262523       -2.7687977087  MEMB      343             0.0000000000
     42690       343  QMPE      H14R          -51.4061458757      -25.7109766263       -3.5222139193  MEMB      343             0.0000000000
     42691       343  QMPE      H14S          -50.4688251031      -25.0944826162       -2.3125312908  MEMB      343             0.0000000000
     42692       343  QMPE      C215          -51.3700333041      -27.0469536334       -1.7018530241  MEMB      343             0.0000000000
     42693       343  QMPE      H15R          -50.6672635749      -27.1467977521       -0.8471799531  MEMB      343             0.0000000000
     42694       343  QMPE      H15S          -51.5288910115      -28.0317117311       -2.1910735446  MEMB      343             0.0000000000
     42695       343  QMPE      C216          -52.7722159143      -26.4842022492       -1.3169032203  MEMB      343             0.0000000000
     42696       343  QMPE      H16R          -53.4477087152      -26.4837914486       -2.1989632210  MEMB      343             0.0000000000
     42697       343  QMPE      H16S          -52.7345508584      -25.4752932317       -0.8532160795  MEMB      343             0.0000000000
     42698       343  QMPE      H16T          -53.0709820925      -27.1022833309       -0.4433830838  MEMB      343             0.0000000000
     42699       343  QMPE      C33           -48.3297691110      -18.7489233211      -10.2832103740  MEMB      343             0.0000000000
     42700       343  QMPE      H3X           -49.2462784059      -19.2601167595       -9.9185019071  MEMB      343             0.0000000000
     42701       343  QMPE      H3Y           -48.5813991626      -17.9113412707      -10.9683820912  MEMB      343             0.0000000000
     42702       343  QMPE      C34           -47.4645910390      -18.2811079983       -9.0742670695  MEMB      343             0.0000000000
     42703       343  QMPE      H4X           -48.1127711928      -17.5020304537       -8.6190510300  MEMB      343             0.0000000000
     42704       343  QMPE      H4Y           -46.5556315366      -17.7672985453       -9.4538897756  MEMB      343             0.0000000000
     42705       343  QMPE      C35           -46.9628461189      -19.2554640828       -7.9886164421  MEMB      343             0.0000000000
     42706       343  QMPE      H5X           -46.4452496503      -18.7320714102       -7.1564652886  MEMB      343             0.0000000000
     42707       343  QMPE      H5Y           -46.2350255213      -19.9298647836       -8.4883978153  MEMB      343             0.0000000000
     42708       343  QMPE      C36           -48.0556953079      -20.1257798730       -7.3221713600  MEMB      343             0.0000000000
     42709       343  QMPE      H6X           -47.6292985599      -20.9771903297       -6.7498020457  MEMB      343             0.0000000000
     42710       343  QMPE      H6Y           -48.5794917192      -20.5775254982       -8.1915874664  MEMB      343             0.0000000000
     42711       343  QMPE      C37           -48.9914628556      -19.3595717688       -6.4172984117  MEMB      343             0.0000000000
     42712       343  QMPE      H7X           -48.4006518618      -18.8578846923       -5.6213246656  MEMB      343             0.0000000000
     42713       343  QMPE      H7Y           -49.6455158470      -18.6518048788       -6.9701102149  MEMB      343             0.0000000000
     42714       343  QMPE      C38           -49.9773255764      -20.1529615974       -5.5477619349  MEMB      343             0.0000000000
     42715       343  QMPE      H8X           -50.6186923489      -19.3808343311       -5.0715380411  MEMB      343             0.0000000000
     42716       343  QMPE      H8Y           -50.4963134704      -20.8857340001       -6.2019924389  MEMB      343             0.0000000000
     42717       343  QMPE      C39           -49.3780524700      -20.7743179829       -4.2828363182  MEMB      343             0.0000000000
     42718       343  QMPE      H9X           -49.1348596027      -19.9601911711       -3.5670324137  MEMB      343             0.0000000000
     42719       343  QMPE      H9Y           -48.3880305945      -21.1939740689       -4.5622400734  MEMB      343             0.0000000000
     42720       343  QMPE      C310          -50.2348704342      -21.8832608647       -3.6077100987  MEMB      343             0.0000000000
     42721       343  QMPE      H10X          -49.6190465642      -22.7257239769       -3.2264783558  MEMB      343             0.0000000000
     42722       343  QMPE      H10Y          -50.8690027975      -22.3363084692       -4.3995081041  MEMB      343             0.0000000000
     42723       343  QMPE      C311          -51.1591177186      -21.3601842217       -2.5590541366  MEMB      343             0.0000000000
     42724       343  QMPE      H11X          -52.0711943230      -21.0937170883       -3.1347562481  MEMB      343             0.0000000000
     42725       343  QMPE      H11Y          -50.6403284031      -20.5058725305       -2.0739453579  MEMB      343             0.0000000000
     42726       343  QMPE      C312          -51.4930148452      -22.4747092351       -1.4977750305  MEMB      343             0.0000000000
     42727       343  QMPE      H12X          -50.6183239464      -23.0148705289       -1.0765128003  MEMB      343             0.0000000000
     42728       343  QMPE      H12Y          -52.1906889892      -23.1644716257       -2.0191192046  MEMB      343             0.0000000000
     42729       343  QMPE      C313          -52.2566738771      -21.9605008361       -0.2775173599  MEMB      343             0.0000000000
     42730       343  QMPE      H13X          -52.5630423028      -22.8447142606        0.3213375747  MEMB      343             0.0000000000
     42731       343  QMPE      H13Y          -51.4685231542      -21.3789271040        0.2468034353  MEMB      343             0.0000000000
     42732       343  QMPE      C314          -53.5706734918      -21.0629173009       -0.5415815875  MEMB      343             0.0000000000
     42733       343  QMPE      H14X          -53.1930791292      -20.1276208552       -1.0073761935  MEMB      343             0.0000000000
     42734       343  QMPE      H14Y          -54.0072360398      -20.7516150513        0.4314673392  MEMB      343             0.0000000000
     42735       343  QMPE      C315          -54.6633943551      -21.6844984575       -1.4579110970  MEMB      343             0.0000000000
     42736       343  QMPE      H15X          -55.2857756807      -22.1686509351       -0.6752511452  MEMB      343             0.0000000000
     42737       343  QMPE      H15Y          -55.2178692895      -20.9771536217       -2.1110128096  MEMB      343             0.0000000000
     42738       343  QMPE      H15Z          -54.2948329460      -22.3989728002       -2.2247296229  MEMB      343             0.0000000000
     42739       344  OYPE      N              17.5356191531      -52.1291468681      -21.4514986901  MEMB      344             0.0000000000
     42740       344  OYPE      HN1            17.0285097613      -52.8974828338      -21.9353371007  MEMB      344             0.0000000000
     42741       344  OYPE      HN2            16.7185636160      -51.5294573506      -21.2182759472  MEMB      344             0.0000000000
     42742       344  OYPE      HN3            18.3168732156      -51.6438080450      -21.9369761303  MEMB      344             0.0000000000
     42743       344  OYPE      C12            17.8758534623      -52.5397306045      -20.0205686278  MEMB      344             0.0000000000
     42744       344  OYPE      H12A           18.6658864562      -53.3208566249      -20.0238991969  MEMB      344             0.0000000000
     42745       344  OYPE      H12B           16.9780479851      -53.1423347739      -19.7653537902  MEMB      344             0.0000000000
     42746       344  OYPE      C11            18.1713111595      -51.3498054821      -19.1016234517  MEMB      344             0.0000000000
     42747       344  OYPE      H11A           19.1583079702      -50.9064649026      -19.3538290279  MEMB      344             0.0000000000
     42748       344  OYPE      H11B           18.3316750568      -51.6023442984      -18.0316568419  MEMB      344             0.0000000000
     42749       344  OYPE      P              16.0196347840      -50.1699638789      -18.3311158235  MEMB      344             0.0000000000
     42750       344  OYPE      O13            15.4296830475      -51.4825389705      -17.9879801472  MEMB      344             0.0000000000
     42751       344  OYPE      O14            15.2361533442      -49.0979072967      -18.8715471856  MEMB      344             0.0000000000
     42752       344  OYPE      O11            16.6680248091      -49.6076007504      -17.0031720710  MEMB      344             0.0000000000
     42753       344  OYPE      O12            17.2517146411      -50.2446613855      -19.2324940229  MEMB      344             0.0000000000
     42754       344  OYPE      C1             17.2087127001      -48.2384760383      -16.9732572164  MEMB      344             0.0000000000
     42755       344  OYPE      HA             16.6500490203      -47.5024166207      -17.5900491949  MEMB      344             0.0000000000
     42756       344  OYPE      HB             18.2465024546      -48.1866327749      -17.3664819941  MEMB      344             0.0000000000
     42757       344  OYPE      C2             17.1092057472      -47.6520406288      -15.5390674650  MEMB      344             0.0000000000
     42758       344  OYPE      HS             17.5338654991      -46.6298785221      -15.4433085584  MEMB      344             0.0000000000
     42759       344  OYPE      O21            17.7395330301      -48.5544852601      -14.5420346513  MEMB      344             0.0000000000
     42760       344  OYPE      C21            19.0528503505      -48.7422679805      -14.5779943038  MEMB      344             0.0000000000
     42761       344  OYPE      O22            19.8184999674      -48.1339181718      -15.2960006129  MEMB      344             0.0000000000
     42762       344  OYPE      C22            19.3501224183      -49.8453071190      -13.5764794204  MEMB      344             0.0000000000
     42763       344  OYPE      H2R            20.1038097621      -50.5307294963      -14.0197316490  MEMB      344             0.0000000000
     42764       344  OYPE      H2S            18.4784336818      -50.4390587414      -13.2272819970  MEMB      344             0.0000000000
     42765       344  OYPE      C3             15.6102742092      -47.4201295404      -15.2122353356  MEMB      344             0.0000000000
     42766       344  OYPE      HX             15.1431551947      -46.7554629660      -15.9700872177  MEMB      344             0.0000000000
     42767       344  OYPE      HY             15.5315850419      -46.9558082333      -14.2059877860  MEMB      344             0.0000000000
     42768       344  OYPE      O31            14.9097367750      -48.6377972194      -15.1492777169  MEMB      344             0.0000000000
     42769       344  OYPE      C31            13.6421148964      -48.5006856875      -14.8026322117  MEMB      344             0.0000000000
     42770       344  OYPE      O32            13.0594263565      -47.4900025273      -14.5296893348  MEMB      344             0.0000000000
     42771       344  OYPE      C32            13.0044819356      -49.9140064295      -14.6829979875  MEMB      344             0.0000000000
     42772       344  OYPE      H2X            11.9117881335      -49.8029982183      -14.5156106553  MEMB      344             0.0000000000
     42773       344  OYPE      H2Y            13.3128931407      -50.3581978035      -15.6535119268  MEMB      344             0.0000000000
     42774       344  OYPE      C23            19.8728750934      -49.1325608949      -12.3339447744  MEMB      344             0.0000000000
     42775       344  OYPE      H3R            20.7207698805      -48.5059776729      -12.6843577242  MEMB      344             0.0000000000
     42776       344  OYPE      H3S            20.1740541699      -49.8087025226      -11.5054251383  MEMB      344             0.0000000000
     42777       344  OYPE      C24            18.7414524144      -48.1605173153      -11.7761545220  MEMB      344             0.0000000000
     42778       344  OYPE      H4R            17.8650878620      -48.7624522866      -11.4536943916  MEMB      344             0.0000000000
     42779       344  OYPE      H4S            18.5618949618      -47.2908468691      -12.4438022193  MEMB      344             0.0000000000
     42780       344  OYPE      C25            19.2030984498      -47.4571278665      -10.4949970239  MEMB      344             0.0000000000
     42781       344  OYPE      H5R            18.4768250037      -46.6215481063      -10.4019689367  MEMB      344             0.0000000000
     42782       344  OYPE      H5S            20.2161354387      -47.0078414977      -10.5738603366  MEMB      344             0.0000000000
     42783       344  OYPE      C26            19.1685274407      -48.2329445953       -9.1524886314  MEMB      344             0.0000000000
     42784       344  OYPE      H6R            19.7002457281      -47.6313646571       -8.3845704064  MEMB      344             0.0000000000
     42785       344  OYPE      H6S            19.6406042618      -49.2329528667       -9.2594844522  MEMB      344             0.0000000000
     42786       344  OYPE      C27            17.6579062178      -48.4617305667       -8.7345604898  MEMB      344             0.0000000000
     42787       344  OYPE      H7R            17.5353047093      -49.3515845011       -8.0807644479  MEMB      344             0.0000000000
     42788       344  OYPE      H7S            17.0477254132      -48.5894800388       -9.6541697430  MEMB      344             0.0000000000
     42789       344  OYPE      C28            17.0815240656      -47.1769904849       -8.0197958603  MEMB      344             0.0000000000
     42790       344  OYPE      H8R            17.1085666026      -46.3686930007       -8.7815332818  MEMB      344             0.0000000000
     42791       344  OYPE      H8S            17.7886573635      -46.9079825383       -7.2062124027  MEMB      344             0.0000000000
     42792       344  OYPE      C29            15.6830765108      -47.4371455046       -7.5547019138  MEMB      344             0.0000000000
     42793       344  OYPE      H9R            14.9333752072      -47.1813592579       -8.3179323793  MEMB      344             0.0000000000
     42794       344  OYPE      C210           15.3177373184      -47.7243990243       -6.3092044506  MEMB      344             0.0000000000
     42795       344  OYPE      H10R           14.2459903886      -47.8119156305       -6.0774733781  MEMB      344             0.0000000000
     42796       344  OYPE      C211           16.2363867024      -47.9374078655       -5.0821357192  MEMB      344             0.0000000000
     42797       344  OYPE      H11R           17.2262234022      -47.4457545107       -5.1953669848  MEMB      344             0.0000000000
     42798       344  OYPE      H11S           16.4630903847      -49.0233294369       -5.1429692565  MEMB      344             0.0000000000
     42799       344  OYPE      C212           15.6874448866      -47.6899245621       -3.6927928827  MEMB      344             0.0000000000
     42800       344  OYPE      H12R           16.2931691904      -48.3851555424       -3.0730566021  MEMB      344             0.0000000000
     42801       344  OYPE      H12S           14.6022274198      -47.8796370644       -3.5491505201  MEMB      344             0.0000000000
     42802       344  OYPE      C213           15.9618041896      -46.3236626043       -2.9957843968  MEMB      344             0.0000000000
     42803       344  OYPE      H13R           15.4199103554      -45.4862015742       -3.4849981947  MEMB      344             0.0000000000
     42804       344  OYPE      H13S           17.0430305911      -46.0701891118       -3.0277504090  MEMB      344             0.0000000000
     42805       344  OYPE      C214           15.5208825440      -46.2984412214       -1.5022871553  MEMB      344             0.0000000000
     42806       344  OYPE      H14R           15.5774251221      -45.3184923165       -0.9818803944  MEMB      344             0.0000000000
     42807       344  OYPE      H14S           16.2474660083      -46.9886853643       -1.0227450928  MEMB      344             0.0000000000
     42808       344  OYPE      C215           14.0634066871      -46.7482245063       -1.1605758810  MEMB      344             0.0000000000
     42809       344  OYPE      H15R           13.9847950195      -46.3787228321       -0.1157731316  MEMB      344             0.0000000000
     42810       344  OYPE      H15S           14.0005855543      -47.8559851721       -1.2174987859  MEMB      344             0.0000000000
     42811       344  OYPE      C216           12.9797722007      -46.0243091848       -2.0582195844  MEMB      344             0.0000000000
     42812       344  OYPE      H16R           13.1188776540      -46.0330855230       -3.1604404529  MEMB      344             0.0000000000
     42813       344  OYPE      H16S           12.9085531959      -44.9616430690       -1.7420088856  MEMB      344             0.0000000000
     42814       344  OYPE      H16T           11.9481116075      -46.4153653965       -1.9275593674  MEMB      344             0.0000000000
     42815       344  OYPE      C33            13.5692828813      -50.6142217897      -13.3830046186  MEMB      344             0.0000000000
     42816       344  OYPE      H3X            14.6436673808      -50.3364864300      -13.3293211958  MEMB      344             0.0000000000
     42817       344  OYPE      H3Y            13.5342012910      -51.7068573991      -13.5810894975  MEMB      344             0.0000000000
     42818       344  OYPE      C34            12.9361959711      -50.3413089994      -12.0672517273  MEMB      344             0.0000000000
     42819       344  OYPE      H4X            13.2016238545      -49.2819394093      -11.8632781773  MEMB      344             0.0000000000
     42820       344  OYPE      H4Y            11.8493730492      -50.5482667317      -12.1687685551  MEMB      344             0.0000000000
     42821       344  OYPE      C35            13.4208788140      -51.3021088176      -11.0107128264  MEMB      344             0.0000000000
     42822       344  OYPE      H5X            13.1877749890      -52.3554694329      -11.2760712513  MEMB      344             0.0000000000
     42823       344  OYPE      H5Y            12.8032645493      -51.1174328307      -10.1058546664  MEMB      344             0.0000000000
     42824       344  OYPE      C36            14.8972506890      -51.1705421394      -10.6798788934  MEMB      344             0.0000000000
     42825       344  OYPE      H6X            15.5009075319      -51.4105962495      -11.5811522224  MEMB      344             0.0000000000
     42826       344  OYPE      H6Y            15.3430742671      -50.1660586198      -10.5168594564  MEMB      344             0.0000000000
     42827       344  OYPE      C37            15.3625076739      -51.7601423967       -9.2788297781  MEMB      344             0.0000000000
     42828       344  OYPE      H7X            15.6364253550      -50.9422715738       -8.5785603498  MEMB      344             0.0000000000
     42829       344  OYPE      H7Y            14.5315088568      -52.3732949676       -8.8691892824  MEMB      344             0.0000000000
     42830       344  OYPE      C38            16.4676410909      -52.7914518257       -9.4673627437  MEMB      344             0.0000000000
     42831       344  OYPE      H8X            16.5103988695      -53.5768794303       -8.6827637669  MEMB      344             0.0000000000
     42832       344  OYPE      H8Y            16.2540927572      -53.4471038454      -10.3384759449  MEMB      344             0.0000000000
     42833       344  OYPE      C39            17.8456953998      -52.2245347766       -9.5860176388  MEMB      344             0.0000000000
     42834       344  OYPE      H9X            18.0083252603      -52.0925529887      -10.6658937451  MEMB      344             0.0000000000
     42835       344  OYPE      C310           18.8738295692      -52.1945582517       -8.7795272703  MEMB      344             0.0000000000
     42836       344  OYPE      H10X           19.7164823377      -51.6599683784       -9.2422904771  MEMB      344             0.0000000000
     42837       344  OYPE      C311           19.0678990597      -52.6779643491       -7.3864665254  MEMB      344             0.0000000000
     42838       344  OYPE      H11X           18.1608300774      -53.2976058944       -7.2203607461  MEMB      344             0.0000000000
     42839       344  OYPE      H11Y           20.0070553809      -53.2498796231       -7.2276623361  MEMB      344             0.0000000000
     42840       344  OYPE      C312           19.1490934421      -51.4496109886       -6.4091234166  MEMB      344             0.0000000000
     42841       344  OYPE      H12X           18.1496041425      -50.9879337286       -6.2601402018  MEMB      344             0.0000000000
     42842       344  OYPE      H12Y           19.8076216753      -50.6986313621       -6.8956325473  MEMB      344             0.0000000000
     42843       344  OYPE      C313           19.7695116116      -52.0251286798       -5.0707492677  MEMB      344             0.0000000000
     42844       344  OYPE      H13X           19.2467927081      -52.9782732866       -4.8413988335  MEMB      344             0.0000000000
     42845       344  OYPE      H13Y           20.8253320556      -52.3486449332       -5.1928214795  MEMB      344             0.0000000000
     42846       344  OYPE      C314           19.6527333991      -51.0079731824       -3.8888559257  MEMB      344             0.0000000000
     42847       344  OYPE      H14X           19.9839047608      -51.6022889346       -3.0105423151  MEMB      344             0.0000000000
     42848       344  OYPE      H14Y           18.6100200494      -50.6552653252       -3.7383003224  MEMB      344             0.0000000000
     42849       344  OYPE      C315           20.6076717627      -49.7794603932       -3.9538159184  MEMB      344             0.0000000000
     42850       344  OYPE      H15X           20.2359673127      -49.1802149347       -4.8123384125  MEMB      344             0.0000000000
     42851       344  OYPE      H15Y           21.6610917982      -50.0988391058       -4.1042287572  MEMB      344             0.0000000000
     42852       344  OYPE      C316           20.4333090699      -49.0002888207       -2.6532797181  MEMB      344             0.0000000000
     42853       344  OYPE      H16X           20.7909926163      -49.5806617253       -1.7760397604  MEMB      344             0.0000000000
     42854       344  OYPE      H16Y           19.3601038511      -48.7638113571       -2.4900921516  MEMB      344             0.0000000000
     42855       344  OYPE      C317           21.1933985571      -47.6306458807       -2.6787554084  MEMB      344             0.0000000000
     42856       344  OYPE      H17X           20.9987296606      -47.2806303422       -3.7150542126  MEMB      344             0.0000000000
     42857       344  OYPE      H17Y           22.2861057221      -47.8299808436       -2.6547314676  MEMB      344             0.0000000000
     42858       344  OYPE      C318           20.7483642121      -46.6252191009       -1.5845647186  MEMB      344             0.0000000000
     42859       344  OYPE      H18X           21.0122767275      -46.9904767420       -0.5690572576  MEMB      344             0.0000000000
     42860       344  OYPE      H18Y           21.2583224589      -45.6612528074       -1.7967747597  MEMB      344             0.0000000000
     42861       344  OYPE      H18Z           19.6411404738      -46.5594955584       -1.6482569029  MEMB      344             0.0000000000
     42862       345  POPE      N               4.5906108316       56.5214828608      -18.2375988478  MEMB      345             0.0000000000
     42863       345  POPE      HN1             5.3580472516       57.1036970796      -18.6296037781  MEMB      345             0.0000000000
     42864       345  POPE      HN2             3.7673973126       57.0688045299      -17.9145523758  MEMB      345             0.0000000000
     42865       345  POPE      HN3             4.8878333866       55.9909024644      -17.3939502159  MEMB      345             0.0000000000
     42866       345  POPE      C12             4.0488180649       55.6724763251      -19.2789928772  MEMB      345             0.0000000000
     42867       345  POPE      H12A            3.4970253153       56.3107355928      -20.0018142793  MEMB      345             0.0000000000
     42868       345  POPE      H12B            3.2887914991       55.0187767715      -18.8000799620  MEMB      345             0.0000000000
     42869       345  POPE      C11             5.2719503815       54.8331881442      -19.8109611049  MEMB      345             0.0000000000
     42870       345  POPE      H11A            6.1285552828       55.4959826049      -20.0584537969  MEMB      345             0.0000000000
     42871       345  POPE      H11B            5.0076453289       54.4059441649      -20.8018830608  MEMB      345             0.0000000000
     42872       345  POPE      P               7.0502046212       53.2235723345      -18.9797920686  MEMB      345             0.0000000000
     42873       345  POPE      O13             7.3420117709       52.8741955102      -20.3988366118  MEMB      345             0.0000000000
     42874       345  POPE      O14             7.1834571486       52.1486235365      -17.9902297909  MEMB      345             0.0000000000
     42875       345  POPE      O11             7.8441145295       54.4001668763      -18.4384228803  MEMB      345             0.0000000000
     42876       345  POPE      O12             5.5824222536       53.7714625125      -18.8651658185  MEMB      345             0.0000000000
     42877       345  POPE      C1              7.8487577876       54.7730716894      -17.0695844910  MEMB      345             0.0000000000
     42878       345  POPE      HA              7.0019631567       54.2980625606      -16.5295601293  MEMB      345             0.0000000000
     42879       345  POPE      HB              7.6031080836       55.8554852526      -17.1181449668  MEMB      345             0.0000000000
     42880       345  POPE      C2              9.1590317877       54.5180890083      -16.3725335749  MEMB      345             0.0000000000
     42881       345  POPE      HS             10.0547386786       54.8398671179      -16.9456733704  MEMB      345             0.0000000000
     42882       345  POPE      O21             9.1933485483       53.1056954735      -16.0303955437  MEMB      345             0.0000000000
     42883       345  POPE      C21            10.2082130981       52.6109518729      -15.3676587142  MEMB      345             0.0000000000
     42884       345  POPE      O22            11.2587284190       53.2514490216      -15.2419561016  MEMB      345             0.0000000000
     42885       345  POPE      C22             9.8812467799       51.1894041654      -14.8522280769  MEMB      345             0.0000000000
     42886       345  POPE      H2R            10.4181587823       50.5324197812      -15.5694569045  MEMB      345             0.0000000000
     42887       345  POPE      H2S             8.8128548626       50.9016106686      -14.7520554320  MEMB      345             0.0000000000
     42888       345  POPE      C3              9.1921049644       55.4557001227      -15.1214347814  MEMB      345             0.0000000000
     42889       345  POPE      HX              9.2701339360       56.5038092380      -15.4815735319  MEMB      345             0.0000000000
     42890       345  POPE      HY             10.1256496684       55.3859358840      -14.5231468735  MEMB      345             0.0000000000
     42891       345  POPE      O31             8.0087784796       55.3679095304      -14.2814048629  MEMB      345             0.0000000000
     42892       345  POPE      C31             8.0209844588       56.1283918453      -13.1308712854  MEMB      345             0.0000000000
     42893       345  POPE      O32             8.9100378008       56.8563609608      -12.7836918595  MEMB      345             0.0000000000
     42894       345  POPE      C32             6.6297996118       56.1322746900      -12.4699606831  MEMB      345             0.0000000000
     42895       345  POPE      H2X             6.4680452273       57.1958289191      -12.1924558678  MEMB      345             0.0000000000
     42896       345  POPE      H2Y             6.8286704427       55.6159302869      -11.5065502075  MEMB      345             0.0000000000
     42897       345  POPE      C23            10.6669084366       51.0571324474      -13.5350642768  MEMB      345             0.0000000000
     42898       345  POPE      H3R            11.7307861476       51.3473540271      -13.6701818779  MEMB      345             0.0000000000
     42899       345  POPE      H3S            10.7471705222       49.9561737883      -13.4094899482  MEMB      345             0.0000000000
     42900       345  POPE      C24            10.0325064752       51.7320402462      -12.3316424627  MEMB      345             0.0000000000
     42901       345  POPE      H4R             9.0436222597       52.0599972491      -12.7174834740  MEMB      345             0.0000000000
     42902       345  POPE      H4S            10.5242617569       52.7174330467      -12.1850174562  MEMB      345             0.0000000000
     42903       345  POPE      C25            10.1105884933       50.9570855932      -11.0393627329  MEMB      345             0.0000000000
     42904       345  POPE      H5R            11.1774315176       50.8904907426      -10.7364905316  MEMB      345             0.0000000000
     42905       345  POPE      H5S             9.8917237653       49.9167815646      -11.3621422445  MEMB      345             0.0000000000
     42906       345  POPE      C26             9.1398927470       51.3724630658       -9.8774114599  MEMB      345             0.0000000000
     42907       345  POPE      H6R             8.0692438801       51.3064880598      -10.1666849615  MEMB      345             0.0000000000
     42908       345  POPE      H6S             9.4293152658       52.4407836378       -9.7812521747  MEMB      345             0.0000000000
     42909       345  POPE      C27             9.3254907599       50.5388128208       -8.6725023703  MEMB      345             0.0000000000
     42910       345  POPE      H7R            10.3673188868       50.2077242060       -8.4742739610  MEMB      345             0.0000000000
     42911       345  POPE      H7S             8.7449080530       49.5934699144       -8.7322642308  MEMB      345             0.0000000000
     42912       345  POPE      C28             8.9507919454       51.3711735698       -7.3577881082  MEMB      345             0.0000000000
     42913       345  POPE      H8R             8.9706317415       50.6817694276       -6.4867834780  MEMB      345             0.0000000000
     42914       345  POPE      H8S             7.9003094641       51.7307112474       -7.3970320052  MEMB      345             0.0000000000
     42915       345  POPE      C29             9.8086738769       52.5628597458       -7.1394503519  MEMB      345             0.0000000000
     42916       345  POPE      H91            10.7932650070       52.4209481194       -6.6699384410  MEMB      345             0.0000000000
     42917       345  POPE      C210            9.5202024969       53.8605248104       -7.4608575365  MEMB      345             0.0000000000
     42918       345  POPE      H101           10.4179557848       54.4923641252       -7.5302705315  MEMB      345             0.0000000000
     42919       345  POPE      C211            8.3537651650       54.5539397695       -8.1252286356  MEMB      345             0.0000000000
     42920       345  POPE      H11R            7.6896440603       53.7876007763       -8.5790887766  MEMB      345             0.0000000000
     42921       345  POPE      H11S            8.7363220315       55.1972851786       -8.9462515294  MEMB      345             0.0000000000
     42922       345  POPE      C212            7.5813970181       55.4967337930       -7.1868083223  MEMB      345             0.0000000000
     42923       345  POPE      H12R            6.7508557803       55.9583920495       -7.7624766553  MEMB      345             0.0000000000
     42924       345  POPE      H12S            8.2107871948       56.3921185700       -6.9958238514  MEMB      345             0.0000000000
     42925       345  POPE      C213            6.9963354784       54.7905391742       -5.9426861371  MEMB      345             0.0000000000
     42926       345  POPE      H13R            7.7906058592       54.6530538213       -5.1781252482  MEMB      345             0.0000000000
     42927       345  POPE      H13S            6.4935982289       53.8385395501       -6.2170456786  MEMB      345             0.0000000000
     42928       345  POPE      C214            5.9751565667       55.7197856562       -5.1886333035  MEMB      345             0.0000000000
     42929       345  POPE      H14R            5.2119062415       55.9722807500       -5.9554555521  MEMB      345             0.0000000000
     42930       345  POPE      H14S            6.4957438242       56.6479644726       -4.8695815758  MEMB      345             0.0000000000
     42931       345  POPE      C215            5.2170587446       55.0749780750       -4.0129196430  MEMB      345             0.0000000000
     42932       345  POPE      H15R            4.5554550289       54.2576618918       -4.3715216828  MEMB      345             0.0000000000
     42933       345  POPE      H15S            4.5999777255       55.9298812409       -3.6626739328  MEMB      345             0.0000000000
     42934       345  POPE      C216            6.1681355361       54.4549585460       -2.9571196734  MEMB      345             0.0000000000
     42935       345  POPE      H16R            7.0069724753       55.1682533496       -2.8091879746  MEMB      345             0.0000000000
     42936       345  POPE      H16S            6.4898019907       53.4876929429       -3.3989896371  MEMB      345             0.0000000000
     42937       345  POPE      C217            5.5794110062       54.3084240641       -1.6199892174  MEMB      345             0.0000000000
     42938       345  POPE      H17R            5.2107023685       55.1995035717       -1.0683082559  MEMB      345             0.0000000000
     42939       345  POPE      H17S            6.3897307390       53.7722192986       -1.0812986962  MEMB      345             0.0000000000
     42940       345  POPE      C218            4.3820476079       53.3575008130       -1.6184125949  MEMB      345             0.0000000000
     42941       345  POPE      H18R            4.0308358521       53.0172319257       -0.6208215122  MEMB      345             0.0000000000
     42942       345  POPE      H18S            4.5629233133       52.5360089864       -2.3441925290  MEMB      345             0.0000000000
     42943       345  POPE      H18T            3.5198767310       53.9570493268       -1.9810748458  MEMB      345             0.0000000000
     42944       345  POPE      C33             5.5897207862       55.4205705195      -13.4049017987  MEMB      345             0.0000000000
     42945       345  POPE      H3X             5.9941271316       54.3914794513      -13.5132916037  MEMB      345             0.0000000000
     42946       345  POPE      H3Y             5.4613722168       56.0799281959      -14.2898283525  MEMB      345             0.0000000000
     42947       345  POPE      C34             4.1612810165       55.1222442853      -12.9114962736  MEMB      345             0.0000000000
     42948       345  POPE      H4X             3.7115867638       54.3699871926      -13.5942887648  MEMB      345             0.0000000000
     42949       345  POPE      H4Y             3.4670526357       55.9882347853      -12.9607763405  MEMB      345             0.0000000000
     42950       345  POPE      C35             4.0945240735       54.5623196594      -11.4904161106  MEMB      345             0.0000000000
     42951       345  POPE      H5X             4.5481501950       55.3692349229      -10.8760614112  MEMB      345             0.0000000000
     42952       345  POPE      H5Y             4.7945973768       53.6997673919      -11.4755152608  MEMB      345             0.0000000000
     42953       345  POPE      C36             2.6273556294       54.2874663359      -11.1289142089  MEMB      345             0.0000000000
     42954       345  POPE      H6X             2.3553436689       53.3476777510      -11.6553433329  MEMB      345             0.0000000000
     42955       345  POPE      H6Y             1.9739197612       54.9892169529      -11.6900634342  MEMB      345             0.0000000000
     42956       345  POPE      C37             2.4871264372       54.0545766704       -9.6542055910  MEMB      345             0.0000000000
     42957       345  POPE      H7X             1.5846000928       53.4433273882       -9.4393996182  MEMB      345             0.0000000000
     42958       345  POPE      H7Y             2.4185053963       55.0235907580       -9.1151110679  MEMB      345             0.0000000000
     42959       345  POPE      C38             3.6536176065       53.1884157066       -9.0784654132  MEMB      345             0.0000000000
     42960       345  POPE      H8X             4.5495769499       53.8445095194       -9.0450183770  MEMB      345             0.0000000000
     42961       345  POPE      H8Y             3.8031325388       52.3688215747       -9.8134700464  MEMB      345             0.0000000000
     42962       345  POPE      C39             3.4634552672       52.4680206508       -7.7433975023  MEMB      345             0.0000000000
     42963       345  POPE      H9X             2.6408000682       51.7426980541       -7.9207846978  MEMB      345             0.0000000000
     42964       345  POPE      H9Y             2.9963819592       53.1204867670       -6.9749894653  MEMB      345             0.0000000000
     42965       345  POPE      C310            4.5940872608       51.6539947737       -7.1257207436  MEMB      345             0.0000000000
     42966       345  POPE      H10X            5.3915525555       52.4272886568       -7.1453888446  MEMB      345             0.0000000000
     42967       345  POPE      H10Y            4.7590296943       50.8026787225       -7.8202530673  MEMB      345             0.0000000000
     42968       345  POPE      C311            4.1649026552       51.0347346104       -5.7346765743  MEMB      345             0.0000000000
     42969       345  POPE      H11X            3.2044005348       50.4765554900       -5.7485754017  MEMB      345             0.0000000000
     42970       345  POPE      H11Y            3.9299255523       51.8707831052       -5.0417625961  MEMB      345             0.0000000000
     42971       345  POPE      C312            5.1244256997       50.0324693811       -5.1875951985  MEMB      345             0.0000000000
     42972       345  POPE      H12X            6.0686408847       50.5607319537       -4.9351724649  MEMB      345             0.0000000000
     42973       345  POPE      H12Y            5.2949285048       49.2886221832       -5.9950241231  MEMB      345             0.0000000000
     42974       345  POPE      C313            4.8048054010       49.3787995981       -3.8516247331  MEMB      345             0.0000000000
     42975       345  POPE      H13X            3.8776599837       48.7677931304       -3.8889508611  MEMB      345             0.0000000000
     42976       345  POPE      H13Y            4.5527214160       50.1557920383       -3.0985928315  MEMB      345             0.0000000000
     42977       345  POPE      C314            5.8761359691       48.5306224656       -3.2154503052  MEMB      345             0.0000000000
     42978       345  POPE      H14X            6.0990828242       47.7921571372       -4.0150028537  MEMB      345             0.0000000000
     42979       345  POPE      H14Y            5.5812444489       47.9348384678       -2.3252817551  MEMB      345             0.0000000000
     42980       345  POPE      C315            7.1698153389       49.2931543065       -2.8922510380  MEMB      345             0.0000000000
     42981       345  POPE      H15X            7.5630675044       49.7756705684       -3.8124973147  MEMB      345             0.0000000000
     42982       345  POPE      H15Y            8.0542468868       48.6494541823       -2.6979540311  MEMB      345             0.0000000000
     42983       345  POPE      C316            7.0651268455       50.3386059300       -1.8843720201  MEMB      345             0.0000000000
     42984       345  POPE      H16X            8.0269932802       50.8505953183       -1.6675758857  MEMB      345             0.0000000000
     42985       345  POPE      H16Y            6.6737963234       49.9748898411       -0.9102613025  MEMB      345             0.0000000000
     42986       345  POPE      H16Z            6.4334208012       51.1425074705       -2.3191273347  MEMB      345             0.0000000000
     42987       346  POPE      N             -33.0152771460      -44.1127398055      -19.5564785561  MEMB      346             0.0000000000
     42988       346  POPE      HN1           -32.4986614581      -44.9151799292      -19.1432016024  MEMB      346             0.0000000000
     42989       346  POPE      HN2           -33.1643880764      -44.2122956311      -20.5809074557  MEMB      346             0.0000000000
     42990       346  POPE      HN3           -32.4332346862      -43.2528896940      -19.4974502237  MEMB      346             0.0000000000
     42991       346  POPE      C12           -34.2382544829      -43.9127518366      -18.6934317567  MEMB      346             0.0000000000
     42992       346  POPE      H12A          -33.7943400153      -43.7212200799      -17.6931435348  MEMB      346             0.0000000000
     42993       346  POPE      H12B          -34.8433376196      -44.8440195124      -18.7240211003  MEMB      346             0.0000000000
     42994       346  POPE      C11           -35.0505856540      -42.6360103113      -19.2368690520  MEMB      346             0.0000000000
     42995       346  POPE      H11A          -36.0058787232      -42.6606705071      -18.6701875078  MEMB      346             0.0000000000
     42996       346  POPE      H11B          -35.4127869746      -42.7371370317      -20.2822898907  MEMB      346             0.0000000000
     42997       346  POPE      P             -34.7420219960      -39.9433188483      -18.9565050192  MEMB      346             0.0000000000
     42998       346  POPE      O13           -35.4510539660      -39.6509239481      -20.2356773085  MEMB      346             0.0000000000
     42999       346  POPE      O14           -33.6582724156      -39.0279419032      -18.5474454946  MEMB      346             0.0000000000
     43000       346  POPE      O11           -35.7420763352      -40.0453258977      -17.7618495192  MEMB      346             0.0000000000
     43001       346  POPE      O12           -34.2662748025      -41.4862826522      -19.0117432970  MEMB      346             0.0000000000
     43002       346  POPE      C1            -36.5395223349      -38.8479630861      -17.6067196818  MEMB      346             0.0000000000
     43003       346  POPE      HA            -36.9758729032      -38.4869708832      -18.5625458931  MEMB      346             0.0000000000
     43004       346  POPE      HB            -35.8755836706      -38.0736431935      -17.1663389102  MEMB      346             0.0000000000
     43005       346  POPE      C2            -37.5378131508      -39.0963552940      -16.5089051053  MEMB      346             0.0000000000
     43006       346  POPE      HS            -38.1441227209      -38.1697536144      -16.4187989370  MEMB      346             0.0000000000
     43007       346  POPE      O21           -36.8900356712      -39.4928934013      -15.2516690540  MEMB      346             0.0000000000
     43008       346  POPE      C21           -37.3920883065      -38.9783235040      -14.0764490412  MEMB      346             0.0000000000
     43009       346  POPE      O22           -38.3490060877      -38.1879565099      -14.0509094586  MEMB      346             0.0000000000
     43010       346  POPE      C22           -36.4760119104      -39.3582672086      -12.9699361578  MEMB      346             0.0000000000
     43011       346  POPE      H2R           -36.5927594214      -40.4362016922      -12.7275554432  MEMB      346             0.0000000000
     43012       346  POPE      H2S           -36.5634493599      -38.7094461496      -12.0723243728  MEMB      346             0.0000000000
     43013       346  POPE      C3            -38.5177422722      -40.2682030898      -16.8905439931  MEMB      346             0.0000000000
     43014       346  POPE      HX            -38.8666014055      -40.0522387071      -17.9230059921  MEMB      346             0.0000000000
     43015       346  POPE      HY            -39.3860408359      -40.2616296513      -16.1974818303  MEMB      346             0.0000000000
     43016       346  POPE      O31           -37.8372277051      -41.5290607888      -16.8153714670  MEMB      346             0.0000000000
     43017       346  POPE      C31           -37.9949035560      -42.2818653122      -15.7519579896  MEMB      346             0.0000000000
     43018       346  POPE      O32           -38.7432491354      -42.0430802148      -14.8133519277  MEMB      346             0.0000000000
     43019       346  POPE      C32           -36.9783419558      -43.4698036033      -15.8189816793  MEMB      346             0.0000000000
     43020       346  POPE      H2X           -36.3480291928      -43.2702759926      -16.7118508851  MEMB      346             0.0000000000
     43021       346  POPE      H2Y           -37.4623989112      -44.4271206258      -16.1080383976  MEMB      346             0.0000000000
     43022       346  POPE      C23           -34.9845424023      -39.0562545544      -13.3286658824  MEMB      346             0.0000000000
     43023       346  POPE      H3R           -34.8689133839      -37.9963516025      -13.6410064280  MEMB      346             0.0000000000
     43024       346  POPE      H3S           -34.6250840704      -39.6730117877      -14.1799714382  MEMB      346             0.0000000000
     43025       346  POPE      C24           -34.0211883053      -39.3458289798      -12.1954573090  MEMB      346             0.0000000000
     43026       346  POPE      H4R           -34.1738941948      -40.4162290269      -11.9400244443  MEMB      346             0.0000000000
     43027       346  POPE      H4S           -34.3209380010      -38.7072282744      -11.3371685216  MEMB      346             0.0000000000
     43028       346  POPE      C25           -32.5693142661      -39.1788834029      -12.4380182553  MEMB      346             0.0000000000
     43029       346  POPE      H5R           -32.3936867355      -38.1233043561      -12.7367305425  MEMB      346             0.0000000000
     43030       346  POPE      H5S           -32.3920188244      -39.9035173301      -13.2612998929  MEMB      346             0.0000000000
     43031       346  POPE      C26           -31.7290451056      -39.5511437740      -11.1859087520  MEMB      346             0.0000000000
     43032       346  POPE      H6R           -30.6670118938      -39.5937161110      -11.5093187687  MEMB      346             0.0000000000
     43033       346  POPE      H6S           -31.9848401337      -40.5910557364      -10.8901507037  MEMB      346             0.0000000000
     43034       346  POPE      C27           -31.7648119633      -38.5089487001      -10.0418194080  MEMB      346             0.0000000000
     43035       346  POPE      H7R           -32.7818634566      -38.5336416715       -9.5953688441  MEMB      346             0.0000000000
     43036       346  POPE      H7S           -31.5456013558      -37.4665028774      -10.3573737249  MEMB      346             0.0000000000
     43037       346  POPE      C28           -30.8453144472      -39.0086334155       -8.9333580224  MEMB      346             0.0000000000
     43038       346  POPE      H8R           -29.8014370153      -39.1272780871       -9.2946962250  MEMB      346             0.0000000000
     43039       346  POPE      H8S           -31.1591655675      -40.0685844187       -8.8223538360  MEMB      346             0.0000000000
     43040       346  POPE      C29           -31.0373558297      -38.3063415062       -7.6018473718  MEMB      346             0.0000000000
     43041       346  POPE      H91           -31.2095718718      -37.2319876240       -7.7634186619  MEMB      346             0.0000000000
     43042       346  POPE      C210          -31.0608725186      -38.8637473629       -6.3986242924  MEMB      346             0.0000000000
     43043       346  POPE      H101          -31.3159155994      -38.2723269270       -5.5068990350  MEMB      346             0.0000000000
     43044       346  POPE      C211          -30.8992589578      -40.3287651925       -6.0765253930  MEMB      346             0.0000000000
     43045       346  POPE      H11R          -30.5167421204      -40.3800362979       -5.0347122890  MEMB      346             0.0000000000
     43046       346  POPE      H11S          -30.2343461725      -40.8707958839       -6.7825102845  MEMB      346             0.0000000000
     43047       346  POPE      C212          -32.0774454038      -41.3497805710       -5.9965839954  MEMB      346             0.0000000000
     43048       346  POPE      H12R          -32.4739572902      -41.5403641694       -7.0167687934  MEMB      346             0.0000000000
     43049       346  POPE      H12S          -32.9755625552      -40.9434262307       -5.4841560763  MEMB      346             0.0000000000
     43050       346  POPE      C213          -31.6849630450      -42.6612174569       -5.1736265881  MEMB      346             0.0000000000
     43051       346  POPE      H13R          -32.6297580134      -43.1091165306       -4.7980341742  MEMB      346             0.0000000000
     43052       346  POPE      H13S          -31.1372044500      -42.3350598063       -4.2637343911  MEMB      346             0.0000000000
     43053       346  POPE      C214          -30.6511831209      -43.6116644118       -5.8486958529  MEMB      346             0.0000000000
     43054       346  POPE      H14R          -29.7983780736      -43.6116733662       -5.1366246860  MEMB      346             0.0000000000
     43055       346  POPE      H14S          -30.2575229694      -43.3029797687       -6.8406968716  MEMB      346             0.0000000000
     43056       346  POPE      C215          -30.9808934696      -45.1148963892       -5.8835060215  MEMB      346             0.0000000000
     43057       346  POPE      H15R          -30.0676886635      -45.7227248823       -5.7076587351  MEMB      346             0.0000000000
     43058       346  POPE      H15S          -31.2182787490      -45.3349953585       -6.9462975151  MEMB      346             0.0000000000
     43059       346  POPE      C216          -32.0227309665      -45.6638810931       -4.8544734577  MEMB      346             0.0000000000
     43060       346  POPE      H16R          -32.0578737136      -46.7675649844       -4.9768162932  MEMB      346             0.0000000000
     43061       346  POPE      H16S          -32.9889091056      -45.2878550438       -5.2537547963  MEMB      346             0.0000000000
     43062       346  POPE      C217          -31.7398758335      -45.3445909813       -3.3952915854  MEMB      346             0.0000000000
     43063       346  POPE      H17R          -32.5491375283      -45.4796269331       -2.6461701484  MEMB      346             0.0000000000
     43064       346  POPE      H17S          -31.4658425004      -44.2873371634       -3.1917205982  MEMB      346             0.0000000000
     43065       346  POPE      C218          -30.4211183659      -45.9975154499       -2.7829913415  MEMB      346             0.0000000000
     43066       346  POPE      H18R          -30.6372245642      -47.0861267504       -2.8334335501  MEMB      346             0.0000000000
     43067       346  POPE      H18S          -30.2911605242      -45.7292983578       -1.7127137691  MEMB      346             0.0000000000
     43068       346  POPE      H18T          -29.5936016610      -45.8235938345       -3.5036075194  MEMB      346             0.0000000000
     43069       346  POPE      C33           -36.1829393435      -43.7281089952      -14.4824484154  MEMB      346             0.0000000000
     43070       346  POPE      H3X           -36.9385206611      -43.5816377297      -13.6812217607  MEMB      346             0.0000000000
     43071       346  POPE      H3Y           -35.3344780103      -43.0109315123      -14.4919929797  MEMB      346             0.0000000000
     43072       346  POPE      C34           -35.4592174011      -45.0996755888      -14.2910527828  MEMB      346             0.0000000000
     43073       346  POPE      H4X           -34.4597338779      -44.9897202038      -14.7635605735  MEMB      346             0.0000000000
     43074       346  POPE      H4Y           -36.1768490128      -45.7663627890      -14.8153172125  MEMB      346             0.0000000000
     43075       346  POPE      C35           -35.2217089309      -45.5345003699      -12.8289322873  MEMB      346             0.0000000000
     43076       346  POPE      H5X           -34.7690186619      -46.5457007840      -12.9117925178  MEMB      346             0.0000000000
     43077       346  POPE      H5Y           -36.2093370858      -45.7162435947      -12.3536632239  MEMB      346             0.0000000000
     43078       346  POPE      C36           -34.2413246594      -44.7815513034      -12.0191581858  MEMB      346             0.0000000000
     43079       346  POPE      H6X           -33.2823082841      -44.7615742631      -12.5797018147  MEMB      346             0.0000000000
     43080       346  POPE      H6Y           -33.9570790847      -45.3897656989      -11.1339459591  MEMB      346             0.0000000000
     43081       346  POPE      C37           -34.6876323683      -43.3855977302      -11.4498461240  MEMB      346             0.0000000000
     43082       346  POPE      H7X           -35.1520628738      -42.8884412757      -12.3281746410  MEMB      346             0.0000000000
     43083       346  POPE      H7Y           -33.7931441216      -42.8727828467      -11.0360435405  MEMB      346             0.0000000000
     43084       346  POPE      C38           -35.6083782609      -43.4960675832      -10.1868079380  MEMB      346             0.0000000000
     43085       346  POPE      H8X           -35.2898169039      -44.2919822571       -9.4801542676  MEMB      346             0.0000000000
     43086       346  POPE      H8Y           -36.5866290413      -43.8539112251      -10.5731944443  MEMB      346             0.0000000000
     43087       346  POPE      C39           -35.7020404280      -42.1439025193       -9.3597161017  MEMB      346             0.0000000000
     43088       346  POPE      H9X           -36.1552799477      -41.3483477366       -9.9889918684  MEMB      346             0.0000000000
     43089       346  POPE      H9Y           -34.6511952331      -41.8333459312       -9.1764132603  MEMB      346             0.0000000000
     43090       346  POPE      C310          -36.4580354931      -42.3699930080       -8.0359256718  MEMB      346             0.0000000000
     43091       346  POPE      H10X          -35.8604890868      -43.0166403357       -7.3583513669  MEMB      346             0.0000000000
     43092       346  POPE      H10Y          -37.4431705605      -42.7843665997       -8.3394450465  MEMB      346             0.0000000000
     43093       346  POPE      C311          -36.7722653381      -41.1514425684       -7.2108450921  MEMB      346             0.0000000000
     43094       346  POPE      H11X          -37.4221258826      -41.5336579777       -6.3948095419  MEMB      346             0.0000000000
     43095       346  POPE      H11Y          -37.3588598152      -40.3954032302       -7.7753207697  MEMB      346             0.0000000000
     43096       346  POPE      C312          -35.5484238067      -40.5541938100       -6.3757105421  MEMB      346             0.0000000000
     43097       346  POPE      H12X          -34.8264801342      -40.2512598720       -7.1639682851  MEMB      346             0.0000000000
     43098       346  POPE      H12Y          -35.1487285179      -41.3860904363       -5.7572341756  MEMB      346             0.0000000000
     43099       346  POPE      C313          -35.9321772837      -39.3944667022       -5.4748360782  MEMB      346             0.0000000000
     43100       346  POPE      H13X          -36.6411118898      -38.7664497453       -6.0556351017  MEMB      346             0.0000000000
     43101       346  POPE      H13Y          -35.0380947868      -38.8038862531       -5.1813196483  MEMB      346             0.0000000000
     43102       346  POPE      C314          -36.5567464336      -39.7908951602       -4.1219910471  MEMB      346             0.0000000000
     43103       346  POPE      H14X          -35.7210266433      -40.3224628819       -3.6186730260  MEMB      346             0.0000000000
     43104       346  POPE      H14Y          -37.4376281868      -40.4467546045       -4.2899691614  MEMB      346             0.0000000000
     43105       346  POPE      C315          -36.9941858762      -38.5633143640       -3.2924805598  MEMB      346             0.0000000000
     43106       346  POPE      H15X          -37.9782411413      -38.3096908102       -3.7415140272  MEMB      346             0.0000000000
     43107       346  POPE      H15Y          -36.5384202325      -37.5757137159       -3.5188510884  MEMB      346             0.0000000000
     43108       346  POPE      C316          -37.0671635536      -38.7727304032       -1.7667540202  MEMB      346             0.0000000000
     43109       346  POPE      H16X          -37.8771472977      -39.4794813583       -1.4861299425  MEMB      346             0.0000000000
     43110       346  POPE      H16Y          -37.3682794606      -37.9088975470       -1.1363236018  MEMB      346             0.0000000000
     43111       346  POPE      H16Z          -36.0977021962      -39.0660641198       -1.3102233246  MEMB      346             0.0000000000
     43112       347  PYPG      C13            -9.6148416117      -54.6871305773      -20.4450139376  MEMB      347             0.0000000000
     43113       347  PYPG      H13A           -9.1124894682      -53.9685059328      -21.1273202034  MEMB      347             0.0000000000
     43114       347  PYPG      H13B           -9.8816862564      -55.6153398456      -20.9941428836  MEMB      347             0.0000000000
     43115       347  PYPG      OC3           -10.8412583465      -54.1847112412      -19.9334338440  MEMB      347             0.0000000000
     43116       347  PYPG      HO3           -10.6627539978      -53.6516725946      -19.1552268991  MEMB      347             0.0000000000
     43117       347  PYPG      C12            -8.6398599771      -55.1866104712      -19.3672959168  MEMB      347             0.0000000000
     43118       347  PYPG      H12A           -7.7624718856      -55.6289664405      -19.8938795981  MEMB      347             0.0000000000
     43119       347  PYPG      OC2            -9.2518894427      -56.2161880775      -18.5892015935  MEMB      347             0.0000000000
     43120       347  PYPG      HO2            -8.6053807344      -56.3586790355      -17.8636399787  MEMB      347             0.0000000000
     43121       347  PYPG      C11            -8.1011508662      -54.1164121889      -18.4378301428  MEMB      347             0.0000000000
     43122       347  PYPG      H11A           -7.1922043030      -54.4416504930      -17.8879599501  MEMB      347             0.0000000000
     43123       347  PYPG      H11B           -8.9052042587      -53.8994395969      -17.7024785903  MEMB      347             0.0000000000
     43124       347  PYPG      P              -6.8592775070      -51.8264371589      -18.6879905183  MEMB      347             0.0000000000
     43125       347  PYPG      O13            -7.3273608883      -50.4640687287      -19.0718424645  MEMB      347             0.0000000000
     43126       347  PYPG      O14            -5.5787757767      -52.3017830550      -19.2085499826  MEMB      347             0.0000000000
     43127       347  PYPG      O11            -6.7922227992      -51.9063619169      -17.1265133537  MEMB      347             0.0000000000
     43128       347  PYPG      O12            -7.9762370887      -52.8438615801      -19.1323282380  MEMB      347             0.0000000000
     43129       347  PYPG      C1             -7.6132078527      -51.0938605954      -16.3803738032  MEMB      347             0.0000000000
     43130       347  PYPG      HA             -8.6761794833      -51.3848859228      -16.5207889022  MEMB      347             0.0000000000
     43131       347  PYPG      HB             -7.4528538166      -50.0346906795      -16.6749363328  MEMB      347             0.0000000000
     43132       347  PYPG      C2             -7.2533417308      -51.4330506727      -14.8818223423  MEMB      347             0.0000000000
     43133       347  PYPG      HS             -7.9405756476      -50.7786278957      -14.3041014308  MEMB      347             0.0000000000
     43134       347  PYPG      O21            -5.8570815112      -51.1229400741      -14.6634189846  MEMB      347             0.0000000000
     43135       347  PYPG      C21            -5.4854320378      -50.0207889807      -14.1277571448  MEMB      347             0.0000000000
     43136       347  PYPG      O22            -6.2249004062      -49.0874162043      -13.7401431004  MEMB      347             0.0000000000
     43137       347  PYPG      C22            -3.9838575498      -49.9466626690      -14.1136367509  MEMB      347             0.0000000000
     43138       347  PYPG      H2R            -3.6043763549      -48.9231289361      -13.9070108569  MEMB      347             0.0000000000
     43139       347  PYPG      H2S            -3.4024240723      -50.2394479413      -15.0139327511  MEMB      347             0.0000000000
     43140       347  PYPG      C3             -7.4142479137      -52.8928773541      -14.5153554669  MEMB      347             0.0000000000
     43141       347  PYPG      HX             -7.1854814441      -52.9636679576      -13.4304699622  MEMB      347             0.0000000000
     43142       347  PYPG      HY             -6.6981269683      -53.5717633904      -15.0258507229  MEMB      347             0.0000000000
     43143       347  PYPG      O31            -8.7790111623      -53.3731378458      -14.7080055580  MEMB      347             0.0000000000
     43144       347  PYPG      C31            -8.9452081061      -54.5114297283      -14.0641553074  MEMB      347             0.0000000000
     43145       347  PYPG      O32            -8.0237893740      -55.2166548052      -13.6126510458  MEMB      347             0.0000000000
     43146       347  PYPG      C32           -10.4431601468      -54.8352787397      -13.8960784833  MEMB      347             0.0000000000
     43147       347  PYPG      H2X           -11.0093684379      -53.8841040956      -13.8012329627  MEMB      347             0.0000000000
     43148       347  PYPG      H2Y           -10.8142573947      -55.4762465195      -14.7241894978  MEMB      347             0.0000000000
     43149       347  PYPG      C23            -3.4510490234      -50.7159610731      -12.8294085587  MEMB      347             0.0000000000
     43150       347  PYPG      H3R            -4.2239719890      -50.4942430944      -12.0627584178  MEMB      347             0.0000000000
     43151       347  PYPG      H3S            -2.5431638499      -50.2426191252      -12.3981158787  MEMB      347             0.0000000000
     43152       347  PYPG      C24            -3.1946095524      -52.1749764106      -13.0725711466  MEMB      347             0.0000000000
     43153       347  PYPG      H4R            -2.3801026631      -52.2478311252      -13.8246298605  MEMB      347             0.0000000000
     43154       347  PYPG      H4S            -4.1871340234      -52.5364779840      -13.4168563206  MEMB      347             0.0000000000
     43155       347  PYPG      C25            -2.6353382726      -52.9924626413      -11.8934488657  MEMB      347             0.0000000000
     43156       347  PYPG      H5R            -1.7999792754      -52.4056197300      -11.4551437072  MEMB      347             0.0000000000
     43157       347  PYPG      H5S            -2.3164631159      -53.9940009968      -12.2533940052  MEMB      347             0.0000000000
     43158       347  PYPG      C26            -3.7776638711      -53.3040104033      -10.7968084194  MEMB      347             0.0000000000
     43159       347  PYPG      H6R            -4.4904274700      -53.9550050774      -11.3468037798  MEMB      347             0.0000000000
     43160       347  PYPG      H6S            -4.1554289507      -52.2963737604      -10.5206152617  MEMB      347             0.0000000000
     43161       347  PYPG      C27            -3.3902855021      -54.0377087763       -9.5217316716  MEMB      347             0.0000000000
     43162       347  PYPG      H7R            -4.2074080873      -53.7446065481       -8.8283891480  MEMB      347             0.0000000000
     43163       347  PYPG      H7S            -2.5797238659      -53.4507143585       -9.0392912572  MEMB      347             0.0000000000
     43164       347  PYPG      C28            -3.2664157693      -55.5280464795       -9.6723820096  MEMB      347             0.0000000000
     43165       347  PYPG      H8R            -2.8488452139      -55.7895570856       -8.6766066466  MEMB      347             0.0000000000
     43166       347  PYPG      H8S            -2.3860343186      -55.7547105044      -10.3110305376  MEMB      347             0.0000000000
     43167       347  PYPG      C29            -4.6436420544      -56.1452918683       -9.9441600608  MEMB      347             0.0000000000
     43168       347  PYPG      H9R            -5.0596053302      -56.2103249769      -10.9604014541  MEMB      347             0.0000000000
     43169       347  PYPG      C210           -5.4187977320      -56.7936475613       -9.0200040111  MEMB      347             0.0000000000
     43170       347  PYPG      H10R           -6.3686328655      -57.2913794956       -9.2651079658  MEMB      347             0.0000000000
     43171       347  PYPG      C211           -5.0736481437      -57.0001571479       -7.5415098548  MEMB      347             0.0000000000
     43172       347  PYPG      H11R           -3.9664692602      -57.0148845014       -7.4506287714  MEMB      347             0.0000000000
     43173       347  PYPG      H11S           -5.4805296775      -57.9878877817       -7.2362942856  MEMB      347             0.0000000000
     43174       347  PYPG      C212           -5.6547598056      -55.8698981297       -6.6721987531  MEMB      347             0.0000000000
     43175       347  PYPG      H12R           -6.6181318929      -55.4678503230       -7.0524514375  MEMB      347             0.0000000000
     43176       347  PYPG      H12S           -4.8965222417      -55.0578761060       -6.6763565560  MEMB      347             0.0000000000
     43177       347  PYPG      C213           -5.8195474294      -56.1576544189       -5.2238550340  MEMB      347             0.0000000000
     43178       347  PYPG      H13R           -6.6042093792      -56.9236587859       -5.0453515832  MEMB      347             0.0000000000
     43179       347  PYPG      H13S           -6.0743670284      -55.1420770231       -4.8523840466  MEMB      347             0.0000000000
     43180       347  PYPG      C214           -4.5363787168      -56.5524086174       -4.5130430458  MEMB      347             0.0000000000
     43181       347  PYPG      H14R           -4.0048721438      -57.4115161491       -4.9753802918  MEMB      347             0.0000000000
     43182       347  PYPG      H14S           -3.7538656659      -55.7911867144       -4.7192840049  MEMB      347             0.0000000000
     43183       347  PYPG      C215           -4.6582153852      -56.7064145920       -2.9907798417  MEMB      347             0.0000000000
     43184       347  PYPG      H15R           -4.7195913972      -55.6934143491       -2.5386903279  MEMB      347             0.0000000000
     43185       347  PYPG      H15S           -3.6767539946      -57.1719023305       -2.7575921114  MEMB      347             0.0000000000
     43186       347  PYPG      C216           -5.6215304285      -57.7189983286       -2.4299586425  MEMB      347             0.0000000000
     43187       347  PYPG      H16R           -6.7132853839      -57.5238836913       -2.4957035987  MEMB      347             0.0000000000
     43188       347  PYPG      H16S           -5.4522558798      -57.8680501323       -1.3420938569  MEMB      347             0.0000000000
     43189       347  PYPG      H16T           -5.3999870933      -58.6821958075       -2.9373935686  MEMB      347             0.0000000000
     43190       347  PYPG      C33           -10.5635249703      -55.5991946807      -12.5369026805  MEMB      347             0.0000000000
     43191       347  PYPG      H3X            -9.9037328779      -56.4922574792      -12.4990307283  MEMB      347             0.0000000000
     43192       347  PYPG      H3Y           -11.6239957431      -55.9210286569      -12.6152958618  MEMB      347             0.0000000000
     43193       347  PYPG      C34           -10.4095917840      -54.6715303707      -11.3214135578  MEMB      347             0.0000000000
     43194       347  PYPG      H4X           -11.4179960744      -54.2246484803      -11.1882291051  MEMB      347             0.0000000000
     43195       347  PYPG      H4Y            -9.6928791549      -53.8323689501      -11.4496803433  MEMB      347             0.0000000000
     43196       347  PYPG      C35            -9.8425231759      -55.3449862190      -10.0442790128  MEMB      347             0.0000000000
     43197       347  PYPG      H5X            -9.1667416499      -54.6101343685       -9.5568023150  MEMB      347             0.0000000000
     43198       347  PYPG      H5Y            -9.1777863340      -56.2173516767      -10.2215479082  MEMB      347             0.0000000000
     43199       347  PYPG      C36           -11.0362659609      -55.9004745930       -9.2844583876  MEMB      347             0.0000000000
     43200       347  PYPG      H6X           -11.6493366962      -56.5965098785       -9.8960143708  MEMB      347             0.0000000000
     43201       347  PYPG      H6Y           -11.7069025188      -55.0558976394       -9.0175176336  MEMB      347             0.0000000000
     43202       347  PYPG      C37           -10.7143715595      -56.6094476847       -7.9281415736  MEMB      347             0.0000000000
     43203       347  PYPG      H7X           -11.6452784450      -57.1783546486       -7.7181936842  MEMB      347             0.0000000000
     43204       347  PYPG      H7Y            -9.8786176741      -57.2962060959       -8.1815176206  MEMB      347             0.0000000000
     43205       347  PYPG      C38           -10.3204563007      -55.7664874273       -6.7398845655  MEMB      347             0.0000000000
     43206       347  PYPG      H8X           -11.0232172477      -54.9131449897       -6.6291825088  MEMB      347             0.0000000000
     43207       347  PYPG      H8Y            -9.2874490274      -55.3852507269       -6.8877875915  MEMB      347             0.0000000000
     43208       347  PYPG      C39           -10.3360476658      -56.5024983752       -5.3947009178  MEMB      347             0.0000000000
     43209       347  PYPG      H9X            -9.5963369893      -57.3295653308       -5.4504622764  MEMB      347             0.0000000000
     43210       347  PYPG      H9Y           -11.3198023906      -57.0066912427       -5.2836260608  MEMB      347             0.0000000000
     43211       347  PYPG      C310           -9.9920473647      -55.6331996678       -4.2046589868  MEMB      347             0.0000000000
     43212       347  PYPG      H10X          -10.8339241191      -54.9195157784       -4.0773019342  MEMB      347             0.0000000000
     43213       347  PYPG      H10Y           -9.0097614473      -55.1509029521       -4.3965581825  MEMB      347             0.0000000000
     43214       347  PYPG      C311           -9.8827615307      -56.4569323055       -2.9030251846  MEMB      347             0.0000000000
     43215       347  PYPG      H11X           -9.2593747416      -57.3352503692       -3.1755448242  MEMB      347             0.0000000000
     43216       347  PYPG      H11Y          -10.8881881231      -56.8498319169       -2.6402162533  MEMB      347             0.0000000000
     43217       347  PYPG      C312           -9.0344614729      -55.8805444767       -1.7636308704  MEMB      347             0.0000000000
     43218       347  PYPG      H12X           -8.8094762391      -56.6786281556       -1.0241957247  MEMB      347             0.0000000000
     43219       347  PYPG      H12Y           -8.0527341439      -55.6713830008       -2.2398503005  MEMB      347             0.0000000000
     43220       347  PYPG      C313           -9.3592838120      -54.5726373484       -1.1777134105  MEMB      347             0.0000000000
     43221       347  PYPG      H13X           -9.9143935427      -54.0270782083       -1.9705188493  MEMB      347             0.0000000000
     43222       347  PYPG      H13Y          -10.0246624868      -54.6355287631       -0.2902250202  MEMB      347             0.0000000000
     43223       347  PYPG      C314           -8.1051655342      -53.6222686321       -0.8458455197  MEMB      347             0.0000000000
     43224       347  PYPG      H14X           -7.3309011825      -54.2979884282       -0.4236614993  MEMB      347             0.0000000000
     43225       347  PYPG      H14Y           -7.6007148445      -53.1750586555       -1.7289384182  MEMB      347             0.0000000000
     43226       347  PYPG      C315           -8.4956579369      -52.4707180935        0.1295172771  MEMB      347             0.0000000000
     43227       347  PYPG      H15X           -7.8577210175      -51.5846255076       -0.0759037385  MEMB      347             0.0000000000
     43228       347  PYPG      H15Y           -9.5491717164      -52.1900884779       -0.0842040317  MEMB      347             0.0000000000
     43229       347  PYPG      C316           -8.2474468308      -52.8524576215        1.6276006608  MEMB      347             0.0000000000
     43230       347  PYPG      H16X           -8.9048824115      -52.1961391500        2.2369818668  MEMB      347             0.0000000000
     43231       347  PYPG      H16Y           -7.1670302832      -52.7473428745        1.8641846952  MEMB      347             0.0000000000
     43232       347  PYPG      H16Z           -8.6135712310      -53.8949509613        1.7437116878  MEMB      347             0.0000000000
     43233       348  PMPE      N              37.2667950497       36.6450049409      -20.3441854903  MEMB      348             0.0000000000
     43234       348  PMPE      HN1            37.6973777515       36.0614604606      -21.0896213036  MEMB      348             0.0000000000
     43235       348  PMPE      HN2            37.9603147170       36.6122995702      -19.5698724857  MEMB      348             0.0000000000
     43236       348  PMPE      HN3            36.3239095034       36.3552710331      -20.0146082484  MEMB      348             0.0000000000
     43237       348  PMPE      C12            36.8857081367       37.9994969030      -20.7743597907  MEMB      348             0.0000000000
     43238       348  PMPE      H12A           36.2344219675       37.7986516743      -21.6517472653  MEMB      348             0.0000000000
     43239       348  PMPE      H12B           37.8057890720       38.5685989738      -21.0271341351  MEMB      348             0.0000000000
     43240       348  PMPE      C11            36.0244261401       38.6202131167      -19.6187065280  MEMB      348             0.0000000000
     43241       348  PMPE      H11A           35.1709836158       37.9210907585      -19.4876160461  MEMB      348             0.0000000000
     43242       348  PMPE      H11B           35.4086408497       39.4795862720      -19.9601846483  MEMB      348             0.0000000000
     43243       348  PMPE      P              37.2364944579       40.3501683670      -18.2681329667  MEMB      348             0.0000000000
     43244       348  PMPE      O13            37.6162137276       40.9722014364      -19.5573442995  MEMB      348             0.0000000000
     43245       348  PMPE      O14            38.2105704231       40.3631755652      -17.1361131649  MEMB      348             0.0000000000
     43246       348  PMPE      O11            35.9139579123       40.9744534171      -17.8527259174  MEMB      348             0.0000000000
     43247       348  PMPE      O12            36.7003813644       38.8623982359      -18.4484318438  MEMB      348             0.0000000000
     43248       348  PMPE      C1             35.8492640762       42.3622616923      -17.4363987461  MEMB      348             0.0000000000
     43249       348  PMPE      HA             35.1654665963       43.0115933000      -18.0238594190  MEMB      348             0.0000000000
     43250       348  PMPE      HB             36.7848291543       42.9560959342      -17.5163982001  MEMB      348             0.0000000000
     43251       348  PMPE      C2             35.1940785932       42.3303731732      -16.0211840379  MEMB      348             0.0000000000
     43252       348  PMPE      HS             34.9601707551       43.3692652942      -15.7044641320  MEMB      348             0.0000000000
     43253       348  PMPE      O21            36.0180836400       41.8287272331      -14.9530284461  MEMB      348             0.0000000000
     43254       348  PMPE      C21            37.1166615495       42.6032386405      -14.7346517684  MEMB      348             0.0000000000
     43255       348  PMPE      O22            37.3126530533       43.7225842158      -15.2086145300  MEMB      348             0.0000000000
     43256       348  PMPE      C22            38.1814870592       41.9004534137      -13.7855797351  MEMB      348             0.0000000000
     43257       348  PMPE      H2R            39.1767406020       42.2928710870      -14.0852459896  MEMB      348             0.0000000000
     43258       348  PMPE      H2S            38.1787421733       40.8020100108      -13.9521200500  MEMB      348             0.0000000000
     43259       348  PMPE      C3             33.8966279704       41.4050479118      -16.0730347885  MEMB      348             0.0000000000
     43260       348  PMPE      HX             33.4225070301       41.8175766267      -16.9891954186  MEMB      348             0.0000000000
     43261       348  PMPE      HY             33.2564924615       41.6751750909      -15.2060985306  MEMB      348             0.0000000000
     43262       348  PMPE      O31            34.0947731650       40.0190179978      -16.1481965454  MEMB      348             0.0000000000
     43263       348  PMPE      C31            34.0107636825       39.4100294186      -14.9536780899  MEMB      348             0.0000000000
     43264       348  PMPE      O32            33.6343551663       39.9232264453      -13.9008195215  MEMB      348             0.0000000000
     43265       348  PMPE      C32            34.2668093431       37.8855383012      -15.2218472601  MEMB      348             0.0000000000
     43266       348  PMPE      H2X            34.2086556651       37.5576164674      -16.2817560174  MEMB      348             0.0000000000
     43267       348  PMPE      H2Y            33.5448476003       37.3122301934      -14.6018393404  MEMB      348             0.0000000000
     43268       348  PMPE      C23            37.8099024376       42.2598568313      -12.2460753385  MEMB      348             0.0000000000
     43269       348  PMPE      H3R            38.5658807791       41.8503226366      -11.5424421948  MEMB      348             0.0000000000
     43270       348  PMPE      H3S            36.7929365824       41.9329567013      -11.9407265937  MEMB      348             0.0000000000
     43271       348  PMPE      C24            37.9577381402       43.7730350217      -12.0986773839  MEMB      348             0.0000000000
     43272       348  PMPE      H4R            37.3168582458       44.2216466685      -12.8875636176  MEMB      348             0.0000000000
     43273       348  PMPE      H4S            39.0156608569       44.1092746881      -12.1441009167  MEMB      348             0.0000000000
     43274       348  PMPE      C25            37.4050026997       44.2550148991      -10.7322294052  MEMB      348             0.0000000000
     43275       348  PMPE      H5R            37.7609492885       43.6082695117       -9.9019617618  MEMB      348             0.0000000000
     43276       348  PMPE      H5S            36.3120314447       44.0868329864      -10.8392315958  MEMB      348             0.0000000000
     43277       348  PMPE      C26            37.7344671465       45.7663154334      -10.4295336515  MEMB      348             0.0000000000
     43278       348  PMPE      H6R            37.7003875585       46.2549972938      -11.4267045258  MEMB      348             0.0000000000
     43279       348  PMPE      H6S            38.8095878906       45.6646592341      -10.1685701051  MEMB      348             0.0000000000
     43280       348  PMPE      C27            36.8640875748       46.4687813906       -9.3528884687  MEMB      348             0.0000000000
     43281       348  PMPE      H7R            35.9827048187       46.8573524670       -9.9065119101  MEMB      348             0.0000000000
     43282       348  PMPE      H7S            37.4021353858       47.3510718989       -8.9449810497  MEMB      348             0.0000000000
     43283       348  PMPE      C28            36.2283392219       45.5474581890       -8.2893943376  MEMB      348             0.0000000000
     43284       348  PMPE      H8R            37.1103125602       44.9410850895       -7.9914751686  MEMB      348             0.0000000000
     43285       348  PMPE      H8S            35.5624188423       44.8297578411       -8.8145399030  MEMB      348             0.0000000000
     43286       348  PMPE      C29            35.5557491234       46.3027009609       -7.2511427279  MEMB      348             0.0000000000
     43287       348  PMPE      H9R            34.6736258845       46.8526581580       -7.6432227866  MEMB      348             0.0000000000
     43288       348  PMPE      C217           36.2694502721       46.9104680621       -5.9941734339  MEMB      348             0.0000000000
     43289       348  PMPE      H17R           35.6834027165       47.8076654342       -5.8377320561  MEMB      348             0.0000000000
     43290       348  PMPE      H17S           37.3347938442       46.7157205675       -5.9965122639  MEMB      348             0.0000000000
     43291       348  PMPE      C210           35.3625905878       45.6576516877       -5.8886620108  MEMB      348             0.0000000000
     43292       348  PMPE      H10R           34.3458351377       45.9262087759       -5.5303241362  MEMB      348             0.0000000000
     43293       348  PMPE      C211           35.9860384129       44.3713170837       -5.5385105931  MEMB      348             0.0000000000
     43294       348  PMPE      H11R           37.0805283223       44.4162377800       -5.7239696893  MEMB      348             0.0000000000
     43295       348  PMPE      H11S           35.7136260368       43.6599745102       -6.3472778928  MEMB      348             0.0000000000
     43296       348  PMPE      C212           35.4768607667       43.8214310694       -4.1349901924  MEMB      348             0.0000000000
     43297       348  PMPE      H12R           34.4766512057       43.5009793024       -4.4972222302  MEMB      348             0.0000000000
     43298       348  PMPE      H12S           35.1864578917       44.7117954153       -3.5372959627  MEMB      348             0.0000000000
     43299       348  PMPE      C213           36.2609505105       42.6749728397       -3.4211715085  MEMB      348             0.0000000000
     43300       348  PMPE      H13R           37.1427521081       43.1565735450       -2.9470319293  MEMB      348             0.0000000000
     43301       348  PMPE      H13S           36.6392482918       42.0707112435       -4.2732751624  MEMB      348             0.0000000000
     43302       348  PMPE      C214           35.5957191959       41.8214937776       -2.4006326901  MEMB      348             0.0000000000
     43303       348  PMPE      H14R           36.4005809147       41.1235675961       -2.0853273468  MEMB      348             0.0000000000
     43304       348  PMPE      H14S           34.8170620719       41.2934286333       -2.9915309030  MEMB      348             0.0000000000
     43305       348  PMPE      C215           34.8470455899       42.6531114798       -1.2815803406  MEMB      348             0.0000000000
     43306       348  PMPE      H15R           34.2613232386       41.9240804749       -0.6817772620  MEMB      348             0.0000000000
     43307       348  PMPE      H15S           34.0633378599       43.2445468593       -1.8015106765  MEMB      348             0.0000000000
     43308       348  PMPE      C216           35.8516901645       43.4599553191       -0.4413415149  MEMB      348             0.0000000000
     43309       348  PMPE      H16R           36.2308856317       42.8238167303        0.3868239632  MEMB      348             0.0000000000
     43310       348  PMPE      H16S           36.7302444298       43.7830870416       -1.0397141541  MEMB      348             0.0000000000
     43311       348  PMPE      H16T           35.3342239272       44.2775106659        0.1046910253  MEMB      348             0.0000000000
     43312       348  PMPE      C33            35.6605535935       37.4244103023      -14.7522062171  MEMB      348             0.0000000000
     43313       348  PMPE      H3X            36.3521029671       37.9644711863      -15.4336858486  MEMB      348             0.0000000000
     43314       348  PMPE      H3Y            35.8013851378       36.3312778937      -14.8920234295  MEMB      348             0.0000000000
     43315       348  PMPE      C34            36.1715367746       37.8079074368      -13.3757877600  MEMB      348             0.0000000000
     43316       348  PMPE      H4X            36.2250349807       38.9167311435      -13.3314163065  MEMB      348             0.0000000000
     43317       348  PMPE      H4Y            37.1988225154       37.3893548130      -13.3139913664  MEMB      348             0.0000000000
     43318       348  PMPE      C35            35.4413935768       37.1595987471      -12.1750124356  MEMB      348             0.0000000000
     43319       348  PMPE      H5X            35.5802129430       36.0672258850      -12.3225654487  MEMB      348             0.0000000000
     43320       348  PMPE      H5Y            34.3982923692       37.4984145225      -12.3523957453  MEMB      348             0.0000000000
     43321       348  PMPE      C36            35.9283621440       37.5983078205      -10.7384621271  MEMB      348             0.0000000000
     43322       348  PMPE      H6X            36.7549505496       36.9795379472      -10.3283448390  MEMB      348             0.0000000000
     43323       348  PMPE      H6Y            35.0486381965       37.4387515011      -10.0789557056  MEMB      348             0.0000000000
     43324       348  PMPE      C37            36.2765771541       39.1055233751      -10.6347663135  MEMB      348             0.0000000000
     43325       348  PMPE      H7X            35.4038033686       39.6815282517      -11.0100068169  MEMB      348             0.0000000000
     43326       348  PMPE      H7Y            37.2489340652       39.3379685751      -11.1193406607  MEMB      348             0.0000000000
     43327       348  PMPE      C38            36.4779172625       39.6016721609       -9.1805299593  MEMB      348             0.0000000000
     43328       348  PMPE      H8X            35.7565656148       39.0029221117       -8.5843154192  MEMB      348             0.0000000000
     43329       348  PMPE      H8Y            36.2145196028       40.6789666112       -9.1143547853  MEMB      348             0.0000000000
     43330       348  PMPE      C39            37.8240072663       39.3690565086       -8.5837138667  MEMB      348             0.0000000000
     43331       348  PMPE      H9X            38.5346766651       40.1654349984       -8.8920176615  MEMB      348             0.0000000000
     43332       348  PMPE      H9Y            38.2738805633       38.3911065479       -8.8585755051  MEMB      348             0.0000000000
     43333       348  PMPE      C310           37.8690252669       39.3788485849       -6.9347537903  MEMB      348             0.0000000000
     43334       348  PMPE      H10X           37.2344414012       38.5444653165       -6.5667471300  MEMB      348             0.0000000000
     43335       348  PMPE      H10Y           37.4025677436       40.3539331057       -6.6779492966  MEMB      348             0.0000000000
     43336       348  PMPE      C311           39.2417117567       39.0406592593       -6.2774358606  MEMB      348             0.0000000000
     43337       348  PMPE      H11X           39.5824907285       38.1776637057       -6.8885248695  MEMB      348             0.0000000000
     43338       348  PMPE      H11Y           39.1921420950       38.6813614170       -5.2273075285  MEMB      348             0.0000000000
     43339       348  PMPE      C312           40.4052024287       40.0249711460       -6.4343152013  MEMB      348             0.0000000000
     43340       348  PMPE      H12X           40.5103318039       40.3104127674       -7.5028614355  MEMB      348             0.0000000000
     43341       348  PMPE      H12Y           41.3723541095       39.5214009528       -6.2213475670  MEMB      348             0.0000000000
     43342       348  PMPE      C313           40.2952487385       41.3057287310       -5.5630548806  MEMB      348             0.0000000000
     43343       348  PMPE      H13X           39.2820741536       41.7562341427       -5.6326456061  MEMB      348             0.0000000000
     43344       348  PMPE      H13Y           41.0574208770       42.0138651818       -5.9528721554  MEMB      348             0.0000000000
     43345       348  PMPE      C314           40.5175457782       40.9469354393       -4.0887787230  MEMB      348             0.0000000000
     43346       348  PMPE      H14X           41.3365592736       40.1973654041       -4.0477640924  MEMB      348             0.0000000000
     43347       348  PMPE      H14Y           39.6067157939       40.3758061248       -3.8085628114  MEMB      348             0.0000000000
     43348       348  PMPE      C315           40.5689739842       41.9907624021       -3.0660252063  MEMB      348             0.0000000000
     43349       348  PMPE      H15X           39.6977597890       42.6742030841       -3.1566657184  MEMB      348             0.0000000000
     43350       348  PMPE      H15Y           41.4789800434       42.6279054177       -3.0499295971  MEMB      348             0.0000000000
     43351       348  PMPE      C316           40.5467024237       41.5147673469       -1.6449174036  MEMB      348             0.0000000000
     43352       348  PMPE      H16X           41.5913230913       41.2755138487       -1.3519225772  MEMB      348             0.0000000000
     43353       348  PMPE      H16Y           39.8618153793       40.6485720413       -1.5226202323  MEMB      348             0.0000000000
     43354       348  PMPE      H16Z           40.1588336794       42.3039856226       -0.9659379222  MEMB      348             0.0000000000
     43355       349  POPE      N              55.3063321015       12.3370981037      -19.3413602724  MEMB      349             0.0000000000
     43356       349  POPE      HN1            56.1591963841       12.9245289739      -19.2457176694  MEMB      349             0.0000000000
     43357       349  POPE      HN2            55.5028840044       11.5425017205      -19.9829082849  MEMB      349             0.0000000000
     43358       349  POPE      HN3            54.5263301732       12.9329549856      -19.6850921074  MEMB      349             0.0000000000
     43359       349  POPE      C12            54.9158713967       11.6989690968      -18.0236003398  MEMB      349             0.0000000000
     43360       349  POPE      H12A           54.6604641649       12.5168889356      -17.3164261951  MEMB      349             0.0000000000
     43361       349  POPE      H12B           55.7319333512       11.0649173293      -17.6157495650  MEMB      349             0.0000000000
     43362       349  POPE      C11            53.7727948772       10.6464167749      -18.1712647135  MEMB      349             0.0000000000
     43363       349  POPE      H11A           52.8298170952       11.1530680033      -18.4686172168  MEMB      349             0.0000000000
     43364       349  POPE      H11B           53.5704237048       10.0937783155      -17.2289497490  MEMB      349             0.0000000000
     43365       349  POPE      P              53.3767833850        8.3716033765      -19.3410027136  MEMB      349             0.0000000000
     43366       349  POPE      O13            54.0650972637        7.6021912638      -20.4240446797  MEMB      349             0.0000000000
     43367       349  POPE      O14            51.9195209265        8.6109409190      -19.5038277198  MEMB      349             0.0000000000
     43368       349  POPE      O11            53.5841769956        7.5452320326      -18.0045236405  MEMB      349             0.0000000000
     43369       349  POPE      O12            54.1270691692        9.6910765710      -19.1903759205  MEMB      349             0.0000000000
     43370       349  POPE      C1             54.8708888639        6.9823468555      -17.7478044110  MEMB      349             0.0000000000
     43371       349  POPE      HA             55.7530008285        7.6548922653      -17.8101116322  MEMB      349             0.0000000000
     43372       349  POPE      HB             55.0172647846        6.1468373703      -18.4653132420  MEMB      349             0.0000000000
     43373       349  POPE      C2             54.8735108040        6.4699712304      -16.2571713501  MEMB      349             0.0000000000
     43374       349  POPE      HS             55.8275602113        5.9604384072      -16.0032287728  MEMB      349             0.0000000000
     43375       349  POPE      O21            53.6708204754        5.7098890796      -15.9694085542  MEMB      349             0.0000000000
     43376       349  POPE      C21            53.8509842971        4.8335578465      -14.9707989667  MEMB      349             0.0000000000
     43377       349  POPE      O22            54.8854206413        4.3994684856      -14.5264539933  MEMB      349             0.0000000000
     43378       349  POPE      C22            52.4311112155        4.3786740365      -14.5565000564  MEMB      349             0.0000000000
     43379       349  POPE      H2R            52.1939108505        3.5242583534      -15.2258513066  MEMB      349             0.0000000000
     43380       349  POPE      H2S            51.7199727761        5.1958619601      -14.8030905940  MEMB      349             0.0000000000
     43381       349  POPE      C3             54.9175379190        7.6633536819      -15.2080425347  MEMB      349             0.0000000000
     43382       349  POPE      HX             55.7318406761        8.2935920238      -15.6252140552  MEMB      349             0.0000000000
     43383       349  POPE      HY             55.2489654171        7.2238645481      -14.2429904424  MEMB      349             0.0000000000
     43384       349  POPE      O31            53.7176611021        8.4582614111      -15.2554880925  MEMB      349             0.0000000000
     43385       349  POPE      C31            52.8225531259        8.4102440724      -14.3451872410  MEMB      349             0.0000000000
     43386       349  POPE      O32            52.8859148931        7.8539676484      -13.2546064246  MEMB      349             0.0000000000
     43387       349  POPE      C32            51.5739971749        9.1866466740      -14.7567171053  MEMB      349             0.0000000000
     43388       349  POPE      H2X            50.7211493688        8.5914352256      -14.3659553845  MEMB      349             0.0000000000
     43389       349  POPE      H2Y            51.4296570628        9.1415886192      -15.8573787878  MEMB      349             0.0000000000
     43390       349  POPE      C23            52.4848201561        4.0944713077      -13.0173442490  MEMB      349             0.0000000000
     43391       349  POPE      H3R            52.9021610487        4.9032931203      -12.3801985240  MEMB      349             0.0000000000
     43392       349  POPE      H3S            52.8700978291        3.0743414087      -12.8047017880  MEMB      349             0.0000000000
     43393       349  POPE      C24            50.9960157534        3.9913608569      -12.5164408896  MEMB      349             0.0000000000
     43394       349  POPE      H4R            50.5549900688        3.2539377247      -13.2207307470  MEMB      349             0.0000000000
     43395       349  POPE      H4S            50.6234789415        5.0208209330      -12.7055156664  MEMB      349             0.0000000000
     43396       349  POPE      C25            50.8036306947        3.4637504394      -11.0585804909  MEMB      349             0.0000000000
     43397       349  POPE      H5R            51.2521788588        2.4531987245      -11.1677153414  MEMB      349             0.0000000000
     43398       349  POPE      H5S            49.7291537039        3.2550493795      -10.8681498521  MEMB      349             0.0000000000
     43399       349  POPE      C26            51.4807458416        4.0655775248       -9.8521558512  MEMB      349             0.0000000000
     43400       349  POPE      H6R            52.5867730822        4.1448319438       -9.9210275063  MEMB      349             0.0000000000
     43401       349  POPE      H6S            51.3068926352        3.4736127435       -8.9282108669  MEMB      349             0.0000000000
     43402       349  POPE      C27            50.9445738058        5.5398124124       -9.4288266995  MEMB      349             0.0000000000
     43403       349  POPE      H7R            49.8736807072        5.4920210933       -9.1368931805  MEMB      349             0.0000000000
     43404       349  POPE      H7S            51.0291123218        6.0286287894      -10.4229254706  MEMB      349             0.0000000000
     43405       349  POPE      C28            51.7670567570        6.4105000036       -8.4656795836  MEMB      349             0.0000000000
     43406       349  POPE      H8R            51.7144361937        5.7253711979       -7.5926668869  MEMB      349             0.0000000000
     43407       349  POPE      H8S            51.2646422594        7.3471775690       -8.1423593618  MEMB      349             0.0000000000
     43408       349  POPE      C29            53.1934244734        6.7210174468       -8.9309857351  MEMB      349             0.0000000000
     43409       349  POPE      H91            53.3986598035        7.0729257291       -9.9527672965  MEMB      349             0.0000000000
     43410       349  POPE      C210           54.3429951344        6.4084843288       -8.2288163833  MEMB      349             0.0000000000
     43411       349  POPE      H101           55.2707534958        6.7832377185       -8.6857899931  MEMB      349             0.0000000000
     43412       349  POPE      C211           54.4187314224        5.7363363100       -6.9191568699  MEMB      349             0.0000000000
     43413       349  POPE      H11R           55.4032155550        5.2255057461       -6.8546196099  MEMB      349             0.0000000000
     43414       349  POPE      H11S           53.6449490996        4.9418448737       -6.8530870846  MEMB      349             0.0000000000
     43415       349  POPE      C212           54.1461366471        6.5827039245       -5.5864919470  MEMB      349             0.0000000000
     43416       349  POPE      H12R           54.1405742220        5.8237787253       -4.7751215453  MEMB      349             0.0000000000
     43417       349  POPE      H12S           53.0807383954        6.8938511402       -5.6358355317  MEMB      349             0.0000000000
     43418       349  POPE      C213           55.0759378239        7.6634676176       -5.2393255555  MEMB      349             0.0000000000
     43419       349  POPE      H13R           55.0711469240        8.3953379376       -6.0751862890  MEMB      349             0.0000000000
     43420       349  POPE      H13S           56.0854571326        7.2832736714       -4.9735348581  MEMB      349             0.0000000000
     43421       349  POPE      C214           54.5428181777        8.5183159334       -3.9919140189  MEMB      349             0.0000000000
     43422       349  POPE      H14R           55.3147604542        9.2182687463       -3.6065670917  MEMB      349             0.0000000000
     43423       349  POPE      H14S           54.2888913763        7.8091726082       -3.1752392025  MEMB      349             0.0000000000
     43424       349  POPE      C215           53.2869356871        9.4251583506       -4.1904538835  MEMB      349             0.0000000000
     43425       349  POPE      H15R           52.4688756839        8.7774476321       -4.5719896215  MEMB      349             0.0000000000
     43426       349  POPE      H15S           53.5830792728       10.1251425255       -5.0007885553  MEMB      349             0.0000000000
     43427       349  POPE      C216           52.8528063693       10.1481968753       -2.8612132185  MEMB      349             0.0000000000
     43428       349  POPE      H16R           53.8031466769       10.5149464206       -2.4177395824  MEMB      349             0.0000000000
     43429       349  POPE      H16S           52.5236297556        9.3381250965       -2.1758332044  MEMB      349             0.0000000000
     43430       349  POPE      C217           51.7628563305       11.1878338330       -3.0506501482  MEMB      349             0.0000000000
     43431       349  POPE      H17R           50.8056063249       10.6994139240       -3.3325011212  MEMB      349             0.0000000000
     43432       349  POPE      H17S           51.9566263800       11.9176380380       -3.8656099972  MEMB      349             0.0000000000
     43433       349  POPE      C218           51.5039858160       11.8669662444       -1.6938532115  MEMB      349             0.0000000000
     43434       349  POPE      H18R           52.4722586311       12.2704795527       -1.3278668226  MEMB      349             0.0000000000
     43435       349  POPE      H18S           51.2851591430       11.0161808347       -1.0137053591  MEMB      349             0.0000000000
     43436       349  POPE      H18T           50.6862938766       12.6188265833       -1.7140285245  MEMB      349             0.0000000000
     43437       349  POPE      C33            51.6776013524       10.6119245087      -14.0970460302  MEMB      349             0.0000000000
     43438       349  POPE      H3X            51.2428242982       11.4132179449      -14.7320412214  MEMB      349             0.0000000000
     43439       349  POPE      H3Y            52.7126483243       10.9344551659      -13.8542027042  MEMB      349             0.0000000000
     43440       349  POPE      C34            50.9215201920       10.5968497170      -12.7690487282  MEMB      349             0.0000000000
     43441       349  POPE      H4X            50.4715729502        9.5837967355      -12.6942667136  MEMB      349             0.0000000000
     43442       349  POPE      H4Y            50.2074039852       11.4414074160      -12.6637799816  MEMB      349             0.0000000000
     43443       349  POPE      C35            51.7797746867       10.6061050541      -11.4508098884  MEMB      349             0.0000000000
     43444       349  POPE      H5X            52.1749930608       11.6342674411      -11.3058776502  MEMB      349             0.0000000000
     43445       349  POPE      H5Y            52.5873517416        9.8439888663      -11.4871343243  MEMB      349             0.0000000000
     43446       349  POPE      C36            50.9555672377       10.3020676690      -10.1538981104  MEMB      349             0.0000000000
     43447       349  POPE      H6X            50.5945804021        9.2534197633      -10.0879657445  MEMB      349             0.0000000000
     43448       349  POPE      H6Y            50.1115208206       11.0244019209      -10.1657293877  MEMB      349             0.0000000000
     43449       349  POPE      C37            51.6944971401       10.5471036872       -8.7427378952  MEMB      349             0.0000000000
     43450       349  POPE      H7X            52.3026319070       11.4592339952       -8.9230469038  MEMB      349             0.0000000000
     43451       349  POPE      H7Y            52.3172717777        9.6407389423       -8.5847009179  MEMB      349             0.0000000000
     43452       349  POPE      C38            50.8218018733       10.7630040173       -7.5629429444  MEMB      349             0.0000000000
     43453       349  POPE      H8X            50.3478108858       11.7612923490       -7.6772846909  MEMB      349             0.0000000000
     43454       349  POPE      H8Y            51.4560336225       10.9875236269       -6.6788258623  MEMB      349             0.0000000000
     43455       349  POPE      C39            49.5813574231        9.8878722604       -7.3888425768  MEMB      349             0.0000000000
     43456       349  POPE      H9X            49.9009491581        8.8666988088       -7.6878191465  MEMB      349             0.0000000000
     43457       349  POPE      H9Y            48.9164726727       10.1629739879       -8.2353465952  MEMB      349             0.0000000000
     43458       349  POPE      C310           49.0189633196        9.8751383815       -6.0002655780  MEMB      349             0.0000000000
     43459       349  POPE      H10X           48.5060283359       10.8541384460       -5.8872266604  MEMB      349             0.0000000000
     43460       349  POPE      H10Y           49.8779905010        9.8078806776       -5.2989317451  MEMB      349             0.0000000000
     43461       349  POPE      C311           47.9117863986        8.8300025961       -5.7812016512  MEMB      349             0.0000000000
     43462       349  POPE      H11X           46.9883234252        9.2087849173       -6.2691162730  MEMB      349             0.0000000000
     43463       349  POPE      H11Y           47.6277338305        8.7372736088       -4.7111378696  MEMB      349             0.0000000000
     43464       349  POPE      C312           48.2598095478        7.4151106638       -6.2159804236  MEMB      349             0.0000000000
     43465       349  POPE      H12X           48.6416502249        7.3898761432       -7.2589957604  MEMB      349             0.0000000000
     43466       349  POPE      H12Y           47.3059874556        6.8605842710       -6.0854229342  MEMB      349             0.0000000000
     43467       349  POPE      C313           49.3421645125        6.9624145437       -5.2785423296  MEMB      349             0.0000000000
     43468       349  POPE      H13X           49.3782261650        7.5901713548       -4.3626044608  MEMB      349             0.0000000000
     43469       349  POPE      H13Y           50.3674038217        7.1189076451       -5.6769325930  MEMB      349             0.0000000000
     43470       349  POPE      C314           49.2735509332        5.4008860634       -4.8432932200  MEMB      349             0.0000000000
     43471       349  POPE      H14X           49.2230965445        4.8050466141       -5.7796425630  MEMB      349             0.0000000000
     43472       349  POPE      H14Y           48.3531428345        5.1312464628       -4.2825205484  MEMB      349             0.0000000000
     43473       349  POPE      C315           50.5837738320        4.8492082737       -4.0549617471  MEMB      349             0.0000000000
     43474       349  POPE      H15X           50.4617107198        5.3115743537       -3.0521467957  MEMB      349             0.0000000000
     43475       349  POPE      H15Y           51.4677987344        5.2457760000       -4.5986120601  MEMB      349             0.0000000000
     43476       349  POPE      C316           50.7599037137        3.3058581724       -3.9415739889  MEMB      349             0.0000000000
     43477       349  POPE      H16X           50.6806433116        2.7502024603       -4.9003670823  MEMB      349             0.0000000000
     43478       349  POPE      H16Y           49.8968226714        2.9703184800       -3.3277107201  MEMB      349             0.0000000000
     43479       349  POPE      H16Z           51.6299624137        3.0952647327       -3.2835700351  MEMB      349             0.0000000000
     43480       350  QMPE      N             -56.7964107041        2.9585124978      -17.2718191250  MEMB      350             0.0000000000
     43481       350  QMPE      HN1           -57.6529082102        3.5435353659      -17.1959228707  MEMB      350             0.0000000000
     43482       350  QMPE      HN2           -56.6982897360        2.4106000999      -16.3933181773  MEMB      350             0.0000000000
     43483       350  QMPE      HN3           -55.9787520863        3.5318133971      -17.5622681400  MEMB      350             0.0000000000
     43484       350  QMPE      C12           -56.9932109508        1.9006134979      -18.3216470988  MEMB      350             0.0000000000
     43485       350  QMPE      H12A          -57.2944145333        2.3628824718      -19.2859629009  MEMB      350             0.0000000000
     43486       350  QMPE      H12B          -57.8303340576        1.2153219111      -18.0688203777  MEMB      350             0.0000000000
     43487       350  QMPE      C11           -55.6461487713        1.1847008710      -18.6163989300  MEMB      350             0.0000000000
     43488       350  QMPE      H11A          -55.8678535934        0.2656867111      -19.1999920976  MEMB      350             0.0000000000
     43489       350  QMPE      H11B          -55.2767593574        0.8423666567      -17.6261061727  MEMB      350             0.0000000000
     43490       350  QMPE      P             -53.3108508242        1.6807636141      -19.5977055811  MEMB      350             0.0000000000
     43491       350  QMPE      O13           -52.5087616420        2.8936989010      -19.7806640074  MEMB      350             0.0000000000
     43492       350  QMPE      O14           -53.2524492877        0.7585417909      -20.7355576775  MEMB      350             0.0000000000
     43493       350  QMPE      O11           -52.9056635580        1.0543430459      -18.2949630110  MEMB      350             0.0000000000
     43494       350  QMPE      O12           -54.8296618654        2.0946858577      -19.3812445688  MEMB      350             0.0000000000
     43495       350  QMPE      C1            -52.8859169168        1.5384529084      -16.9775124987  MEMB      350             0.0000000000
     43496       350  QMPE      HA            -53.7906433315        2.1546323382      -16.7874755183  MEMB      350             0.0000000000
     43497       350  QMPE      HB            -52.0183862742        2.2256781344      -16.8803882358  MEMB      350             0.0000000000
     43498       350  QMPE      C2            -52.6860034412        0.4633352948      -15.8880148077  MEMB      350             0.0000000000
     43499       350  QMPE      HS            -51.7126196143       -0.0467654824      -16.0512383932  MEMB      350             0.0000000000
     43500       350  QMPE      O21           -53.7708059464       -0.4741676885      -16.0023855229  MEMB      350             0.0000000000
     43501       350  QMPE      C21           -53.5977779633       -1.6898084307      -15.5398919074  MEMB      350             0.0000000000
     43502       350  QMPE      O22           -52.5021859207       -2.0785382715      -15.1503058729  MEMB      350             0.0000000000
     43503       350  QMPE      C22           -54.8546749479       -2.4850639620      -15.6012418269  MEMB      350             0.0000000000
     43504       350  QMPE      H2R           -54.7597696726       -3.5292092898      -15.2337157888  MEMB      350             0.0000000000
     43505       350  QMPE      H2S           -55.2167875968       -2.4193577127      -16.6495155609  MEMB      350             0.0000000000
     43506       350  QMPE      C3            -52.6760810543        1.0760277564      -14.4674072159  MEMB      350             0.0000000000
     43507       350  QMPE      HX            -53.3232543866        1.9790604884      -14.4629651410  MEMB      350             0.0000000000
     43508       350  QMPE      HY            -51.5906100597        1.3116217652      -14.4912664092  MEMB      350             0.0000000000
     43509       350  QMPE      O31           -53.0681293400        0.1538348884      -13.3351318119  MEMB      350             0.0000000000
     43510       350  QMPE      C31           -52.3351729074        0.3789237612      -12.2293200830  MEMB      350             0.0000000000
     43511       350  QMPE      O32           -51.5770366417        1.3088263410      -12.0744852654  MEMB      350             0.0000000000
     43512       350  QMPE      C32           -52.5535085164       -0.7953886733      -11.2288109884  MEMB      350             0.0000000000
     43513       350  QMPE      H2X           -53.6181222494       -0.7072173365      -10.9236151965  MEMB      350             0.0000000000
     43514       350  QMPE      H2Y           -52.3701534094       -1.7291318281      -11.8022442390  MEMB      350             0.0000000000
     43515       350  QMPE      C23           -55.8179470344       -1.7240335572      -14.6132799321  MEMB      350             0.0000000000
     43516       350  QMPE      H3R           -56.8043210837       -1.9460088042      -15.0738382134  MEMB      350             0.0000000000
     43517       350  QMPE      H3S           -55.7930277759       -0.6225201816      -14.7559973509  MEMB      350             0.0000000000
     43518       350  QMPE      C24           -55.7378777594       -2.0774124097      -13.0700271386  MEMB      350             0.0000000000
     43519       350  QMPE      H4R           -54.7446458460       -1.8819315684      -12.6122076828  MEMB      350             0.0000000000
     43520       350  QMPE      H4S           -55.9966431476       -3.1478637045      -12.9234126275  MEMB      350             0.0000000000
     43521       350  QMPE      C25           -56.8766284528       -1.3513707250      -12.2258610814  MEMB      350             0.0000000000
     43522       350  QMPE      H5R           -56.6334681789       -1.6418255185      -11.1814328603  MEMB      350             0.0000000000
     43523       350  QMPE      H5S           -57.8558002127       -1.8355950887      -12.4285181118  MEMB      350             0.0000000000
     43524       350  QMPE      C26           -57.0346763284        0.2028193816      -12.4338391574  MEMB      350             0.0000000000
     43525       350  QMPE      H6R           -57.3242735633        0.3856950747      -13.4907263876  MEMB      350             0.0000000000
     43526       350  QMPE      H6S           -56.0689700008        0.7250629399      -12.2635631736  MEMB      350             0.0000000000
     43527       350  QMPE      C27           -58.1925801334        0.9097646823      -11.6009337422  MEMB      350             0.0000000000
     43528       350  QMPE      H7R           -59.1892214045        0.5243687895      -11.9050664340  MEMB      350             0.0000000000
     43529       350  QMPE      H7S           -58.1707970184        1.9915987445      -11.8528888566  MEMB      350             0.0000000000
     43530       350  QMPE      C28           -58.1005967233        0.6248219831      -10.1057326787  MEMB      350             0.0000000000
     43531       350  QMPE      H8R           -58.1375348214       -0.4855539558      -10.1103980684  MEMB      350             0.0000000000
     43532       350  QMPE      H8S           -58.8957353128        1.0999536574       -9.4922788355  MEMB      350             0.0000000000
     43533       350  QMPE      C29           -56.7941299593        1.0464461915       -9.4198539196  MEMB      350             0.0000000000
     43534       350  QMPE      H9R           -56.0726459688        1.6834504114       -9.9748379533  MEMB      350             0.0000000000
     43535       350  QMPE      C217          -56.0960422117       -0.0304709844       -8.6898611397  MEMB      350             0.0000000000
     43536       350  QMPE      H17R          -56.6691256171       -0.9424197172       -8.5766631303  MEMB      350             0.0000000000
     43537       350  QMPE      H17S          -55.0191219914        0.0080251302       -8.5819259837  MEMB      350             0.0000000000
     43538       350  QMPE      C210          -56.7411221173        1.0941337642       -7.9253636055  MEMB      350             0.0000000000
     43539       350  QMPE      H10R          -56.1116157933        1.9614406472       -7.6324107473  MEMB      350             0.0000000000
     43540       350  QMPE      C211          -57.8195699719        0.6081901769       -6.9834050017  MEMB      350             0.0000000000
     43541       350  QMPE      H11R          -58.6925095713        0.1552381115       -7.5002534516  MEMB      350             0.0000000000
     43542       350  QMPE      H11S          -57.3665755112       -0.1861136676       -6.3523756240  MEMB      350             0.0000000000
     43543       350  QMPE      C212          -58.4855327464        1.7561975504       -6.1304745680  MEMB      350             0.0000000000
     43544       350  QMPE      H12R          -58.8102614973        2.6065812284       -6.7674354332  MEMB      350             0.0000000000
     43545       350  QMPE      H12S          -57.7419647419        2.1029684815       -5.3813564580  MEMB      350             0.0000000000
     43546       350  QMPE      C213          -59.7417481090        1.3015501847       -5.3235574349  MEMB      350             0.0000000000
     43547       350  QMPE      H13R          -60.5397034981        0.9478006609       -6.0109068930  MEMB      350             0.0000000000
     43548       350  QMPE      H13S          -60.0512622679        2.2006801015       -4.7490249706  MEMB      350             0.0000000000
     43549       350  QMPE      C214          -59.4777219651        0.1661739820       -4.3503183423  MEMB      350             0.0000000000
     43550       350  QMPE      H14R          -59.1393937427       -0.7193998699       -4.9296403698  MEMB      350             0.0000000000
     43551       350  QMPE      H14S          -60.4111797147        0.0127203135       -3.7677121676  MEMB      350             0.0000000000
     43552       350  QMPE      C215          -58.4163479626        0.2550817769       -3.1923488947  MEMB      350             0.0000000000
     43553       350  QMPE      H15R          -58.8171498839        1.1514308302       -2.6725042054  MEMB      350             0.0000000000
     43554       350  QMPE      H15S          -57.4208081343        0.4549130473       -3.6432239396  MEMB      350             0.0000000000
     43555       350  QMPE      C216          -58.2447141889       -0.9351503071       -2.2474273009  MEMB      350             0.0000000000
     43556       350  QMPE      H16R          -57.9560834627       -1.9190423230       -2.6751764500  MEMB      350             0.0000000000
     43557       350  QMPE      H16S          -59.0846180059       -1.0255065117       -1.5258177507  MEMB      350             0.0000000000
     43558       350  QMPE      H16T          -57.3471438231       -0.6975947346       -1.6372993743  MEMB      350             0.0000000000
     43559       350  QMPE      C33           -51.7951646866       -0.5861015667       -9.9448401276  MEMB      350             0.0000000000
     43560       350  QMPE      H3X           -52.0484656473        0.3989864594       -9.4978932811  MEMB      350             0.0000000000
     43561       350  QMPE      H3Y           -50.7066487083       -0.7314896657      -10.1131140393  MEMB      350             0.0000000000
     43562       350  QMPE      C34           -52.0835842508       -1.6352714146       -8.8936134164  MEMB      350             0.0000000000
     43563       350  QMPE      H4X           -51.7283137745       -2.6621915667       -9.1249984480  MEMB      350             0.0000000000
     43564       350  QMPE      H4Y           -53.1672095999       -1.7276531801       -8.6665836227  MEMB      350             0.0000000000
     43565       350  QMPE      C35           -51.4919167078       -1.2817786068       -7.4901737924  MEMB      350             0.0000000000
     43566       350  QMPE      H5X           -50.4043073428       -1.1684831911       -7.6866200268  MEMB      350             0.0000000000
     43567       350  QMPE      H5Y           -51.6770637246       -2.1742487794       -6.8549265329  MEMB      350             0.0000000000
     43568       350  QMPE      C36           -52.0188023680       -0.0265783514       -6.8923234912  MEMB      350             0.0000000000
     43569       350  QMPE      H6X           -53.0622554023        0.0466813545       -7.2667033350  MEMB      350             0.0000000000
     43570       350  QMPE      H6Y           -51.4080813924        0.8210591314       -7.2702800975  MEMB      350             0.0000000000
     43571       350  QMPE      C37           -51.9821625749       -0.0825216545       -5.3343135810  MEMB      350             0.0000000000
     43572       350  QMPE      H7X           -52.7314633758       -0.7788059929       -4.9006575542  MEMB      350             0.0000000000
     43573       350  QMPE      H7Y           -50.9736855003       -0.4230212254       -5.0159502546  MEMB      350             0.0000000000
     43574       350  QMPE      C38           -52.1834883176        1.3160207866       -4.7859172033  MEMB      350             0.0000000000
     43575       350  QMPE      H8X           -52.0944581856        1.2956604187       -3.6786772238  MEMB      350             0.0000000000
     43576       350  QMPE      H8Y           -51.4412573755        2.0540091429       -5.1584585135  MEMB      350             0.0000000000
     43577       350  QMPE      C39           -53.5378650347        1.9666239261       -5.0169179852  MEMB      350             0.0000000000
     43578       350  QMPE      H9X           -54.2359186627        1.2293252869       -4.5658830030  MEMB      350             0.0000000000
     43579       350  QMPE      H9Y           -53.9474565260        1.9389540749       -6.0492896038  MEMB      350             0.0000000000
     43580       350  QMPE      C310          -53.5969298303        3.3321123330       -4.3204526194  MEMB      350             0.0000000000
     43581       350  QMPE      H10X          -54.6155527173        3.7319687670       -4.5123983790  MEMB      350             0.0000000000
     43582       350  QMPE      H10Y          -52.8944351287        4.0264006061       -4.8291624705  MEMB      350             0.0000000000
     43583       350  QMPE      C311          -53.4183526889        3.4575252935       -2.7863748014  MEMB      350             0.0000000000
     43584       350  QMPE      H11X          -53.3909648072        4.5342344635       -2.5138516274  MEMB      350             0.0000000000
     43585       350  QMPE      H11Y          -52.3910086342        3.1083584595       -2.5476956001  MEMB      350             0.0000000000
     43586       350  QMPE      C312          -54.4082923602        2.5956384376       -1.9531381589  MEMB      350             0.0000000000
     43587       350  QMPE      H12X          -54.4624459868        1.4969958117       -2.1092544114  MEMB      350             0.0000000000
     43588       350  QMPE      H12Y          -55.4092896829        2.9029376848       -2.3244769730  MEMB      350             0.0000000000
     43589       350  QMPE      C313          -54.3501607955        3.0454433078       -0.4499775063  MEMB      350             0.0000000000
     43590       350  QMPE      H13X          -54.1741167391        4.1419118595       -0.4170209590  MEMB      350             0.0000000000
     43591       350  QMPE      H13Y          -55.3616111861        2.9614051317        0.0019360411  MEMB      350             0.0000000000
     43592       350  QMPE      C314          -53.2790254224        2.2845845906        0.3683732999  MEMB      350             0.0000000000
     43593       350  QMPE      H14X          -53.4774683574        1.1941273546        0.2919245963  MEMB      350             0.0000000000
     43594       350  QMPE      H14Y          -53.5283563145        2.4045661917        1.4443647839  MEMB      350             0.0000000000
     43595       350  QMPE      C315          -51.8259669785        2.5769731878        0.1111946768  MEMB      350             0.0000000000
     43596       350  QMPE      H15X          -51.2246231127        1.8305798943        0.6729815124  MEMB      350             0.0000000000
     43597       350  QMPE      H15Y          -51.5716309970        2.3578709354       -0.9478748326  MEMB      350             0.0000000000
     43598       350  QMPE      H15Z          -51.5837021625        3.6491061620        0.2729363660  MEMB      350             0.0000000000
     43599       351  POPE      N             -20.5265523263       48.0559749214      -19.5119458962  MEMB      351             0.0000000000
     43600       351  POPE      HN1           -19.6042472153       48.5320329142      -19.4462030070  MEMB      351             0.0000000000
     43601       351  POPE      HN2           -20.3875589495       47.0999486346      -19.1268555240  MEMB      351             0.0000000000
     43602       351  POPE      HN3           -20.8470832268       47.9483284344      -20.4954458889  MEMB      351             0.0000000000
     43603       351  POPE      C12           -21.5755286743       48.8604462244      -18.8025001918  MEMB      351             0.0000000000
     43604       351  POPE      H12A          -21.3330497144       48.8407422083      -17.7184629743  MEMB      351             0.0000000000
     43605       351  POPE      H12B          -22.5418554055       48.3314592322      -18.9463963684  MEMB      351             0.0000000000
     43606       351  POPE      C11           -21.5161534623       50.3846599873      -19.1121239001  MEMB      351             0.0000000000
     43607       351  POPE      H11A          -22.4355596406       50.8547792240      -18.7022445622  MEMB      351             0.0000000000
     43608       351  POPE      H11B          -21.3777623327       50.5563649157      -20.2010161785  MEMB      351             0.0000000000
     43609       351  POPE      P             -19.2184401426       51.8097171138      -18.9844335238  MEMB      351             0.0000000000
     43610       351  POPE      O13           -19.8246079935       52.9982226245      -19.6584168606  MEMB      351             0.0000000000
     43611       351  POPE      O14           -18.3114755444       50.9568852418      -19.7760590254  MEMB      351             0.0000000000
     43612       351  POPE      O11           -18.3399464498       52.2642214966      -17.7577244398  MEMB      351             0.0000000000
     43613       351  POPE      O12           -20.4302442022       50.9339075835      -18.3967961609  MEMB      351             0.0000000000
     43614       351  POPE      C1            -18.6474851528       51.7413412212      -16.4407259552  MEMB      351             0.0000000000
     43615       351  POPE      HA            -17.7046915684       51.3283314282      -16.0225346257  MEMB      351             0.0000000000
     43616       351  POPE      HB            -19.4274482407       50.9532306192      -16.3710105540  MEMB      351             0.0000000000
     43617       351  POPE      C2            -19.2718787447       52.9112508756      -15.5724854006  MEMB      351             0.0000000000
     43618       351  POPE      HS            -19.0611119376       52.6178902997      -14.5218485089  MEMB      351             0.0000000000
     43619       351  POPE      O21           -20.6970113495       53.0534184065      -15.7285852920  MEMB      351             0.0000000000
     43620       351  POPE      C21           -21.4961460810       52.2375499950      -15.0872065337  MEMB      351             0.0000000000
     43621       351  POPE      O22           -21.1619997595       51.2550636610      -14.4627735179  MEMB      351             0.0000000000
     43622       351  POPE      C22           -22.9163213287       52.6605529933      -15.4839123635  MEMB      351             0.0000000000
     43623       351  POPE      H2R           -23.5690711811       51.9464523793      -14.9377447756  MEMB      351             0.0000000000
     43624       351  POPE      H2S           -23.0847527743       52.3629754028      -16.5409836372  MEMB      351             0.0000000000
     43625       351  POPE      C3            -18.6155504644       54.2935577041      -15.8238801238  MEMB      351             0.0000000000
     43626       351  POPE      HX            -18.6294116746       54.5731504885      -16.8990343761  MEMB      351             0.0000000000
     43627       351  POPE      HY            -17.5953619715       54.1678731846      -15.4022882146  MEMB      351             0.0000000000
     43628       351  POPE      O31           -19.2218647225       55.3858997649      -15.1559038499  MEMB      351             0.0000000000
     43629       351  POPE      C31           -19.3350300600       55.3483247829      -13.7844468791  MEMB      351             0.0000000000
     43630       351  POPE      O32           -18.9407998817       54.5187395359      -13.0238536028  MEMB      351             0.0000000000
     43631       351  POPE      C32           -20.3458385691       56.4350634699      -13.3781735550  MEMB      351             0.0000000000
     43632       351  POPE      H2X           -21.3759504129       56.2423320346      -13.7470168314  MEMB      351             0.0000000000
     43633       351  POPE      H2Y           -20.0544845834       57.3448860662      -13.9453213614  MEMB      351             0.0000000000
     43634       351  POPE      C23           -23.2089247585       54.1113918665      -15.0413356579  MEMB      351             0.0000000000
     43635       351  POPE      H3R           -22.5635190317       54.7593585478      -15.6721381205  MEMB      351             0.0000000000
     43636       351  POPE      H3S           -22.9947947935       54.3520694430      -13.9780652653  MEMB      351             0.0000000000
     43637       351  POPE      C24           -24.6773142698       54.5107138993      -15.0892973003  MEMB      351             0.0000000000
     43638       351  POPE      H4R           -25.1648138464       54.2648566039      -16.0568816065  MEMB      351             0.0000000000
     43639       351  POPE      H4S           -24.7214663018       55.6197382435      -15.0399368430  MEMB      351             0.0000000000
     43640       351  POPE      C25           -25.6835229627       53.8418943713      -14.1582618838  MEMB      351             0.0000000000
     43641       351  POPE      H5R           -26.0380711414       52.8920339029      -14.6125544447  MEMB      351             0.0000000000
     43642       351  POPE      H5S           -26.5180139968       54.5752417468      -14.1461187645  MEMB      351             0.0000000000
     43643       351  POPE      C26           -25.0939380937       53.4833792928      -12.7842062665  MEMB      351             0.0000000000
     43644       351  POPE      H6R           -24.7456021214       54.4146700675      -12.2885444843  MEMB      351             0.0000000000
     43645       351  POPE      H6S           -24.3127303306       52.7201981976      -12.9881430136  MEMB      351             0.0000000000
     43646       351  POPE      C27           -26.0322171869       52.7143821334      -11.9054910493  MEMB      351             0.0000000000
     43647       351  POPE      H7R           -26.3491162364       51.7958905089      -12.4442567945  MEMB      351             0.0000000000
     43648       351  POPE      H7S           -26.9987250231       53.2243019236      -11.7050761739  MEMB      351             0.0000000000
     43649       351  POPE      C28           -25.5135329387       52.2424429020      -10.5298859018  MEMB      351             0.0000000000
     43650       351  POPE      H8R           -24.6775515990       51.5296607023      -10.6954079596  MEMB      351             0.0000000000
     43651       351  POPE      H8S           -26.2192461323       51.5417693883      -10.0345620415  MEMB      351             0.0000000000
     43652       351  POPE      C29           -25.2709204040       53.4860398436       -9.6860486109  MEMB      351             0.0000000000
     43653       351  POPE      H91           -26.1176374283       53.9843058191       -9.1912743534  MEMB      351             0.0000000000
     43654       351  POPE      C210          -24.0729466553       54.0207530462       -9.3124673223  MEMB      351             0.0000000000
     43655       351  POPE      H101          -24.1664859404       54.9090984079       -8.6705232867  MEMB      351             0.0000000000
     43656       351  POPE      C211          -22.6959255181       53.5309504892       -9.6054275394  MEMB      351             0.0000000000
     43657       351  POPE      H11R          -21.9836331052       54.3757288591       -9.7207962383  MEMB      351             0.0000000000
     43658       351  POPE      H11S          -22.7118867539       52.9940628708      -10.5779592649  MEMB      351             0.0000000000
     43659       351  POPE      C212          -22.2752795316       52.5355839784       -8.4824161404  MEMB      351             0.0000000000
     43660       351  POPE      H12R          -21.6804460361       51.8064252987       -9.0730268788  MEMB      351             0.0000000000
     43661       351  POPE      H12S          -23.1497454842       51.9154392867       -8.1907818410  MEMB      351             0.0000000000
     43662       351  POPE      C213          -21.5394861376       53.1573522220       -7.2192163436  MEMB      351             0.0000000000
     43663       351  POPE      H13R          -22.0579058621       54.0042589898       -6.7209073507  MEMB      351             0.0000000000
     43664       351  POPE      H13S          -20.5523296434       53.5063032227       -7.5908022691  MEMB      351             0.0000000000
     43665       351  POPE      C214          -21.2398930803       52.1589555386       -6.1674041288  MEMB      351             0.0000000000
     43666       351  POPE      H14R          -20.9199014112       51.2170992534       -6.6622108510  MEMB      351             0.0000000000
     43667       351  POPE      H14S          -22.1184152211       51.9759218928       -5.5124085967  MEMB      351             0.0000000000
     43668       351  POPE      C215          -20.1422076584       52.3745424941       -5.1833436045  MEMB      351             0.0000000000
     43669       351  POPE      H15R          -19.1651474824       52.6334117001       -5.6444957698  MEMB      351             0.0000000000
     43670       351  POPE      H15S          -20.1131459110       51.4659699643       -4.5446163353  MEMB      351             0.0000000000
     43671       351  POPE      C216          -20.4183723903       53.6734252503       -4.3808507541  MEMB      351             0.0000000000
     43672       351  POPE      H16R          -21.4743525103       53.6133524603       -4.0408240885  MEMB      351             0.0000000000
     43673       351  POPE      H16S          -20.2392746516       54.4278060326       -5.1765606046  MEMB      351             0.0000000000
     43674       351  POPE      C217          -19.5128098084       53.8930791800       -3.1977369162  MEMB      351             0.0000000000
     43675       351  POPE      H17R          -18.4324188648       54.0399004108       -3.4110921636  MEMB      351             0.0000000000
     43676       351  POPE      H17S          -19.5039726628       52.9236021249       -2.6551901859  MEMB      351             0.0000000000
     43677       351  POPE      C218          -19.9443261505       54.9836237280       -2.2614856045  MEMB      351             0.0000000000
     43678       351  POPE      H18R          -20.8137428260       54.7354897073       -1.6158359776  MEMB      351             0.0000000000
     43679       351  POPE      H18S          -20.1752257159       55.8594729142       -2.9048329481  MEMB      351             0.0000000000
     43680       351  POPE      H18T          -19.0719596861       55.2376851169       -1.6221503268  MEMB      351             0.0000000000
     43681       351  POPE      C33           -20.5169013269       56.5204790503      -11.8116251376  MEMB      351             0.0000000000
     43682       351  POPE      H3X           -19.5224445215       56.5277310674      -11.3163234149  MEMB      351             0.0000000000
     43683       351  POPE      H3Y           -21.0749709908       55.6206734936      -11.4751299448  MEMB      351             0.0000000000
     43684       351  POPE      C34           -21.3442689629       57.6849049847      -11.3003989000  MEMB      351             0.0000000000
     43685       351  POPE      H4X           -22.1559114119       57.9117681215      -12.0243407008  MEMB      351             0.0000000000
     43686       351  POPE      H4Y           -20.6391749770       58.5226855924      -11.4882479315  MEMB      351             0.0000000000
     43687       351  POPE      C35           -21.6644065251       57.6366391227       -9.7423744193  MEMB      351             0.0000000000
     43688       351  POPE      H5X           -20.6681358033       57.4863548441       -9.2742072632  MEMB      351             0.0000000000
     43689       351  POPE      H5Y           -22.2326903226       56.7204791882       -9.4739984588  MEMB      351             0.0000000000
     43690       351  POPE      C36           -22.3464237588       58.9127157038       -9.2641449171  MEMB      351             0.0000000000
     43691       351  POPE      H6X           -23.2747433009       59.0767827329       -9.8520443555  MEMB      351             0.0000000000
     43692       351  POPE      H6Y           -21.8843514842       59.8878576728       -9.5285469426  MEMB      351             0.0000000000
     43693       351  POPE      C37           -22.7929376289       59.0839115087       -7.7930685954  MEMB      351             0.0000000000
     43694       351  POPE      H7X           -23.8416695046       58.8043870734       -7.5556911613  MEMB      351             0.0000000000
     43695       351  POPE      H7Y           -22.8825240748       60.1591027522       -7.5280037879  MEMB      351             0.0000000000
     43696       351  POPE      C38           -21.7701656025       58.4471771338       -6.7813998219  MEMB      351             0.0000000000
     43697       351  POPE      H8X           -20.7730564273       58.9065560213       -6.9518854749  MEMB      351             0.0000000000
     43698       351  POPE      H8Y           -21.6758079696       57.3711622495       -7.0414184287  MEMB      351             0.0000000000
     43699       351  POPE      C39           -22.1331506150       58.3274212914       -5.2571534001  MEMB      351             0.0000000000
     43700       351  POPE      H9X           -22.3726492681       59.3827934925       -5.0058541253  MEMB      351             0.0000000000
     43701       351  POPE      H9Y           -21.2643570240       57.9627678533       -4.6684712227  MEMB      351             0.0000000000
     43702       351  POPE      C310          -23.3131270882       57.4668569430       -4.7710135774  MEMB      351             0.0000000000
     43703       351  POPE      H10X          -24.1896139187       57.9904657973       -5.2091069501  MEMB      351             0.0000000000
     43704       351  POPE      H10Y          -23.1915913301       57.5624902078       -3.6708292646  MEMB      351             0.0000000000
     43705       351  POPE      C311          -23.3337096324       56.0301804344       -5.2808722308  MEMB      351             0.0000000000
     43706       351  POPE      H11X          -22.3508786282       55.5460791798       -5.0964537754  MEMB      351             0.0000000000
     43707       351  POPE      H11Y          -23.6522395212       56.0707813754       -6.3444559798  MEMB      351             0.0000000000
     43708       351  POPE      C312          -24.3708283126       55.0923532355       -4.5882083596  MEMB      351             0.0000000000
     43709       351  POPE      H12X          -24.2836959572       54.0611551913       -4.9923854801  MEMB      351             0.0000000000
     43710       351  POPE      H12Y          -25.4418958753       55.3674882769       -4.6951467386  MEMB      351             0.0000000000
     43711       351  POPE      C313          -24.0986752697       54.9222004424       -3.0821327052  MEMB      351             0.0000000000
     43712       351  POPE      H13X          -24.1982829007       55.9303893872       -2.6261127634  MEMB      351             0.0000000000
     43713       351  POPE      H13Y          -23.0161434026       54.6925417751       -2.9836303983  MEMB      351             0.0000000000
     43714       351  POPE      C314          -24.9323275877       53.8269242225       -2.4631656862  MEMB      351             0.0000000000
     43715       351  POPE      H14X          -25.0857256711       53.0661928238       -3.2582002679  MEMB      351             0.0000000000
     43716       351  POPE      H14Y          -25.9416373197       54.1941967918       -2.1790444291  MEMB      351             0.0000000000
     43717       351  POPE      C315          -24.4342557923       53.1879430406       -1.1987653709  MEMB      351             0.0000000000
     43718       351  POPE      H15X          -23.7305064375       52.3489429576       -1.3862101948  MEMB      351             0.0000000000
     43719       351  POPE      H15Y          -25.2814737911       52.6159929152       -0.7635458826  MEMB      351             0.0000000000
     43720       351  POPE      C316          -23.8347977016       54.1231913446       -0.1603507188  MEMB      351             0.0000000000
     43721       351  POPE      H16X          -23.6268096297       53.5464268379        0.7661507736  MEMB      351             0.0000000000
     43722       351  POPE      H16Y          -24.5041004696       54.9012646863        0.2650411592  MEMB      351             0.0000000000
     43723       351  POPE      H16Z          -22.9556582249       54.7197190167       -0.4852947085  MEMB      351             0.0000000000
     43724       352  PMPE      N              56.5738995878       -6.4714518452      -16.9896988987  MEMB      352             0.0000000000
     43725       352  PMPE      HN1            55.7597013390       -6.7710308773      -16.4161714833  MEMB      352             0.0000000000
     43726       352  PMPE      HN2            56.8323296259       -7.2148058669      -17.6695802086  MEMB      352             0.0000000000
     43727       352  PMPE      HN3            57.4691176111       -6.3426295291      -16.4762892314  MEMB      352             0.0000000000
     43728       352  PMPE      C12            56.0778482402       -5.0828056984      -17.5379572972  MEMB      352             0.0000000000
     43729       352  PMPE      H12A           56.9502500014       -4.4633206827      -17.2388341539  MEMB      352             0.0000000000
     43730       352  PMPE      H12B           55.1996700976       -4.7641029408      -16.9366646670  MEMB      352             0.0000000000
     43731       352  PMPE      C11            55.7849649210       -5.1576212277      -19.0878306660  MEMB      352             0.0000000000
     43732       352  PMPE      H11A           56.7149578685       -5.3944377867      -19.6476091860  MEMB      352             0.0000000000
     43733       352  PMPE      H11B           55.3150121940       -4.2378572274      -19.4970977862  MEMB      352             0.0000000000
     43734       352  PMPE      P              53.4391516634       -6.2940338035      -19.7258321459  MEMB      352             0.0000000000
     43735       352  PMPE      O13            52.7371012386       -7.5650154191      -19.3917236216  MEMB      352             0.0000000000
     43736       352  PMPE      O14            53.4003186063       -5.9408066516      -21.2196403945  MEMB      352             0.0000000000
     43737       352  PMPE      O11            52.7136550403       -5.1943698484      -18.8187022841  MEMB      352             0.0000000000
     43738       352  PMPE      O12            54.9676359212       -6.3105074891      -19.2286146886  MEMB      352             0.0000000000
     43739       352  PMPE      C1             52.4910315587       -3.9482051467      -19.3389032942  MEMB      352             0.0000000000
     43740       352  PMPE      HA             51.7345834148       -3.8530721094      -20.1470225461  MEMB      352             0.0000000000
     43741       352  PMPE      HB             53.4554724037       -3.4858177383      -19.6395237567  MEMB      352             0.0000000000
     43742       352  PMPE      C2             52.0477140857       -3.0152216369      -18.1926872021  MEMB      352             0.0000000000
     43743       352  PMPE      HS             51.7500169984       -2.0258711620      -18.6012007636  MEMB      352             0.0000000000
     43744       352  PMPE      O21            53.0430557628       -2.9060730912      -17.1314911474  MEMB      352             0.0000000000
     43745       352  PMPE      C21            53.8274161484       -1.8949413453      -17.0590511046  MEMB      352             0.0000000000
     43746       352  PMPE      O22            53.8616068773       -0.8882764170      -17.7539040387  MEMB      352             0.0000000000
     43747       352  PMPE      C22            54.7090176242       -2.2367483427      -15.8361436853  MEMB      352             0.0000000000
     43748       352  PMPE      H2R            55.6299676566       -2.7655604796      -16.1625323985  MEMB      352             0.0000000000
     43749       352  PMPE      H2S            54.2568190562       -2.8823387515      -15.0531682457  MEMB      352             0.0000000000
     43750       352  PMPE      C3             50.6783023700       -3.4136502006      -17.5168008051  MEMB      352             0.0000000000
     43751       352  PMPE      HX             50.0193694921       -3.5409150949      -18.4022003028  MEMB      352             0.0000000000
     43752       352  PMPE      HY             50.3299252990       -2.6087376812      -16.8348400665  MEMB      352             0.0000000000
     43753       352  PMPE      O31            50.8192389634       -4.8073520032      -16.9896481301  MEMB      352             0.0000000000
     43754       352  PMPE      C31            51.0778036552       -4.8631869451      -15.6618579615  MEMB      352             0.0000000000
     43755       352  PMPE      O32            51.2444782270       -3.8809381259      -14.9211750591  MEMB      352             0.0000000000
     43756       352  PMPE      C32            51.2149484427       -6.3474546752      -15.2145845737  MEMB      352             0.0000000000
     43757       352  PMPE      H2X            51.4183842345       -6.9120425143      -16.1495581781  MEMB      352             0.0000000000
     43758       352  PMPE      H2Y            50.2236063818       -6.6639544537      -14.8254966878  MEMB      352             0.0000000000
     43759       352  PMPE      C23            55.1513066752       -1.0100186126      -15.1479050240  MEMB      352             0.0000000000
     43760       352  PMPE      H3R            54.3002158894       -0.3186923871      -14.9689262136  MEMB      352             0.0000000000
     43761       352  PMPE      H3S            55.8669933073       -0.5059823068      -15.8320549022  MEMB      352             0.0000000000
     43762       352  PMPE      C24            56.0222227870       -1.2760155455      -13.9197336123  MEMB      352             0.0000000000
     43763       352  PMPE      H4R            56.4514455132       -0.2959876011      -13.6203447377  MEMB      352             0.0000000000
     43764       352  PMPE      H4S            56.7549722269       -2.0252242861      -14.2886314757  MEMB      352             0.0000000000
     43765       352  PMPE      C25            55.2322090088       -1.5745374530      -12.5801638697  MEMB      352             0.0000000000
     43766       352  PMPE      H5R            56.0151508982       -1.7895919394      -11.8218273275  MEMB      352             0.0000000000
     43767       352  PMPE      H5S            54.6947834936       -2.5016956161      -12.8732036971  MEMB      352             0.0000000000
     43768       352  PMPE      C26            54.1395977882       -0.5916097497      -12.0384801779  MEMB      352             0.0000000000
     43769       352  PMPE      H6R            53.5157999115       -0.2630039639      -12.8970931833  MEMB      352             0.0000000000
     43770       352  PMPE      H6S            54.6815343561        0.3301502893      -11.7368443343  MEMB      352             0.0000000000
     43771       352  PMPE      C27            53.3399320061       -1.2639609203      -10.8627083838  MEMB      352             0.0000000000
     43772       352  PMPE      H7R            53.1937332207       -2.3410579161      -11.0925120200  MEMB      352             0.0000000000
     43773       352  PMPE      H7S            52.3137783342       -0.8381323566      -10.8629201950  MEMB      352             0.0000000000
     43774       352  PMPE      C28            53.8987221352       -1.1265828873       -9.4554219193  MEMB      352             0.0000000000
     43775       352  PMPE      H8R            54.2726095575       -0.1182959010       -9.1763412966  MEMB      352             0.0000000000
     43776       352  PMPE      H8S            54.7353620022       -1.8519494888       -9.3648782470  MEMB      352             0.0000000000
     43777       352  PMPE      C29            52.7646920342       -1.6564313888       -8.4575674585  MEMB      352             0.0000000000
     43778       352  PMPE      H9R            52.1733583177       -2.5750090909       -8.6597064990  MEMB      352             0.0000000000
     43779       352  PMPE      C217           51.9269780171       -0.6039490322       -7.8426643845  MEMB      352             0.0000000000
     43780       352  PMPE      H17R           50.9038858997       -0.9585903965       -7.8226359339  MEMB      352             0.0000000000
     43781       352  PMPE      H17S           52.2148975971        0.4193955458       -8.0494428168  MEMB      352             0.0000000000
     43782       352  PMPE      C210           52.9520759636       -1.3176791098       -6.9855331666  MEMB      352             0.0000000000
     43783       352  PMPE      H10R           52.4404157678       -2.0317235894       -6.3053378818  MEMB      352             0.0000000000
     43784       352  PMPE      C211           54.2488247393       -0.6800185536       -6.4870219652  MEMB      352             0.0000000000
     43785       352  PMPE      H11R           54.3006041815        0.3603301658       -6.8734340836  MEMB      352             0.0000000000
     43786       352  PMPE      H11S           55.1842815873       -1.2105865055       -6.7658401256  MEMB      352             0.0000000000
     43787       352  PMPE      C212           54.4628369988       -0.6945352289       -4.9280687387  MEMB      352             0.0000000000
     43788       352  PMPE      H12R           54.2152989241       -1.7529058442       -4.6980742042  MEMB      352             0.0000000000
     43789       352  PMPE      H12S           53.8641688979        0.1137878020       -4.4563368280  MEMB      352             0.0000000000
     43790       352  PMPE      C213           55.9149376842       -0.5621039390       -4.3915321669  MEMB      352             0.0000000000
     43791       352  PMPE      H13R           56.3264329387        0.4680496019       -4.4529842932  MEMB      352             0.0000000000
     43792       352  PMPE      H13S           56.4668695870       -1.2673427880       -5.0490497379  MEMB      352             0.0000000000
     43793       352  PMPE      C214           56.0898670868       -1.1836928532       -3.0246402910  MEMB      352             0.0000000000
     43794       352  PMPE      H14R           57.1497436029       -1.3569268675       -2.7400823160  MEMB      352             0.0000000000
     43795       352  PMPE      H14S           55.5868382862       -2.1573406280       -3.2071018198  MEMB      352             0.0000000000
     43796       352  PMPE      C215           55.2926904646       -0.5919310738       -1.8784615490  MEMB      352             0.0000000000
     43797       352  PMPE      H15R           55.0104984763       -1.4153249371       -1.1880186238  MEMB      352             0.0000000000
     43798       352  PMPE      H15S           54.3477856354       -0.2815296563       -2.3735647395  MEMB      352             0.0000000000
     43799       352  PMPE      C216           55.7779783633        0.5782494886       -1.0600552724  MEMB      352             0.0000000000
     43800       352  PMPE      H16R           55.7393103062        1.5509500322       -1.5954797562  MEMB      352             0.0000000000
     43801       352  PMPE      H16S           55.1761358901        0.7041842266       -0.1347183761  MEMB      352             0.0000000000
     43802       352  PMPE      H16T           56.8405926398        0.3670974011       -0.8139113134  MEMB      352             0.0000000000
     43803       352  PMPE      C33            52.2130373448       -6.5412363762      -14.1040055250  MEMB      352             0.0000000000
     43804       352  PMPE      H3X            52.3224115972       -7.6367135192      -13.9547131342  MEMB      352             0.0000000000
     43805       352  PMPE      H3Y            51.7070746826       -6.1149361810      -13.2114863574  MEMB      352             0.0000000000
     43806       352  PMPE      C34            53.6234786988       -5.9369374662      -14.4818182227  MEMB      352             0.0000000000
     43807       352  PMPE      H4X            53.6709531505       -4.8368491427      -14.3339237180  MEMB      352             0.0000000000
     43808       352  PMPE      H4Y            53.6701569287       -6.0746934719      -15.5832559220  MEMB      352             0.0000000000
     43809       352  PMPE      C35            54.8925093507       -6.4685025968      -13.8391345361  MEMB      352             0.0000000000
     43810       352  PMPE      H5X            55.6845537551       -5.7823274667      -14.2081199710  MEMB      352             0.0000000000
     43811       352  PMPE      H5Y            55.1794004179       -7.4764312840      -14.2080438300  MEMB      352             0.0000000000
     43812       352  PMPE      C36            54.8846010488       -6.5300449220      -12.3285766455  MEMB      352             0.0000000000
     43813       352  PMPE      H6X            54.0683973074       -7.2002193963      -11.9836149900  MEMB      352             0.0000000000
     43814       352  PMPE      H6Y            54.5890833237       -5.5096270215      -12.0034034320  MEMB      352             0.0000000000
     43815       352  PMPE      C37            56.3490379689       -6.7711846119      -11.8010511453  MEMB      352             0.0000000000
     43816       352  PMPE      H7X            57.1533786620       -6.1221844072      -12.2086731615  MEMB      352             0.0000000000
     43817       352  PMPE      H7Y            56.6513897968       -7.7439559282      -12.2444694665  MEMB      352             0.0000000000
     43818       352  PMPE      C38            56.4351381380       -6.7682882222      -10.2864431236  MEMB      352             0.0000000000
     43819       352  PMPE      H8X            57.3396726620       -7.3396029763       -9.9868800654  MEMB      352             0.0000000000
     43820       352  PMPE      H8Y            55.6170309608       -7.3233221011       -9.7795311932  MEMB      352             0.0000000000
     43821       352  PMPE      C39            56.3732667691       -5.3382476169       -9.6323732297  MEMB      352             0.0000000000
     43822       352  PMPE      H9X            55.6850862894       -4.6117665249      -10.1150260906  MEMB      352             0.0000000000
     43823       352  PMPE      H9Y            57.3943925214       -4.9287788492       -9.7871587940  MEMB      352             0.0000000000
     43824       352  PMPE      C310           55.8075442603       -5.4517487284       -8.2185752820  MEMB      352             0.0000000000
     43825       352  PMPE      H10X           55.9304333924       -6.5022230281       -7.8783942168  MEMB      352             0.0000000000
     43826       352  PMPE      H10Y           54.7141643496       -5.2780798139       -8.3117438551  MEMB      352             0.0000000000
     43827       352  PMPE      C311           56.5363964711       -4.5357993081       -7.3933790567  MEMB      352             0.0000000000
     43828       352  PMPE      H11X           56.7391630820       -3.5377428047       -7.8373269881  MEMB      352             0.0000000000
     43829       352  PMPE      H11Y           57.5711785554       -4.9312690138       -7.3088174481  MEMB      352             0.0000000000
     43830       352  PMPE      C312           55.8445671095       -4.5333384475       -5.9715276572  MEMB      352             0.0000000000
     43831       352  PMPE      H12X           54.7726161175       -4.3071978174       -6.1561959591  MEMB      352             0.0000000000
     43832       352  PMPE      H12Y           56.2056406605       -3.6187741598       -5.4543051002  MEMB      352             0.0000000000
     43833       352  PMPE      C313           55.9708204704       -5.8551015725       -5.1402361862  MEMB      352             0.0000000000
     43834       352  PMPE      H13X           57.0414273478       -6.1448313860       -5.0755933550  MEMB      352             0.0000000000
     43835       352  PMPE      H13Y           55.4388421333       -6.5551976145       -5.8193427111  MEMB      352             0.0000000000
     43836       352  PMPE      C314           55.2462986014       -5.8213458907       -3.8560235055  MEMB      352             0.0000000000
     43837       352  PMPE      H14X           54.1551753926       -5.8433340707       -4.0640796987  MEMB      352             0.0000000000
     43838       352  PMPE      H14Y           55.4676997306       -4.8456931135       -3.3729033722  MEMB      352             0.0000000000
     43839       352  PMPE      C315           55.5468581597       -7.0432334078       -2.9925167950  MEMB      352             0.0000000000
     43840       352  PMPE      H15X           55.7090191533       -7.8740618085       -3.7120642668  MEMB      352             0.0000000000
     43841       352  PMPE      H15Y           54.7843457825       -7.3433820219       -2.2423121775  MEMB      352             0.0000000000
     43842       352  PMPE      C316           56.7951926427       -7.1091786981       -2.1250943642  MEMB      352             0.0000000000
     43843       352  PMPE      H16X           56.6802655176       -6.4267391182       -1.2559628535  MEMB      352             0.0000000000
     43844       352  PMPE      H16Y           57.6640644552       -6.8187630331       -2.7536177135  MEMB      352             0.0000000000
     43845       352  PMPE      H16Z           56.9452450567       -8.1212248305       -1.6920028287  MEMB      352             0.0000000000
     43846       353  PMPG      C13           -53.6590273217      -11.7918946246      -21.1857165544  MEMB      353             0.0000000000
     43847       353  PMPG      H13A          -54.2165039928      -10.9028026300      -20.8209477663  MEMB      353             0.0000000000
     43848       353  PMPG      H13B          -53.2733213571      -11.4632706036      -22.1744319015  MEMB      353             0.0000000000
     43849       353  PMPG      OC3           -54.6457931751      -12.7992395390      -21.3177143717  MEMB      353             0.0000000000
     43850       353  PMPG      HO3           -54.8422055948      -13.0941543974      -20.4254994104  MEMB      353             0.0000000000
     43851       353  PMPG      C12           -52.4137551725      -12.2783850820      -20.3046291397  MEMB      353             0.0000000000
     43852       353  PMPG      H12A          -51.8761990006      -11.3651870824      -19.9583896049  MEMB      353             0.0000000000
     43853       353  PMPG      OC2           -51.5123897650      -13.0428984690      -21.1065646567  MEMB      353             0.0000000000
     43854       353  PMPG      HO2           -50.8753938126      -13.3959428432      -20.4475406311  MEMB      353             0.0000000000
     43855       353  PMPG      C11           -52.8003910830      -13.0779075761      -19.0617686904  MEMB      353             0.0000000000
     43856       353  PMPG      H11A          -51.9678109268      -13.2030994368      -18.3368837434  MEMB      353             0.0000000000
     43857       353  PMPG      H11B          -53.0522794499      -14.1030584166      -19.4080908936  MEMB      353             0.0000000000
     43858       353  PMPG      P             -54.7183981986      -13.3627393670      -17.4165330448  MEMB      353             0.0000000000
     43859       353  PMPG      O13           -54.7388621891      -14.7674782886      -17.8440481322  MEMB      353             0.0000000000
     43860       353  PMPG      O14           -56.0636542185      -12.7061673976      -17.3085332812  MEMB      353             0.0000000000
     43861       353  PMPG      O11           -53.9472588472      -13.2317984565      -16.0141243707  MEMB      353             0.0000000000
     43862       353  PMPG      O12           -53.8812130320      -12.4399422018      -18.4403677618  MEMB      353             0.0000000000
     43863       353  PMPG      C1            -53.1468687889      -12.1022012240      -15.7846934942  MEMB      353             0.0000000000
     43864       353  PMPG      HA            -53.6149695555      -11.1457719646      -16.1016253581  MEMB      353             0.0000000000
     43865       353  PMPG      HB            -52.2171434645      -12.2891009913      -16.3634856491  MEMB      353             0.0000000000
     43866       353  PMPG      C2            -52.8673675364      -12.1001397609      -14.2603678921  MEMB      353             0.0000000000
     43867       353  PMPG      HS            -51.9614018453      -11.4761675905      -14.1047863518  MEMB      353             0.0000000000
     43868       353  PMPG      O21           -52.5848223187      -13.4144161923      -13.8140015843  MEMB      353             0.0000000000
     43869       353  PMPG      C21           -51.3760716514      -13.9608356024      -14.0986971965  MEMB      353             0.0000000000
     43870       353  PMPG      O22           -50.5281170683      -13.4431802412      -14.7416531925  MEMB      353             0.0000000000
     43871       353  PMPG      C22           -51.2473744566      -15.2499255812      -13.4178441379  MEMB      353             0.0000000000
     43872       353  PMPG      H2R           -51.1062966377      -16.0484210117      -14.1773326484  MEMB      353             0.0000000000
     43873       353  PMPG      H2S           -52.1494776232      -15.4707350249      -12.8081109698  MEMB      353             0.0000000000
     43874       353  PMPG      C3            -54.0624695011      -11.4095035106      -13.4836493325  MEMB      353             0.0000000000
     43875       353  PMPG      HX            -54.9721383164      -12.0249500071      -13.6511284417  MEMB      353             0.0000000000
     43876       353  PMPG      HY            -54.3207017409      -10.4872787488      -14.0468002499  MEMB      353             0.0000000000
     43877       353  PMPG      O31           -53.5811125208      -11.2681233553      -12.1302994588  MEMB      353             0.0000000000
     43878       353  PMPG      C31           -54.5913208541      -10.9353513005      -11.2245023011  MEMB      353             0.0000000000
     43879       353  PMPG      O32           -55.7437558823      -10.7677122386      -11.5400381080  MEMB      353             0.0000000000
     43880       353  PMPG      C32           -53.9195012736      -10.6130369052       -9.8681823725  MEMB      353             0.0000000000
     43881       353  PMPG      H2X           -53.6111052260       -9.5473792092       -9.9280713821  MEMB      353             0.0000000000
     43882       353  PMPG      H2Y           -52.9899013268      -11.1909287976       -9.6779040692  MEMB      353             0.0000000000
     43883       353  PMPG      C23           -50.1085545512      -15.2310407520      -12.3634961754  MEMB      353             0.0000000000
     43884       353  PMPG      H3R           -49.1850721397      -14.7385982630      -12.7363255158  MEMB      353             0.0000000000
     43885       353  PMPG      H3S           -49.8097647165      -16.2310479658      -11.9826671500  MEMB      353             0.0000000000
     43886       353  PMPG      C24           -50.5954732806      -14.4321064574      -11.0501802738  MEMB      353             0.0000000000
     43887       353  PMPG      H4R           -51.5063163406      -14.9207873360      -10.6429001067  MEMB      353             0.0000000000
     43888       353  PMPG      H4S           -50.8770595931      -13.4110721420      -11.3856191691  MEMB      353             0.0000000000
     43889       353  PMPG      C25           -49.5883455287      -14.3763837549       -9.9633756215  MEMB      353             0.0000000000
     43890       353  PMPG      H5R           -48.8163023688      -13.6737532022      -10.3436134320  MEMB      353             0.0000000000
     43891       353  PMPG      H5S           -49.1349931999      -15.3570880361       -9.7045083791  MEMB      353             0.0000000000
     43892       353  PMPG      C26           -50.1355292149      -13.9035858090       -8.5507062026  MEMB      353             0.0000000000
     43893       353  PMPG      H6R           -49.3453464805      -13.7309904131       -7.7890347283  MEMB      353             0.0000000000
     43894       353  PMPG      H6S           -50.8499476846      -14.6876190055       -8.2202223999  MEMB      353             0.0000000000
     43895       353  PMPG      C27           -50.9129910333      -12.5979297504       -8.6938432580  MEMB      353             0.0000000000
     43896       353  PMPG      H7R           -51.5793247514      -12.4702192370       -7.8140650630  MEMB      353             0.0000000000
     43897       353  PMPG      H7S           -51.6574415568      -12.7185823608       -9.5096603479  MEMB      353             0.0000000000
     43898       353  PMPG      C28           -50.0901878565      -11.3119798760       -8.9190142750  MEMB      353             0.0000000000
     43899       353  PMPG      H8R           -50.8569147677      -10.5839244284       -9.2601684005  MEMB      353             0.0000000000
     43900       353  PMPG      H8S           -49.3850097242      -11.3956527866       -9.7734400824  MEMB      353             0.0000000000
     43901       353  PMPG      C29           -49.3524972704      -11.0288757635       -7.6334700152  MEMB      353             0.0000000000
     43902       353  PMPG      H9R           -48.4362554075      -11.6445197691       -7.5077560008  MEMB      353             0.0000000000
     43903       353  PMPG      C217          -49.1077556707       -9.5695040070       -7.3249109390  MEMB      353             0.0000000000
     43904       353  PMPG      H17R          -48.3501863476       -9.3442495824       -6.5844806515  MEMB      353             0.0000000000
     43905       353  PMPG      H17S          -49.4677736376       -8.7842464488       -7.9780932056  MEMB      353             0.0000000000
     43906       353  PMPG      C210          -50.0789056206      -10.3963160201       -6.5060654098  MEMB      353             0.0000000000
     43907       353  PMPG      H10R          -49.6479994425      -10.7403081643       -5.5415394945  MEMB      353             0.0000000000
     43908       353  PMPG      C211          -51.4859084534       -9.7732657035       -6.5819321723  MEMB      353             0.0000000000
     43909       353  PMPG      H11R          -51.6002005895       -9.4052687348       -7.6239664884  MEMB      353             0.0000000000
     43910       353  PMPG      H11S          -52.2518757743      -10.5546872220       -6.3895900920  MEMB      353             0.0000000000
     43911       353  PMPG      C212          -51.6481922183       -8.7533188700       -5.5796872303  MEMB      353             0.0000000000
     43912       353  PMPG      H12R          -52.5170205435       -8.1395995596       -5.9003229550  MEMB      353             0.0000000000
     43913       353  PMPG      H12S          -50.8321526734       -7.9996832045       -5.6005108613  MEMB      353             0.0000000000
     43914       353  PMPG      C213          -51.9297833709       -9.0883295306       -4.1598800037  MEMB      353             0.0000000000
     43915       353  PMPG      H13R          -52.8549526398       -9.7034530687       -4.1622731389  MEMB      353             0.0000000000
     43916       353  PMPG      H13S          -52.2371259972       -8.0670549469       -3.8486579033  MEMB      353             0.0000000000
     43917       353  PMPG      C214          -50.7873682630       -9.5844752964       -3.3182858190  MEMB      353             0.0000000000
     43918       353  PMPG      H14R          -49.9284946206       -9.0415983923       -3.7676652140  MEMB      353             0.0000000000
     43919       353  PMPG      H14S          -50.6406355054      -10.6853591193       -3.2892142616  MEMB      353             0.0000000000
     43920       353  PMPG      C215          -50.8252419280       -9.0085618700       -1.8994456640  MEMB      353             0.0000000000
     43921       353  PMPG      H15R          -51.2514353481       -7.9851643555       -1.9725035238  MEMB      353             0.0000000000
     43922       353  PMPG      H15S          -49.7535134491       -9.0690389610       -1.6129802226  MEMB      353             0.0000000000
     43923       353  PMPG      C216          -51.5943167855       -9.8584324033       -0.9326761059  MEMB      353             0.0000000000
     43924       353  PMPG      H16R          -51.6181760681       -9.2955261679        0.0248658623  MEMB      353             0.0000000000
     43925       353  PMPG      H16S          -51.0151162725      -10.7817615776       -0.7174761617  MEMB      353             0.0000000000
     43926       353  PMPG      H16T          -52.6798097193      -10.0497481911       -1.0720491010  MEMB      353             0.0000000000
     43927       353  PMPG      C33           -54.9860080669      -10.7763625324       -8.7686440871  MEMB      353             0.0000000000
     43928       353  PMPG      H3X           -55.8474663130      -10.1010079195       -8.9586622550  MEMB      353             0.0000000000
     43929       353  PMPG      H3Y           -54.5614561629      -10.4517016736       -7.7946455076  MEMB      353             0.0000000000
     43930       353  PMPG      C34           -55.4929772097      -12.1895372929       -8.4434381455  MEMB      353             0.0000000000
     43931       353  PMPG      H4X           -54.6914583087      -12.9271143439       -8.6622265535  MEMB      353             0.0000000000
     43932       353  PMPG      H4Y           -56.3177002617      -12.3346148986       -9.1735787964  MEMB      353             0.0000000000
     43933       353  PMPG      C35           -56.1533602976      -12.4152319010       -7.0374671390  MEMB      353             0.0000000000
     43934       353  PMPG      H5X           -56.7205973401      -13.3699919318       -7.0690328842  MEMB      353             0.0000000000
     43935       353  PMPG      H5Y           -56.7883054320      -11.5061468534       -6.9686929970  MEMB      353             0.0000000000
     43936       353  PMPG      C36           -55.2141589014      -12.2937884042       -5.8579055271  MEMB      353             0.0000000000
     43937       353  PMPG      H6X           -55.8164738875      -12.2730290596       -4.9245751033  MEMB      353             0.0000000000
     43938       353  PMPG      H6Y           -54.7461122973      -11.2934515942       -5.9786527900  MEMB      353             0.0000000000
     43939       353  PMPG      C37           -54.0958567299      -13.3566134608       -5.7851879130  MEMB      353             0.0000000000
     43940       353  PMPG      H7X           -53.5518925766      -12.9831037783       -6.6790081873  MEMB      353             0.0000000000
     43941       353  PMPG      H7Y           -54.4218284329      -14.4029703169       -5.9673998353  MEMB      353             0.0000000000
     43942       353  PMPG      C38           -53.2255875726      -13.2312831412       -4.5446540588  MEMB      353             0.0000000000
     43943       353  PMPG      H8X           -52.9196827862      -12.2049888074       -4.2489130494  MEMB      353             0.0000000000
     43944       353  PMPG      H8Y           -52.3131298425      -13.8461872258       -4.6983905219  MEMB      353             0.0000000000
     43945       353  PMPG      C39           -53.8625921362      -13.9749380669       -3.3596607098  MEMB      353             0.0000000000
     43946       353  PMPG      H9X           -53.6549342802      -15.0530699989       -3.5294560508  MEMB      353             0.0000000000
     43947       353  PMPG      H9Y           -54.9415603068      -13.7219644712       -3.2812203114  MEMB      353             0.0000000000
     43948       353  PMPG      C310          -53.3025120979      -13.6807191901       -2.0061801521  MEMB      353             0.0000000000
     43949       353  PMPG      H10X          -53.4622828801      -12.6108433056       -1.7528804964  MEMB      353             0.0000000000
     43950       353  PMPG      H10Y          -52.1935038386      -13.7447440545       -2.0241327722  MEMB      353             0.0000000000
     43951       353  PMPG      C311          -53.8936933452      -14.5418743135       -0.9058023005  MEMB      353             0.0000000000
     43952       353  PMPG      H11X          -53.2408644477      -14.4114703142       -0.0163483770  MEMB      353             0.0000000000
     43953       353  PMPG      H11Y          -53.7584969070      -15.5246167401       -1.4060645897  MEMB      353             0.0000000000
     43954       353  PMPG      C312          -55.3852706413      -14.4406690237       -0.5860600343  MEMB      353             0.0000000000
     43955       353  PMPG      H12X          -55.6147304022      -15.0412177491        0.3200363365  MEMB      353             0.0000000000
     43956       353  PMPG      H12Y          -55.8558946632      -15.0468856260       -1.3893893332  MEMB      353             0.0000000000
     43957       353  PMPG      C313          -55.9507759150      -13.0642966002       -0.3772603091  MEMB      353             0.0000000000
     43958       353  PMPG      H13X          -56.9822193223      -13.1592370647        0.0245248388  MEMB      353             0.0000000000
     43959       353  PMPG      H13Y          -56.0591183075      -12.5251612781       -1.3426183112  MEMB      353             0.0000000000
     43960       353  PMPG      C314          -55.2591174692      -12.1466548077        0.6624235680  MEMB      353             0.0000000000
     43961       353  PMPG      H14X          -54.4097633181      -11.6942941694        0.1071871243  MEMB      353             0.0000000000
     43962       353  PMPG      H14Y          -54.9542755061      -12.7902463899        1.5151741125  MEMB      353             0.0000000000
     43963       353  PMPG      C315          -56.1817264699      -10.9262646856        1.0983468045  MEMB      353             0.0000000000
     43964       353  PMPG      H15X          -56.6895566325      -10.4771233944        0.2181751328  MEMB      353             0.0000000000
     43965       353  PMPG      H15Y          -55.5669148108      -10.1013872843        1.5177571745  MEMB      353             0.0000000000
     43966       353  PMPG      C316          -57.2507342141      -11.2163560238        2.1366978907  MEMB      353             0.0000000000
     43967       353  PMPG      H16X          -57.9592598456      -10.3661823992        2.2342536245  MEMB      353             0.0000000000
     43968       353  PMPG      H16Y          -56.7689853544      -11.3650072037        3.1267196992  MEMB      353             0.0000000000
     43969       353  PMPG      H16Z          -57.7866560478      -12.1335165706        1.8112352103  MEMB      353             0.0000000000
     43970       354  PMPE      N              11.3642667340       55.8781221786      -20.9276423875  MEMB      354             0.0000000000
     43971       354  PMPE      HN1            10.8159880580       56.3082037719      -21.6996655893  MEMB      354             0.0000000000
     43972       354  PMPE      HN2            11.1764187824       56.2484431261      -19.9741352651  MEMB      354             0.0000000000
     43973       354  PMPE      HN3            12.3497764912       56.1038100119      -21.1714365202  MEMB      354             0.0000000000
     43974       354  PMPE      C12            11.2102844905       54.3205108260      -20.8268869784  MEMB      354             0.0000000000
     43975       354  PMPE      H12A           11.3128073070       53.9024782656      -21.8511229517  MEMB      354             0.0000000000
     43976       354  PMPE      H12B           10.2084130709       54.2341249266      -20.3545396705  MEMB      354             0.0000000000
     43977       354  PMPE      C11            12.3256843441       53.7203573402      -20.0049344235  MEMB      354             0.0000000000
     43978       354  PMPE      H11A           13.2505850897       53.5529010894      -20.5972501705  MEMB      354             0.0000000000
     43979       354  PMPE      H11B           11.8762387513       52.7207129614      -19.8231909809  MEMB      354             0.0000000000
     43980       354  PMPE      P              13.8348573817       54.2155281045      -18.0353258183  MEMB      354             0.0000000000
     43981       354  PMPE      O13            14.8917704297       54.5705438143      -19.0004713318  MEMB      354             0.0000000000
     43982       354  PMPE      O14            13.8385887843       52.8346624418      -17.5545784474  MEMB      354             0.0000000000
     43983       354  PMPE      O11            13.7676383374       55.2485994847      -16.8656809038  MEMB      354             0.0000000000
     43984       354  PMPE      O12            12.4629254964       54.3605373808      -18.7844797092  MEMB      354             0.0000000000
     43985       354  PMPE      C1             13.9962492558       56.6355860332      -17.1331870404  MEMB      354             0.0000000000
     43986       354  PMPE      HA             13.6715396941       56.9489775208      -18.1484064890  MEMB      354             0.0000000000
     43987       354  PMPE      HB             15.1029313360       56.7329335048      -17.1431510115  MEMB      354             0.0000000000
     43988       354  PMPE      C2             13.2631193740       57.6466961899      -16.1701398338  MEMB      354             0.0000000000
     43989       354  PMPE      HS             13.6882429749       58.6586365931      -16.3420924002  MEMB      354             0.0000000000
     43990       354  PMPE      O21            13.6110545810       57.0675889083      -14.8159799804  MEMB      354             0.0000000000
     43991       354  PMPE      C21            13.2798200468       57.8714752605      -13.7934064812  MEMB      354             0.0000000000
     43992       354  PMPE      O22            12.7304262674       58.9703673793      -13.8825201008  MEMB      354             0.0000000000
     43993       354  PMPE      C22            13.7823527704       57.2392164969      -12.5294274318  MEMB      354             0.0000000000
     43994       354  PMPE      H2R            14.8390012305       56.9336302491      -12.6857347461  MEMB      354             0.0000000000
     43995       354  PMPE      H2S            13.2435910055       56.3259679893      -12.1977135916  MEMB      354             0.0000000000
     43996       354  PMPE      C3             11.7439358865       57.7238775929      -16.2727638802  MEMB      354             0.0000000000
     43997       354  PMPE      HX             11.4221819466       57.9604064228      -17.3095134073  MEMB      354             0.0000000000
     43998       354  PMPE      HY             11.2761201839       58.5993128088      -15.7736816554  MEMB      354             0.0000000000
     43999       354  PMPE      O31            11.1764544014       56.4653569968      -15.9478295969  MEMB      354             0.0000000000
     44000       354  PMPE      C31            10.1717887589       56.3777245840      -15.1407780489  MEMB      354             0.0000000000
     44001       354  PMPE      O32             9.5643248841       57.3331112929      -14.6261267445  MEMB      354             0.0000000000
     44002       354  PMPE      C32             9.9447335306       54.9487756232      -14.9514998030  MEMB      354             0.0000000000
     44003       354  PMPE      H2X            10.3605298123       54.3073117865      -15.7576998735  MEMB      354             0.0000000000
     44004       354  PMPE      H2Y             8.8845193815       54.6386228138      -14.8328743659  MEMB      354             0.0000000000
     44005       354  PMPE      C23            13.7202802064       58.1830374025      -11.2497286808  MEMB      354             0.0000000000
     44006       354  PMPE      H3R            12.6298241406       58.2918927274      -11.0670340622  MEMB      354             0.0000000000
     44007       354  PMPE      H3S            14.0633268198       59.2271693378      -11.4122971186  MEMB      354             0.0000000000
     44008       354  PMPE      C24            14.4289588124       57.5078087643      -10.0428540776  MEMB      354             0.0000000000
     44009       354  PMPE      H4R            15.5042231684       57.6551869273      -10.2803562812  MEMB      354             0.0000000000
     44010       354  PMPE      H4S            14.0836684215       56.4765746413       -9.8155839173  MEMB      354             0.0000000000
     44011       354  PMPE      C25            14.2825467605       58.3703054684       -8.7412497439  MEMB      354             0.0000000000
     44012       354  PMPE      H5R            13.2717362558       58.7281105974       -8.4504595369  MEMB      354             0.0000000000
     44013       354  PMPE      H5S            14.8910830725       59.2865866153       -8.8975604396  MEMB      354             0.0000000000
     44014       354  PMPE      C26            14.8980476765       57.6317841432       -7.5147786829  MEMB      354             0.0000000000
     44015       354  PMPE      H6R            15.8647438946       57.1671108287       -7.8044308048  MEMB      354             0.0000000000
     44016       354  PMPE      H6S            14.2768433599       56.7959692374       -7.1276872481  MEMB      354             0.0000000000
     44017       354  PMPE      C27            15.1366727135       58.5804797266       -6.3121688848  MEMB      354             0.0000000000
     44018       354  PMPE      H7R            14.2121968734       59.1539810642       -6.0868657397  MEMB      354             0.0000000000
     44019       354  PMPE      H7S            15.8183332825       59.3832874137       -6.6659475850  MEMB      354             0.0000000000
     44020       354  PMPE      C28            15.7737923899       57.8315161495       -5.1034689652  MEMB      354             0.0000000000
     44021       354  PMPE      H8R            15.1298086983       56.9679731507       -4.8316243722  MEMB      354             0.0000000000
     44022       354  PMPE      H8S            15.6542861845       58.6198752674       -4.3298219026  MEMB      354             0.0000000000
     44023       354  PMPE      C29            17.2636133610       57.4814866319       -5.3228392968  MEMB      354             0.0000000000
     44024       354  PMPE      H9R            17.9413789346       58.2597466817       -5.7342596103  MEMB      354             0.0000000000
     44025       354  PMPE      C217           17.4588949402       56.1853078831       -6.0472674871  MEMB      354             0.0000000000
     44026       354  PMPE      H17R           18.2699027808       56.2473572074       -6.7623236371  MEMB      354             0.0000000000
     44027       354  PMPE      H17S           16.4711962051       55.7639639357       -6.1880138194  MEMB      354             0.0000000000
     44028       354  PMPE      C210           17.9549948959       56.2409947662       -4.6170753005  MEMB      354             0.0000000000
     44029       354  PMPE      H10R           19.0317140634       56.4219501367       -4.4115212220  MEMB      354             0.0000000000
     44030       354  PMPE      C211           17.1641788299       55.5354666068       -3.4800664383  MEMB      354             0.0000000000
     44031       354  PMPE      H11R           17.9123387272       54.7639212049       -3.1984715725  MEMB      354             0.0000000000
     44032       354  PMPE      H11S           16.2492146753       55.0353509265       -3.8635318853  MEMB      354             0.0000000000
     44033       354  PMPE      C212           16.9027681687       56.3679300799       -2.2208667995  MEMB      354             0.0000000000
     44034       354  PMPE      H12R           16.4876577615       55.7409417234       -1.4030086968  MEMB      354             0.0000000000
     44035       354  PMPE      H12S           16.0633317688       57.0283531289       -2.5266581607  MEMB      354             0.0000000000
     44036       354  PMPE      C213           18.0855818838       57.2520658427       -1.7571037451  MEMB      354             0.0000000000
     44037       354  PMPE      H13R           18.2676808363       58.0399426784       -2.5189495102  MEMB      354             0.0000000000
     44038       354  PMPE      H13S           19.0026330219       56.6473381891       -1.5908405992  MEMB      354             0.0000000000
     44039       354  PMPE      C214           17.6541207901       57.8389699164       -0.3951806038  MEMB      354             0.0000000000
     44040       354  PMPE      H14R           17.6828441000       57.0265667006        0.3621164711  MEMB      354             0.0000000000
     44041       354  PMPE      H14S           16.5704481874       58.0779341204       -0.4487602590  MEMB      354             0.0000000000
     44042       354  PMPE      C215           18.4608049431       59.0309672040        0.1726127626  MEMB      354             0.0000000000
     44043       354  PMPE      H15R           18.4983943888       59.8730061716       -0.5511806517  MEMB      354             0.0000000000
     44044       354  PMPE      H15S           19.4877670075       58.7255671878        0.4665536740  MEMB      354             0.0000000000
     44045       354  PMPE      C216           17.8851721575       59.5255012871        1.4163884173  MEMB      354             0.0000000000
     44046       354  PMPE      H16R           18.0419127671       58.8542527501        2.2876976292  MEMB      354             0.0000000000
     44047       354  PMPE      H16S           18.3981849903       60.4778088594        1.6698632123  MEMB      354             0.0000000000
     44048       354  PMPE      H16T           16.8079676172       59.7572802153        1.2741583856  MEMB      354             0.0000000000
     44049       354  PMPE      C33            10.7375711812       54.5306325312      -13.7187497417  MEMB      354             0.0000000000
     44050       354  PMPE      H3X            10.1898586755       54.7943532861      -12.7888122734  MEMB      354             0.0000000000
     44051       354  PMPE      H3Y            11.7471461381       54.9903882323      -13.7796134942  MEMB      354             0.0000000000
     44052       354  PMPE      C34            10.8915653960       52.9922634161      -13.7867546028  MEMB      354             0.0000000000
     44053       354  PMPE      H4X            11.3820784186       52.7936450017      -14.7636213511  MEMB      354             0.0000000000
     44054       354  PMPE      H4Y             9.8139728824       52.7252611931      -13.8294795941  MEMB      354             0.0000000000
     44055       354  PMPE      C35            11.6754134333       52.4362302255      -12.5903901220  MEMB      354             0.0000000000
     44056       354  PMPE      H5X            12.7580317715       52.5900270430      -12.7868726797  MEMB      354             0.0000000000
     44057       354  PMPE      H5Y            11.5608402297       51.3314262728      -12.6149230817  MEMB      354             0.0000000000
     44058       354  PMPE      C36            11.2372986920       53.0437752341      -11.2425965809  MEMB      354             0.0000000000
     44059       354  PMPE      H6X            10.1349111143       52.9262817187      -11.1700871058  MEMB      354             0.0000000000
     44060       354  PMPE      H6Y            11.4789743251       54.1247353714      -11.1563471110  MEMB      354             0.0000000000
     44061       354  PMPE      C37            11.8606291204       52.4519628519       -9.9504308046  MEMB      354             0.0000000000
     44062       354  PMPE      H7X            12.9444038345       52.6952379567       -9.9743154674  MEMB      354             0.0000000000
     44063       354  PMPE      H7Y            11.7492451626       51.3471738913       -9.9872513359  MEMB      354             0.0000000000
     44064       354  PMPE      C38            11.1075754338       52.8669880809       -8.6545576663  MEMB      354             0.0000000000
     44065       354  PMPE      H8X            11.3691164427       52.2615577749       -7.7604816150  MEMB      354             0.0000000000
     44066       354  PMPE      H8Y            10.0502185352       52.5716116396       -8.8250563874  MEMB      354             0.0000000000
     44067       354  PMPE      C39            11.1148723046       54.3861679390       -8.2785689219  MEMB      354             0.0000000000
     44068       354  PMPE      H9X            10.2773889414       54.5086473553       -7.5588873101  MEMB      354             0.0000000000
     44069       354  PMPE      H9Y            11.0056756845       54.9871551263       -9.2065842520  MEMB      354             0.0000000000
     44070       354  PMPE      C310           12.3238138330       54.8501233622       -7.4246502831  MEMB      354             0.0000000000
     44071       354  PMPE      H10X           12.1976854053       55.9531515028       -7.4663826838  MEMB      354             0.0000000000
     44072       354  PMPE      H10Y           13.3153889709       54.7112317603       -7.9061162486  MEMB      354             0.0000000000
     44073       354  PMPE      C311           12.3169830992       54.2735233472       -5.9284460611  MEMB      354             0.0000000000
     44074       354  PMPE      H11X           12.5547612252       53.1894531900       -5.8777077210  MEMB      354             0.0000000000
     44075       354  PMPE      H11Y           11.2752417918       54.4375717159       -5.5788978764  MEMB      354             0.0000000000
     44076       354  PMPE      C312           13.1944771844       55.0732270034       -4.9402899162  MEMB      354             0.0000000000
     44077       354  PMPE      H12X           12.6938299008       56.0458240558       -5.1345273086  MEMB      354             0.0000000000
     44078       354  PMPE      H12Y           14.2100240969       55.0778682137       -5.3908049964  MEMB      354             0.0000000000
     44079       354  PMPE      C313           13.2283314174       54.6121474127       -3.5115751018  MEMB      354             0.0000000000
     44080       354  PMPE      H13X           12.1931911419       54.4947165196       -3.1255492362  MEMB      354             0.0000000000
     44081       354  PMPE      H13Y           13.7106564420       55.3314527291       -2.8156702027  MEMB      354             0.0000000000
     44082       354  PMPE      C314           13.9535341464       53.2036005906       -3.4592004260  MEMB      354             0.0000000000
     44083       354  PMPE      H14X           15.0437233351       53.3709127040       -3.5926741256  MEMB      354             0.0000000000
     44084       354  PMPE      H14Y           13.6396238056       52.5492766394       -4.3004150739  MEMB      354             0.0000000000
     44085       354  PMPE      C315           13.7850693650       52.4124333504       -2.0897066437  MEMB      354             0.0000000000
     44086       354  PMPE      H15X           12.6984246792       52.1999639062       -1.9981579121  MEMB      354             0.0000000000
     44087       354  PMPE      H15Y           14.1611804627       53.1761187963       -1.3758122992  MEMB      354             0.0000000000
     44088       354  PMPE      C316           14.6507415483       51.2055626237       -1.9625992565  MEMB      354             0.0000000000
     44089       354  PMPE      H16X           15.6371845012       51.4251909451       -2.4241342516  MEMB      354             0.0000000000
     44090       354  PMPE      H16Y           14.2693616557       50.2247809773       -2.3188840031  MEMB      354             0.0000000000
     44091       354  PMPE      H16Z           14.8656675444       51.0862659543       -0.8791355760  MEMB      354             0.0000000000
     44092       355  PYPG      C13           -14.6682326904      -54.8916706984      -20.9764624444  MEMB      355             0.0000000000
     44093       355  PYPG      H13A          -14.0090650388      -55.6122655761      -20.4467815104  MEMB      355             0.0000000000
     44094       355  PYPG      H13B          -14.3326256924      -54.7426234951      -22.0250204717  MEMB      355             0.0000000000
     44095       355  PYPG      OC3           -14.6655375122      -53.5856210315      -20.4323772090  MEMB      355             0.0000000000
     44096       355  PYPG      HO3           -15.4438519432      -53.4268731913      -19.8932800056  MEMB      355             0.0000000000
     44097       355  PYPG      C12           -16.1115047951      -55.4678399367      -21.0426328684  MEMB      355             0.0000000000
     44098       355  PYPG      H12A          -16.0560335826      -56.4380049797      -21.5889677235  MEMB      355             0.0000000000
     44099       355  PYPG      OC2           -16.9578307815      -54.5906058894      -21.7871015655  MEMB      355             0.0000000000
     44100       355  PYPG      HO2           -17.8509466955      -54.9752901393      -21.6489754200  MEMB      355             0.0000000000
     44101       355  PYPG      C11           -16.6648562620      -55.7207029355      -19.6623823869  MEMB      355             0.0000000000
     44102       355  PYPG      H11A          -16.0875257440      -56.5677829437      -19.2340531584  MEMB      355             0.0000000000
     44103       355  PYPG      H11B          -17.7365400959      -55.9406231563      -19.8559021515  MEMB      355             0.0000000000
     44104       355  PYPG      P             -16.8774318974      -54.6972876407      -17.2044376691  MEMB      355             0.0000000000
     44105       355  PYPG      O13           -17.7110553981      -55.8357213705      -17.0115822220  MEMB      355             0.0000000000
     44106       355  PYPG      O14           -17.4793189938      -53.4281522136      -16.7674167256  MEMB      355             0.0000000000
     44107       355  PYPG      O11           -15.5993241371      -54.9109923349      -16.3692148077  MEMB      355             0.0000000000
     44108       355  PYPG      O12           -16.4547034217      -54.6550670035      -18.7463921017  MEMB      355             0.0000000000
     44109       355  PYPG      C1            -14.3117717963      -54.5418389264      -16.8582116525  MEMB      355             0.0000000000
     44110       355  PYPG      HA            -14.3489899828      -53.4383626247      -16.9818069130  MEMB      355             0.0000000000
     44111       355  PYPG      HB            -14.1155323995      -54.8912234841      -17.8944266729  MEMB      355             0.0000000000
     44112       355  PYPG      C2            -13.0951713848      -54.8807008176      -15.8963581222  MEMB      355             0.0000000000
     44113       355  PYPG      HS            -12.1218025752      -54.9786001544      -16.4229416239  MEMB      355             0.0000000000
     44114       355  PYPG      O21           -13.2739550115      -56.1288391684      -15.2736036666  MEMB      355             0.0000000000
     44115       355  PYPG      C21           -13.8579400118      -57.2779852881      -15.7021716196  MEMB      355             0.0000000000
     44116       355  PYPG      O22           -14.0348151409      -57.6296183274      -16.8616409130  MEMB      355             0.0000000000
     44117       355  PYPG      C22           -14.4067744432      -58.0877252257      -14.5438342181  MEMB      355             0.0000000000
     44118       355  PYPG      H2R           -13.5631857007      -58.4959055459      -13.9471199830  MEMB      355             0.0000000000
     44119       355  PYPG      H2S           -14.9812702600      -58.9111796550      -15.0194373187  MEMB      355             0.0000000000
     44120       355  PYPG      C3            -12.9378883611      -53.7881418285      -14.7525319002  MEMB      355             0.0000000000
     44121       355  PYPG      HX            -12.5231165828      -52.8973525606      -15.2709716940  MEMB      355             0.0000000000
     44122       355  PYPG      HY            -12.2612225484      -54.2337962292      -13.9923762907  MEMB      355             0.0000000000
     44123       355  PYPG      O31           -14.1626627627      -53.6669596259      -14.0598281611  MEMB      355             0.0000000000
     44124       355  PYPG      C31           -14.3723974022      -52.5679340524      -13.3849094080  MEMB      355             0.0000000000
     44125       355  PYPG      O32           -13.6586416812      -51.6057488286      -13.1121284619  MEMB      355             0.0000000000
     44126       355  PYPG      C32           -15.8017209108      -52.5763094452      -12.9024380712  MEMB      355             0.0000000000
     44127       355  PYPG      H2X           -16.0652066048      -51.5178741922      -12.6912234036  MEMB      355             0.0000000000
     44128       355  PYPG      H2Y           -16.4518215033      -52.8703961526      -13.7540267134  MEMB      355             0.0000000000
     44129       355  PYPG      C23           -15.2422474655      -57.1135292277      -13.6449267023  MEMB      355             0.0000000000
     44130       355  PYPG      H3R           -15.9375118279      -56.5554220723      -14.3078327364  MEMB      355             0.0000000000
     44131       355  PYPG      H3S           -14.5159288612      -56.4754232835      -13.0975664142  MEMB      355             0.0000000000
     44132       355  PYPG      C24           -16.0395814339      -57.8489882965      -12.6060511420  MEMB      355             0.0000000000
     44133       355  PYPG      H4R           -16.5905668413      -58.7319171169      -12.9948606605  MEMB      355             0.0000000000
     44134       355  PYPG      H4S           -16.8428740038      -57.1320524431      -12.3321075702  MEMB      355             0.0000000000
     44135       355  PYPG      C25           -15.3714976601      -58.2213120963      -11.3083427032  MEMB      355             0.0000000000
     44136       355  PYPG      H5R           -15.0315080431      -57.2948237400      -10.7981003262  MEMB      355             0.0000000000
     44137       355  PYPG      H5S           -14.4072419252      -58.7679965799      -11.3836317596  MEMB      355             0.0000000000
     44138       355  PYPG      C26           -16.3220050325      -58.9525178290      -10.3352692823  MEMB      355             0.0000000000
     44139       355  PYPG      H6R           -16.9038734208      -59.6878641443      -10.9311013470  MEMB      355             0.0000000000
     44140       355  PYPG      H6S           -16.8163116294      -58.1180915960       -9.7933149162  MEMB      355             0.0000000000
     44141       355  PYPG      C27           -15.6253340932      -59.8664794247       -9.3430636546  MEMB      355             0.0000000000
     44142       355  PYPG      H7R           -15.3214687505      -60.7430027394       -9.9543684736  MEMB      355             0.0000000000
     44143       355  PYPG      H7S           -16.2696171631      -60.1721037971       -8.4911163937  MEMB      355             0.0000000000
     44144       355  PYPG      C28           -14.3743036984      -59.2757443360       -8.5339066668  MEMB      355             0.0000000000
     44145       355  PYPG      H8R           -14.7956873824      -58.4443884547       -7.9292549134  MEMB      355             0.0000000000
     44146       355  PYPG      H8S           -13.7299415643      -58.8911548086       -9.3531811017  MEMB      355             0.0000000000
     44147       355  PYPG      C29           -13.7764387922      -60.3013566010       -7.5880510063  MEMB      355             0.0000000000
     44148       355  PYPG      H9R           -13.3428107501      -61.2525085246       -7.9305076748  MEMB      355             0.0000000000
     44149       355  PYPG      C210          -13.4349934088      -59.8926787709       -6.3302797365  MEMB      355             0.0000000000
     44150       355  PYPG      H10R          -13.0181512661      -60.5731223219       -5.5731548553  MEMB      355             0.0000000000
     44151       355  PYPG      C211          -13.6600856470      -58.5349319014       -5.7812742130  MEMB      355             0.0000000000
     44152       355  PYPG      H11R          -14.7471710770      -58.3060707806       -5.7675297965  MEMB      355             0.0000000000
     44153       355  PYPG      H11S          -13.2580669079      -57.8436777894       -6.5525520562  MEMB      355             0.0000000000
     44154       355  PYPG      C212          -12.9965813558      -58.3175338849       -4.4047536605  MEMB      355             0.0000000000
     44155       355  PYPG      H12R          -13.2056043215      -57.3014786007       -4.0069320552  MEMB      355             0.0000000000
     44156       355  PYPG      H12S          -11.8945592356      -58.4221099547       -4.4992623606  MEMB      355             0.0000000000
     44157       355  PYPG      C213          -13.5689249109      -59.2699169380       -3.3073846050  MEMB      355             0.0000000000
     44158       355  PYPG      H13R          -12.8767103068      -59.3436691089       -2.4415204196  MEMB      355             0.0000000000
     44159       355  PYPG      H13S          -13.7581102035      -60.3098184766       -3.6496339205  MEMB      355             0.0000000000
     44160       355  PYPG      C214          -14.8410581482      -58.7528917591       -2.5763717210  MEMB      355             0.0000000000
     44161       355  PYPG      H14R          -14.6365839183      -57.7761414186       -2.0880379117  MEMB      355             0.0000000000
     44162       355  PYPG      H14S          -15.6399909340      -58.6949518619       -3.3462225080  MEMB      355             0.0000000000
     44163       355  PYPG      C215          -15.3893112203      -59.7465014920       -1.4699240978  MEMB      355             0.0000000000
     44164       355  PYPG      H15R          -14.6771624909      -60.0612675004       -0.6774050831  MEMB      355             0.0000000000
     44165       355  PYPG      H15S          -15.7793544882      -60.5917857874       -2.0762922322  MEMB      355             0.0000000000
     44166       355  PYPG      C216          -16.5556970563      -58.9920532238       -0.7825867628  MEMB      355             0.0000000000
     44167       355  PYPG      H16R          -17.2187954892      -59.7139018119       -0.2595599986  MEMB      355             0.0000000000
     44168       355  PYPG      H16S          -17.0913530126      -58.3893719963       -1.5468949762  MEMB      355             0.0000000000
     44169       355  PYPG      H16T          -16.0281311970      -58.3117241428       -0.0803420876  MEMB      355             0.0000000000
     44170       355  PYPG      C33           -15.9846854186      -53.4143150646      -11.7275784971  MEMB      355             0.0000000000
     44171       355  PYPG      H3X           -15.1996294911      -53.3790160988      -10.9422367238  MEMB      355             0.0000000000
     44172       355  PYPG      H3Y           -15.9540220231      -54.4946600916      -11.9849411957  MEMB      355             0.0000000000
     44173       355  PYPG      C34           -17.3107887652      -53.1369844731      -10.9373039440  MEMB      355             0.0000000000
     44174       355  PYPG      H4X           -17.2378713076      -52.0959270704      -10.5562475205  MEMB      355             0.0000000000
     44175       355  PYPG      H4Y           -17.3674916819      -53.7342076843      -10.0021939628  MEMB      355             0.0000000000
     44176       355  PYPG      C35           -18.5350090922      -53.2071179472      -11.7952775552  MEMB      355             0.0000000000
     44177       355  PYPG      H5X           -18.7435465974      -54.2709348699      -12.0384372842  MEMB      355             0.0000000000
     44178       355  PYPG      H5Y           -18.4461808349      -52.6590716901      -12.7576059669  MEMB      355             0.0000000000
     44179       355  PYPG      C36           -19.7302366689      -52.7456499855      -10.9923200511  MEMB      355             0.0000000000
     44180       355  PYPG      H6X           -20.6751773763      -53.1318218303      -11.4308169078  MEMB      355             0.0000000000
     44181       355  PYPG      H6Y           -19.9031356673      -51.6527907909      -11.0927493461  MEMB      355             0.0000000000
     44182       355  PYPG      C37           -19.7339463445      -53.0730841636       -9.4248739691  MEMB      355             0.0000000000
     44183       355  PYPG      H7X           -18.7807203468      -52.6628866410       -9.0281132521  MEMB      355             0.0000000000
     44184       355  PYPG      H7Y           -20.6370100611      -52.5980299344       -8.9854192183  MEMB      355             0.0000000000
     44185       355  PYPG      C38           -19.8819246056      -54.5556381233       -9.0734533135  MEMB      355             0.0000000000
     44186       355  PYPG      H8X           -19.7612247710      -55.1988421517       -9.9712514574  MEMB      355             0.0000000000
     44187       355  PYPG      H8Y           -20.9114086955      -54.7241023175       -8.6912193691  MEMB      355             0.0000000000
     44188       355  PYPG      C39           -18.9235130453      -55.1419258502       -8.0103413360  MEMB      355             0.0000000000
     44189       355  PYPG      H9X           -19.0019379578      -54.4224043560       -7.1674539770  MEMB      355             0.0000000000
     44190       355  PYPG      H9Y           -17.8714410599      -55.2683433193       -8.3442342299  MEMB      355             0.0000000000
     44191       355  PYPG      C310          -19.4944304457      -56.4453049897       -7.6229383408  MEMB      355             0.0000000000
     44192       355  PYPG      H10X          -19.9757290343      -56.9412323319       -8.4928400850  MEMB      355             0.0000000000
     44193       355  PYPG      H10Y          -20.4280891839      -56.2406116457       -7.0566316301  MEMB      355             0.0000000000
     44194       355  PYPG      C311          -18.6602600763      -57.4172115886       -6.8236725150  MEMB      355             0.0000000000
     44195       355  PYPG      H11X          -17.8099558183      -57.7748397936       -7.4428708670  MEMB      355             0.0000000000
     44196       355  PYPG      H11Y          -19.3089735189      -58.2837170054       -6.5733529448  MEMB      355             0.0000000000
     44197       355  PYPG      C312          -18.1212935600      -56.8192920900       -5.5389809179  MEMB      355             0.0000000000
     44198       355  PYPG      H12X          -17.6280861622      -57.6823821833       -5.0428533173  MEMB      355             0.0000000000
     44199       355  PYPG      H12Y          -17.3285911509      -56.0760962198       -5.7705065008  MEMB      355             0.0000000000
     44200       355  PYPG      C313          -19.0894130512      -56.0784667640       -4.5880976381  MEMB      355             0.0000000000
     44201       355  PYPG      H13X          -19.6492568333      -55.2023065520       -4.9795555204  MEMB      355             0.0000000000
     44202       355  PYPG      H13Y          -19.8570715755      -56.8692246758       -4.4476579925  MEMB      355             0.0000000000
     44203       355  PYPG      C314          -18.5740333600      -55.7312144271       -3.1475236584  MEMB      355             0.0000000000
     44204       355  PYPG      H14X          -17.8267101714      -56.5411031848       -3.0064235914  MEMB      355             0.0000000000
     44205       355  PYPG      H14Y          -18.2463114124      -54.6725613969       -3.0689563234  MEMB      355             0.0000000000
     44206       355  PYPG      C315          -19.5533162005      -56.0108134055       -2.0198839429  MEMB      355             0.0000000000
     44207       355  PYPG      H15X          -20.5115365549      -55.4884829983       -2.2279839234  MEMB      355             0.0000000000
     44208       355  PYPG      H15Y          -19.7095225524      -57.1107596078       -2.0136285547  MEMB      355             0.0000000000
     44209       355  PYPG      C316          -19.1752161819      -55.5677972533       -0.6229971809  MEMB      355             0.0000000000
     44210       355  PYPG      H16X          -19.7269607444      -56.0356852967        0.2201981076  MEMB      355             0.0000000000
     44211       355  PYPG      H16Y          -19.1328462402      -54.4589720501       -0.6780630711  MEMB      355             0.0000000000
     44212       355  PYPG      H16Z          -18.1268686488      -55.9320599307       -0.5719952454  MEMB      355             0.0000000000
     44213       356  PMPE      N             -31.6368687381      -46.8231847450      -16.6862156278  MEMB      356             0.0000000000
     44214       356  PMPE      HN1           -30.9815951532      -46.9652668912      -15.8912131520  MEMB      356             0.0000000000
     44215       356  PMPE      HN2           -32.5079993269      -46.3165848301      -16.4291396486  MEMB      356             0.0000000000
     44216       356  PMPE      HN3           -32.0141996387      -47.7585101497      -16.9399634810  MEMB      356             0.0000000000
     44217       356  PMPE      C12           -30.9387090821      -46.2056547156      -17.8188430108  MEMB      356             0.0000000000
     44218       356  PMPE      H12A          -30.4608280811      -45.2469277887      -17.5242355527  MEMB      356             0.0000000000
     44219       356  PMPE      H12B          -31.7031707088      -46.0760965891      -18.6145402533  MEMB      356             0.0000000000
     44220       356  PMPE      C11           -29.7433963230      -46.9627592135      -18.4397155325  MEMB      356             0.0000000000
     44221       356  PMPE      H11A          -29.1499286163      -47.1584605377      -17.5211198150  MEMB      356             0.0000000000
     44222       356  PMPE      H11B          -29.1831462441      -46.2746065896      -19.1082114439  MEMB      356             0.0000000000
     44223       356  PMPE      P             -29.1007070608      -48.9591764467      -19.8792497795  MEMB      356             0.0000000000
     44224       356  PMPE      O13           -28.3195164874      -48.0662538632      -20.7757303302  MEMB      356             0.0000000000
     44225       356  PMPE      O14           -29.7458127028      -50.0881728830      -20.5873749024  MEMB      356             0.0000000000
     44226       356  PMPE      O11           -28.2343509018      -49.4575065374      -18.7108364650  MEMB      356             0.0000000000
     44227       356  PMPE      O12           -30.2262626969      -48.1256323790      -19.1020343519  MEMB      356             0.0000000000
     44228       356  PMPE      C1            -28.6167983292      -50.6635466537      -17.9774084377  MEMB      356             0.0000000000
     44229       356  PMPE      HA            -27.6927698201      -51.2782598737      -17.9262250001  MEMB      356             0.0000000000
     44230       356  PMPE      HB            -29.4867144036      -51.1938569730      -18.4205089275  MEMB      356             0.0000000000
     44231       356  PMPE      C2            -28.9032964233      -50.4615267629      -16.4691892853  MEMB      356             0.0000000000
     44232       356  PMPE      HS            -29.8840577499      -49.9444936018      -16.3977403372  MEMB      356             0.0000000000
     44233       356  PMPE      O21           -27.8854154103      -49.6256923993      -15.9339658222  MEMB      356             0.0000000000
     44234       356  PMPE      C21           -28.1668280765      -48.4793525238      -15.2516055575  MEMB      356             0.0000000000
     44235       356  PMPE      O22           -29.2292097221      -48.0306767762      -14.9440387071  MEMB      356             0.0000000000
     44236       356  PMPE      C22           -26.8884456578      -47.6367759014      -15.3085668524  MEMB      356             0.0000000000
     44237       356  PMPE      H2R           -26.7637409080      -47.2756274481      -16.3518029731  MEMB      356             0.0000000000
     44238       356  PMPE      H2S           -26.0047745706      -48.2801826461      -15.1098861332  MEMB      356             0.0000000000
     44239       356  PMPE      C3            -28.9314061440      -51.7607946008      -15.6854763364  MEMB      356             0.0000000000
     44240       356  PMPE      HX            -28.0075477202      -52.3344066168      -15.9130197251  MEMB      356             0.0000000000
     44241       356  PMPE      HY            -29.7665895058      -52.4726375262      -15.8588823143  MEMB      356             0.0000000000
     44242       356  PMPE      O31           -28.7325153788      -51.4968295388      -14.3493529972  MEMB      356             0.0000000000
     44243       356  PMPE      C31           -29.7739474055      -50.9872379396      -13.7221427055  MEMB      356             0.0000000000
     44244       356  PMPE      O32           -30.8303997400      -50.6665971806      -14.2485679980  MEMB      356             0.0000000000
     44245       356  PMPE      C32           -29.2990999611      -50.7030390175      -12.2751564152  MEMB      356             0.0000000000
     44246       356  PMPE      H2X           -28.2539537635      -50.3355935249      -12.1916442132  MEMB      356             0.0000000000
     44247       356  PMPE      H2Y           -29.3896426306      -51.6226052697      -11.6582926383  MEMB      356             0.0000000000
     44248       356  PMPE      C23           -26.8757085187      -46.4488793745      -14.3738943217  MEMB      356             0.0000000000
     44249       356  PMPE      H3R           -27.7979927398      -45.8726483001      -14.6012062681  MEMB      356             0.0000000000
     44250       356  PMPE      H3S           -26.0217743343      -45.8194226570      -14.7038967370  MEMB      356             0.0000000000
     44251       356  PMPE      C24           -26.6990355093      -46.8043985425      -12.8620647196  MEMB      356             0.0000000000
     44252       356  PMPE      H4R           -25.8705448878      -47.5318420864      -12.7251343968  MEMB      356             0.0000000000
     44253       356  PMPE      H4S           -27.6693047141      -47.2823921111      -12.6082521360  MEMB      356             0.0000000000
     44254       356  PMPE      C25           -26.3619187345      -45.5965289689      -11.8669157115  MEMB      356             0.0000000000
     44255       356  PMPE      H5R           -27.0359395279      -44.7357404240      -12.0645521204  MEMB      356             0.0000000000
     44256       356  PMPE      H5S           -25.3292943989      -45.3537313163      -12.1971537797  MEMB      356             0.0000000000
     44257       356  PMPE      C26           -26.5305960839      -46.0691714320      -10.4403718025  MEMB      356             0.0000000000
     44258       356  PMPE      H6R           -27.5959795880      -46.2127305493      -10.1598903490  MEMB      356             0.0000000000
     44259       356  PMPE      H6S           -26.0664195167      -45.2267985549       -9.8842521905  MEMB      356             0.0000000000
     44260       356  PMPE      C27           -25.7601343616      -47.3842330780      -10.0421939825  MEMB      356             0.0000000000
     44261       356  PMPE      H7R           -24.7182690296      -47.4002436327      -10.4276562120  MEMB      356             0.0000000000
     44262       356  PMPE      H7S           -26.3263497360      -48.2220081998      -10.5024701949  MEMB      356             0.0000000000
     44263       356  PMPE      C28           -25.5412226251      -47.6034783726       -8.5110559556  MEMB      356             0.0000000000
     44264       356  PMPE      H8R           -26.4640032545      -47.6353348585       -7.8931705708  MEMB      356             0.0000000000
     44265       356  PMPE      H8S           -25.0039631080      -46.6591724137       -8.2787634827  MEMB      356             0.0000000000
     44266       356  PMPE      C29           -24.7511897465      -48.8650782778       -8.2715714102  MEMB      356             0.0000000000
     44267       356  PMPE      H9R           -23.7468483442      -49.0542348689       -8.7072763735  MEMB      356             0.0000000000
     44268       356  PMPE      C217          -25.5814878043      -50.0950051005       -7.9291511533  MEMB      356             0.0000000000
     44269       356  PMPE      H17R          -25.0793848062      -50.8855250595       -8.4730810005  MEMB      356             0.0000000000
     44270       356  PMPE      H17S          -26.6312082262      -49.8326898155       -7.9756997812  MEMB      356             0.0000000000
     44271       356  PMPE      C210          -24.7404888861      -49.3980840512       -6.9131326288  MEMB      356             0.0000000000
     44272       356  PMPE      H10R          -23.8807385214      -50.0447520881       -6.6356965050  MEMB      356             0.0000000000
     44273       356  PMPE      C211          -25.5336537710      -48.8601660596       -5.6993785764  MEMB      356             0.0000000000
     44274       356  PMPE      H11R          -25.6843197767      -49.6257784643       -4.9085191264  MEMB      356             0.0000000000
     44275       356  PMPE      H11S          -26.5620171433      -48.6650144201       -6.0718109794  MEMB      356             0.0000000000
     44276       356  PMPE      C212          -24.9848247420      -47.6189341924       -5.0943775879  MEMB      356             0.0000000000
     44277       356  PMPE      H12R          -24.9167749986      -46.7555026680       -5.7902059509  MEMB      356             0.0000000000
     44278       356  PMPE      H12S          -23.9805395239      -47.9026297725       -4.7132626246  MEMB      356             0.0000000000
     44279       356  PMPE      C213          -25.8295220723      -47.2817047976       -3.8705578896  MEMB      356             0.0000000000
     44280       356  PMPE      H13R          -25.9544047902      -48.1626279191       -3.2052000148  MEMB      356             0.0000000000
     44281       356  PMPE      H13S          -26.8228935069      -47.0110019601       -4.2879941591  MEMB      356             0.0000000000
     44282       356  PMPE      C214          -25.4326829239      -45.9842156209       -3.1029885817  MEMB      356             0.0000000000
     44283       356  PMPE      H14R          -25.4951270176      -45.0582130660       -3.7136772054  MEMB      356             0.0000000000
     44284       356  PMPE      H14S          -24.3753951445      -46.1321558132       -2.7954544139  MEMB      356             0.0000000000
     44285       356  PMPE      C215          -26.3359790139      -45.6289902494       -1.8782999153  MEMB      356             0.0000000000
     44286       356  PMPE      H15R          -27.2768921879      -45.1404234752       -2.2104238422  MEMB      356             0.0000000000
     44287       356  PMPE      H15S          -25.7444573078      -44.9355554987       -1.2430281403  MEMB      356             0.0000000000
     44288       356  PMPE      C216          -26.6789888265      -46.7795218148       -0.9258028762  MEMB      356             0.0000000000
     44289       356  PMPE      H16R          -25.8936061067      -47.5314631313       -0.6975957182  MEMB      356             0.0000000000
     44290       356  PMPE      H16S          -27.0478699703      -46.5503038875        0.0967955262  MEMB      356             0.0000000000
     44291       356  PMPE      H16T          -27.5958919360      -47.2263163372       -1.3662387156  MEMB      356             0.0000000000
     44292       356  PMPE      C33           -30.0366697191      -49.4716934369      -11.6811790099  MEMB      356             0.0000000000
     44293       356  PMPE      H3X           -31.1021072650      -49.6530345533      -11.4237310509  MEMB      356             0.0000000000
     44294       356  PMPE      H3Y           -30.0088459872      -48.6673789256      -12.4470934357  MEMB      356             0.0000000000
     44295       356  PMPE      C34           -29.4174161778      -48.8995383008      -10.4033112394  MEMB      356             0.0000000000
     44296       356  PMPE      H4X           -30.0779427141      -48.1281005609       -9.9528566986  MEMB      356             0.0000000000
     44297       356  PMPE      H4Y           -28.5175183238      -48.3471732083      -10.7488506577  MEMB      356             0.0000000000
     44298       356  PMPE      C35           -29.1303952945      -49.8686707368       -9.2877483199  MEMB      356             0.0000000000
     44299       356  PMPE      H5X           -28.7400311802      -49.2787919225       -8.4310218962  MEMB      356             0.0000000000
     44300       356  PMPE      H5Y           -28.3597237727      -50.6540724435       -9.4411453316  MEMB      356             0.0000000000
     44301       356  PMPE      C36           -30.3917651450      -50.5968137160       -8.7326859817  MEMB      356             0.0000000000
     44302       356  PMPE      H6X           -30.5572852176      -51.5365459512       -9.3017449867  MEMB      356             0.0000000000
     44303       356  PMPE      H6Y           -31.3383621070      -50.0209826664       -8.8145017423  MEMB      356             0.0000000000
     44304       356  PMPE      C37           -30.2119738665      -51.0614108621       -7.2480554132  MEMB      356             0.0000000000
     44305       356  PMPE      H7X           -29.2860622905      -51.6738870754       -7.2046792379  MEMB      356             0.0000000000
     44306       356  PMPE      H7Y           -31.0815503056      -51.7244053012       -7.0515969332  MEMB      356             0.0000000000
     44307       356  PMPE      C38           -30.0642981458      -50.0201117996       -6.1983052290  MEMB      356             0.0000000000
     44308       356  PMPE      H8X           -30.8331388818      -49.2209461372       -6.2656789468  MEMB      356             0.0000000000
     44309       356  PMPE      H8Y           -29.0521536215      -49.5621631405       -6.2112384803  MEMB      356             0.0000000000
     44310       356  PMPE      C39           -30.3449025316      -50.7508958036       -4.8561541974  MEMB      356             0.0000000000
     44311       356  PMPE      H9X           -29.5924911784      -51.5630657275       -4.7635345428  MEMB      356             0.0000000000
     44312       356  PMPE      H9Y           -31.3020975827      -51.3027572448       -4.7397608655  MEMB      356             0.0000000000
     44313       356  PMPE      C310          -30.1767046435      -49.8876701885       -3.6051708319  MEMB      356             0.0000000000
     44314       356  PMPE      H10X          -30.8760833392      -49.0301507881       -3.7044203768  MEMB      356             0.0000000000
     44315       356  PMPE      H10Y          -29.1042694746      -49.6167693863       -3.5011673625  MEMB      356             0.0000000000
     44316       356  PMPE      C311          -30.6944746977      -50.6035565695       -2.2931132513  MEMB      356             0.0000000000
     44317       356  PMPE      H11X          -31.7643733489      -50.8364225875       -2.4812920846  MEMB      356             0.0000000000
     44318       356  PMPE      H11Y          -30.6812762872      -49.9267989132       -1.4121223505  MEMB      356             0.0000000000
     44319       356  PMPE      C312          -29.9540416296      -51.8932046517       -1.8397718380  MEMB      356             0.0000000000
     44320       356  PMPE      H12X          -29.7151417641      -52.5525440197       -2.7014678008  MEMB      356             0.0000000000
     44321       356  PMPE      H12Y          -30.5433674023      -52.2790971731       -0.9806427393  MEMB      356             0.0000000000
     44322       356  PMPE      C313          -28.5069517153      -51.6207882482       -1.3169631101  MEMB      356             0.0000000000
     44323       356  PMPE      H13X          -28.4625698513      -50.9459584879       -0.4355122050  MEMB      356             0.0000000000
     44324       356  PMPE      H13Y          -28.0153444940      -51.0829067968       -2.1556099662  MEMB      356             0.0000000000
     44325       356  PMPE      C314          -27.8359940989      -52.8816613552       -0.9797174412  MEMB      356             0.0000000000
     44326       356  PMPE      H14X          -26.7571285870      -52.6782467082       -0.8094452025  MEMB      356             0.0000000000
     44327       356  PMPE      H14Y          -27.8392063753      -53.5531677532       -1.8648099077  MEMB      356             0.0000000000
     44328       356  PMPE      C315          -28.4108913656      -53.5373654320        0.2754629492  MEMB      356             0.0000000000
     44329       356  PMPE      H15X          -29.4852149606      -53.7443704346        0.0823349507  MEMB      356             0.0000000000
     44330       356  PMPE      H15Y          -28.2305232082      -52.7147062151        1.0000448803  MEMB      356             0.0000000000
     44331       356  PMPE      C316          -27.5717356129      -54.7703134938        0.7489805489  MEMB      356             0.0000000000
     44332       356  PMPE      H16X          -27.5848386137      -55.6497720437        0.0702284425  MEMB      356             0.0000000000
     44333       356  PMPE      H16Y          -27.8673073340      -55.0490282896        1.7830372353  MEMB      356             0.0000000000
     44334       356  PMPE      H16Z          -26.5123618772      -54.4572761815        0.8675357783  MEMB      356             0.0000000000
     44335       357  PMPG      C13            22.8359557658      -52.0499351674      -19.4992436201  MEMB      357             0.0000000000
     44336       357  PMPG      H13A           23.1889130848      -51.5646334252      -20.4342432841  MEMB      357             0.0000000000
     44337       357  PMPG      H13B           22.2244342121      -52.9623787806      -19.6660035534  MEMB      357             0.0000000000
     44338       357  PMPG      OC3            22.0637191723      -51.1783186963      -18.6845265574  MEMB      357             0.0000000000
     44339       357  PMPG      HO3            22.3814467682      -50.3023280763      -18.9153723493  MEMB      357             0.0000000000
     44340       357  PMPG      C12            24.0695750608      -52.5092925566      -18.6637298905  MEMB      357             0.0000000000
     44341       357  PMPG      H12A           24.5887077240      -53.3035258012      -19.2489425622  MEMB      357             0.0000000000
     44342       357  PMPG      OC2            23.6408906438      -53.0818702595      -17.4274348874  MEMB      357             0.0000000000
     44343       357  PMPG      HO2            24.4830491553      -53.2051111711      -16.9372333378  MEMB      357             0.0000000000
     44344       357  PMPG      C11            25.1351995010      -51.4519700385      -18.3520568686  MEMB      357             0.0000000000
     44345       357  PMPG      H11A           26.0661225524      -51.9483789911      -18.0038021759  MEMB      357             0.0000000000
     44346       357  PMPG      H11B           24.7327947491      -50.8928037348      -17.4804349670  MEMB      357             0.0000000000
     44347       357  PMPG      P              26.4856972848      -49.6569255563      -19.5783474070  MEMB      357             0.0000000000
     44348       357  PMPG      O13            26.3204548491      -48.6317890767      -20.6800907691  MEMB      357             0.0000000000
     44349       357  PMPG      O14            27.8182035552      -50.3137637604      -19.4525374988  MEMB      357             0.0000000000
     44350       357  PMPG      O11            26.3274537159      -48.9063670773      -18.1284343141  MEMB      357             0.0000000000
     44351       357  PMPG      O12            25.2687714515      -50.7264858139      -19.5335982274  MEMB      357             0.0000000000
     44352       357  PMPG      C1             25.1921468740      -48.0905432556      -17.9550683332  MEMB      357             0.0000000000
     44353       357  PMPG      HA             24.2804184596      -48.7194600434      -17.8682589621  MEMB      357             0.0000000000
     44354       357  PMPG      HB             25.0039822886      -47.4325424260      -18.8302540671  MEMB      357             0.0000000000
     44355       357  PMPG      C2             25.2419722605      -47.3024108970      -16.5730584535  MEMB      357             0.0000000000
     44356       357  PMPG      HS             25.9097650784      -46.4219759292      -16.6879836938  MEMB      357             0.0000000000
     44357       357  PMPG      O21            25.7493789827      -48.2230489771      -15.5735862782  MEMB      357             0.0000000000
     44358       357  PMPG      C21            26.0986724636      -47.6921402401      -14.4048988683  MEMB      357             0.0000000000
     44359       357  PMPG      O22            26.1905288425      -46.4490301935      -14.1191752342  MEMB      357             0.0000000000
     44360       357  PMPG      C22            26.5241778953      -48.8983321086      -13.5652181984  MEMB      357             0.0000000000
     44361       357  PMPG      H2R            27.6343785628      -48.8649391456      -13.5395234317  MEMB      357             0.0000000000
     44362       357  PMPG      H2S            26.3567868380      -49.8255091636      -14.1539830752  MEMB      357             0.0000000000
     44363       357  PMPG      C3             23.8643618399      -46.8925384233      -16.2129339691  MEMB      357             0.0000000000
     44364       357  PMPG      HX             23.5486513478      -46.2193953909      -17.0384799381  MEMB      357             0.0000000000
     44365       357  PMPG      HY             23.9129556486      -46.2018829260      -15.3440525929  MEMB      357             0.0000000000
     44366       357  PMPG      O31            22.9615513272      -48.0467903192      -16.0401030357  MEMB      357             0.0000000000
     44367       357  PMPG      C31            22.6605249946      -48.4449912145      -14.8381581898  MEMB      357             0.0000000000
     44368       357  PMPG      O32            22.9798417467      -47.9292943222      -13.7810976565  MEMB      357             0.0000000000
     44369       357  PMPG      C32            21.7479360551      -49.6384005173      -14.9920778866  MEMB      357             0.0000000000
     44370       357  PMPG      H2X            21.6701676580      -49.9544566449      -16.0543309795  MEMB      357             0.0000000000
     44371       357  PMPG      H2Y            20.7471326921      -49.3250646994      -14.6252888382  MEMB      357             0.0000000000
     44372       357  PMPG      C23            25.8378467920      -48.6880123685      -12.2350076620  MEMB      357             0.0000000000
     44373       357  PMPG      H3R            24.8059172418      -49.0927686537      -12.3099397630  MEMB      357             0.0000000000
     44374       357  PMPG      H3S            25.7363051973      -47.6143822794      -11.9679333171  MEMB      357             0.0000000000
     44375       357  PMPG      C24            26.6429104871      -49.4761748697      -11.1467517285  MEMB      357             0.0000000000
     44376       357  PMPG      H4R            27.6754087786      -49.0660216174      -11.1532399096  MEMB      357             0.0000000000
     44377       357  PMPG      H4S            26.7225288763      -50.5744529725      -11.2942884452  MEMB      357             0.0000000000
     44378       357  PMPG      C25            26.1836436618      -49.1055969303       -9.7365357753  MEMB      357             0.0000000000
     44379       357  PMPG      H5R            26.2997376808      -48.0192348392       -9.5348901638  MEMB      357             0.0000000000
     44380       357  PMPG      H5S            26.8330762714      -49.6168296273       -8.9941070146  MEMB      357             0.0000000000
     44381       357  PMPG      C26            24.7342906146      -49.4395744967       -9.2741570908  MEMB      357             0.0000000000
     44382       357  PMPG      H6R            24.7385926856      -50.5349389067       -9.0884708520  MEMB      357             0.0000000000
     44383       357  PMPG      H6S            24.0105129919      -49.2580823643      -10.0972772362  MEMB      357             0.0000000000
     44384       357  PMPG      C27            24.3800418885      -48.7362742294       -7.9857569746  MEMB      357             0.0000000000
     44385       357  PMPG      H7R            24.5066460914      -47.6427391193       -8.1356685698  MEMB      357             0.0000000000
     44386       357  PMPG      H7S            25.0447091599      -48.9884504248       -7.1319738579  MEMB      357             0.0000000000
     44387       357  PMPG      C28            22.9266996576      -48.8223228642       -7.5318130130  MEMB      357             0.0000000000
     44388       357  PMPG      H8R            22.8269826792      -48.2777821380       -6.5685621721  MEMB      357             0.0000000000
     44389       357  PMPG      H8S            22.6060920352      -49.8760484203       -7.3862313637  MEMB      357             0.0000000000
     44390       357  PMPG      C29            21.8762389597      -48.1493243883       -8.4658369209  MEMB      357             0.0000000000
     44391       357  PMPG      H9R            22.2750328868      -47.2855533094       -9.0395827872  MEMB      357             0.0000000000
     44392       357  PMPG      C217           21.0553943332      -49.1952081490       -9.2208340462  MEMB      357             0.0000000000
     44393       357  PMPG      H17R           20.7791511781      -48.9548102280      -10.2400431000  MEMB      357             0.0000000000
     44394       357  PMPG      H17S           21.1271024009      -50.1794602651       -8.7747456523  MEMB      357             0.0000000000
     44395       357  PMPG      C210           20.3703274353      -48.1760858239       -8.2249098954  MEMB      357             0.0000000000
     44396       357  PMPG      H10R           19.7572662525      -47.3759327588       -8.6920622567  MEMB      357             0.0000000000
     44397       357  PMPG      C211           19.6400068388      -48.7133860268       -6.9764750414  MEMB      357             0.0000000000
     44398       357  PMPG      H11R           18.5409792052      -48.5718361468       -7.0566190360  MEMB      357             0.0000000000
     44399       357  PMPG      H11S           19.9244352404      -49.7857912400       -6.9184339628  MEMB      357             0.0000000000
     44400       357  PMPG      C212           19.9579238606      -48.0813144345       -5.6718824865  MEMB      357             0.0000000000
     44401       357  PMPG      H12R           19.6405769171      -47.0169312588       -5.6983447872  MEMB      357             0.0000000000
     44402       357  PMPG      H12S           21.0423218381      -48.0430340330       -5.4332685708  MEMB      357             0.0000000000
     44403       357  PMPG      C213           19.1178455249      -48.5501983286       -4.4787274531  MEMB      357             0.0000000000
     44404       357  PMPG      H13R           19.2011448981      -49.6571786321       -4.4342662049  MEMB      357             0.0000000000
     44405       357  PMPG      H13S           18.0871865750      -48.1461070566       -4.5723944753  MEMB      357             0.0000000000
     44406       357  PMPG      C214           19.6334365725      -48.0216462625       -3.1458920303  MEMB      357             0.0000000000
     44407       357  PMPG      H14R           19.8214182253      -46.9281431809       -3.2027676250  MEMB      357             0.0000000000
     44408       357  PMPG      H14S           20.6077334920      -48.5476756381       -3.0544611458  MEMB      357             0.0000000000
     44409       357  PMPG      C215           18.9018445277      -48.4301134849       -1.8809325060  MEMB      357             0.0000000000
     44410       357  PMPG      H15R           19.5741987279      -48.2295603367       -1.0195156638  MEMB      357             0.0000000000
     44411       357  PMPG      H15S           18.8399140091      -49.5344841024       -1.9851014012  MEMB      357             0.0000000000
     44412       357  PMPG      C216           17.6053049860      -47.7011383430       -1.6231304629  MEMB      357             0.0000000000
     44413       357  PMPG      H16R           16.9801007790      -47.8315371600       -2.5322168908  MEMB      357             0.0000000000
     44414       357  PMPG      H16S           17.7105099915      -46.5986683293       -1.5347414800  MEMB      357             0.0000000000
     44415       357  PMPG      H16T           16.9765620745      -48.0674612499       -0.7835998660  MEMB      357             0.0000000000
     44416       357  PMPG      C33            22.2868223995      -50.8721906307      -14.1708031894  MEMB      357             0.0000000000
     44417       357  PMPG      H3X            21.4972469182      -51.6393664184      -14.0213620652  MEMB      357             0.0000000000
     44418       357  PMPG      H3Y            22.5159626968      -50.5111067762      -13.1454087033  MEMB      357             0.0000000000
     44419       357  PMPG      C34            23.3384315394      -51.4862224219      -15.0380081506  MEMB      357             0.0000000000
     44420       357  PMPG      H4X            24.1495343972      -50.7279132611      -15.0754299118  MEMB      357             0.0000000000
     44421       357  PMPG      H4Y            22.8885255927      -51.7404580828      -16.0215072016  MEMB      357             0.0000000000
     44422       357  PMPG      C35            23.8450417649      -52.8167264325      -14.5213769943  MEMB      357             0.0000000000
     44423       357  PMPG      H5X            24.4694744510      -53.3069739027      -15.2985917169  MEMB      357             0.0000000000
     44424       357  PMPG      H5Y            22.9429443543      -53.4345395311      -14.3242773606  MEMB      357             0.0000000000
     44425       357  PMPG      C36            24.7168015472      -52.8020178273      -13.2484098630  MEMB      357             0.0000000000
     44426       357  PMPG      H6X            24.2494122675      -52.0338763050      -12.5958555092  MEMB      357             0.0000000000
     44427       357  PMPG      H6Y            25.7620770690      -52.5406721837      -13.5193686642  MEMB      357             0.0000000000
     44428       357  PMPG      C37            24.5329019564      -54.1018893115      -12.3839761121  MEMB      357             0.0000000000
     44429       357  PMPG      H7X            24.7310979484      -54.8311431372      -13.1983644874  MEMB      357             0.0000000000
     44430       357  PMPG      H7Y            23.4547641991      -54.2426607999      -12.1556704913  MEMB      357             0.0000000000
     44431       357  PMPG      C38            25.4660146284      -54.1809854238      -11.1797219286  MEMB      357             0.0000000000
     44432       357  PMPG      H8X            26.4217334355      -53.6581934544      -11.3979220971  MEMB      357             0.0000000000
     44433       357  PMPG      H8Y            25.6756962849      -55.2433236232      -10.9311414216  MEMB      357             0.0000000000
     44434       357  PMPG      C39            24.7786012590      -53.5875039086      -10.0147789414  MEMB      357             0.0000000000
     44435       357  PMPG      H9X            23.7570439065      -53.9836150892       -9.8308286777  MEMB      357             0.0000000000
     44436       357  PMPG      H9Y            24.6033179439      -52.5175152742      -10.2571029910  MEMB      357             0.0000000000
     44437       357  PMPG      C310           25.6184929585      -53.4725856749       -8.7559517701  MEMB      357             0.0000000000
     44438       357  PMPG      H10X           26.5665145304      -52.9334063753       -8.9677578090  MEMB      357             0.0000000000
     44439       357  PMPG      H10Y           25.8438327604      -54.5249906057       -8.4802941416  MEMB      357             0.0000000000
     44440       357  PMPG      C311           24.8336261154      -53.1348345136       -7.4928641251  MEMB      357             0.0000000000
     44441       357  PMPG      H11X           23.8107934012      -53.5648036007       -7.4357624034  MEMB      357             0.0000000000
     44442       357  PMPG      H11Y           24.6771973018      -52.0351952627       -7.5182540481  MEMB      357             0.0000000000
     44443       357  PMPG      C312           25.6097103957      -53.4285807548       -6.1923378679  MEMB      357             0.0000000000
     44444       357  PMPG      H12X           26.6577459733      -53.0703072933       -6.1052603437  MEMB      357             0.0000000000
     44445       357  PMPG      H12Y           25.6622203345      -54.5363121706       -6.1252940607  MEMB      357             0.0000000000
     44446       357  PMPG      C313           24.8570715533      -52.9574131323       -4.9316549001  MEMB      357             0.0000000000
     44447       357  PMPG      H13X           25.6249028028      -52.9660933524       -4.1287344193  MEMB      357             0.0000000000
     44448       357  PMPG      H13Y           24.0154073058      -53.6607715404       -4.7549922616  MEMB      357             0.0000000000
     44449       357  PMPG      C314           24.2807480688      -51.4565778525       -4.9821033207  MEMB      357             0.0000000000
     44450       357  PMPG      H14X           23.5991838202      -51.4112519129       -5.8583090243  MEMB      357             0.0000000000
     44451       357  PMPG      H14Y           25.2078452466      -50.8785339121       -5.1837883281  MEMB      357             0.0000000000
     44452       357  PMPG      C315           23.5529357077      -51.0023187460       -3.7144959234  MEMB      357             0.0000000000
     44453       357  PMPG      H15X           22.8639554679      -51.8143780460       -3.3979723964  MEMB      357             0.0000000000
     44454       357  PMPG      H15Y           22.8318892733      -50.2341782442       -4.0671618903  MEMB      357             0.0000000000
     44455       357  PMPG      C316           24.2925440442      -50.6231278859       -2.3988304387  MEMB      357             0.0000000000
     44456       357  PMPG      H16X           25.0312229134      -49.7966988735       -2.4742618846  MEMB      357             0.0000000000
     44457       357  PMPG      H16Y           24.8073402622      -51.5199260686       -1.9925558681  MEMB      357             0.0000000000
     44458       357  PMPG      H16Z           23.5530052548      -50.2376566388       -1.6647898084  MEMB      357             0.0000000000
     44459       358  PMPE      N             -47.3508166676       32.0934894542      -16.2461378709  MEMB      358             0.0000000000
     44460       358  PMPE      HN1           -47.9362372205       31.3058070580      -15.9019876658  MEMB      358             0.0000000000
     44461       358  PMPE      HN2           -46.4124864746       31.6552351113      -16.3413733744  MEMB      358             0.0000000000
     44462       358  PMPE      HN3           -47.3345664151       32.7505411543      -15.4401484203  MEMB      358             0.0000000000
     44463       358  PMPE      C12           -47.9375225822       32.6921438523      -17.4715614522  MEMB      358             0.0000000000
     44464       358  PMPE      H12A          -47.1979625602       33.2583517461      -18.0771854696  MEMB      358             0.0000000000
     44465       358  PMPE      H12B          -48.7444466914       33.3789765658      -17.1377124019  MEMB      358             0.0000000000
     44466       358  PMPE      C11           -48.6299055494       31.7095028895      -18.4705664732  MEMB      358             0.0000000000
     44467       358  PMPE      H11A          -48.9639659325       32.2980689968      -19.3516536521  MEMB      358             0.0000000000
     44468       358  PMPE      H11B          -49.4858157830       31.2124632440      -17.9658979245  MEMB      358             0.0000000000
     44469       358  PMPE      P             -47.9971729707       29.7117828539      -20.0279376500  MEMB      358             0.0000000000
     44470       358  PMPE      O13           -46.8700084889       28.7128220933      -20.2105003013  MEMB      358             0.0000000000
     44471       358  PMPE      O14           -48.2882359777       30.6289315674      -21.1343938411  MEMB      358             0.0000000000
     44472       358  PMPE      O11           -49.3439340756       28.9751739150      -19.6646226653  MEMB      358             0.0000000000
     44473       358  PMPE      O12           -47.7991348519       30.6312765714      -18.7742797214  MEMB      358             0.0000000000
     44474       358  PMPE      C1            -49.2853838472       27.6292665081      -19.1611909545  MEMB      358             0.0000000000
     44475       358  PMPE      HA            -48.5557951514       27.5426734746      -18.3278104923  MEMB      358             0.0000000000
     44476       358  PMPE      HB            -49.0117532534       26.8278517852      -19.8803444571  MEMB      358             0.0000000000
     44477       358  PMPE      C2            -50.7411096731       27.3704434861      -18.5674764565  MEMB      358             0.0000000000
     44478       358  PMPE      HS            -51.5224073813       27.3263212986      -19.3561133042  MEMB      358             0.0000000000
     44479       358  PMPE      O21           -51.1101338091       28.3635899835      -17.5580993421  MEMB      358             0.0000000000
     44480       358  PMPE      C21           -52.4088260473       28.3593036837      -17.2759649066  MEMB      358             0.0000000000
     44481       358  PMPE      O22           -53.2805062140       27.8197357556      -17.9802369795  MEMB      358             0.0000000000
     44482       358  PMPE      C22           -52.5457947906       29.2773746534      -16.0267914883  MEMB      358             0.0000000000
     44483       358  PMPE      H2R           -52.5861765333       30.3390067478      -16.3517952659  MEMB      358             0.0000000000
     44484       358  PMPE      H2S           -51.6028436761       29.0920263790      -15.4692877212  MEMB      358             0.0000000000
     44485       358  PMPE      C3            -50.7060462354       25.9194274302      -17.8810559789  MEMB      358             0.0000000000
     44486       358  PMPE      HX            -50.5506232182       25.2365563237      -18.7435244039  MEMB      358             0.0000000000
     44487       358  PMPE      HY            -51.6663958263       25.6453200964      -17.3943173143  MEMB      358             0.0000000000
     44488       358  PMPE      O31           -49.6090161846       25.8804879739      -16.8972880410  MEMB      358             0.0000000000
     44489       358  PMPE      C31           -49.8431498499       25.6107671361      -15.5575921809  MEMB      358             0.0000000000
     44490       358  PMPE      O32           -50.8713580457       25.1948448568      -15.1181022722  MEMB      358             0.0000000000
     44491       358  PMPE      C32           -48.4521635467       25.6370915074      -14.9239018923  MEMB      358             0.0000000000
     44492       358  PMPE      H2X           -47.8817546146       26.5251780949      -15.2706838475  MEMB      358             0.0000000000
     44493       358  PMPE      H2Y           -47.9275479195       24.6818193381      -15.1396669530  MEMB      358             0.0000000000
     44494       358  PMPE      C23           -53.7706720723       28.8332733897      -15.1627875760  MEMB      358             0.0000000000
     44495       358  PMPE      H3R           -53.7446678839       27.7310099891      -15.0261843356  MEMB      358             0.0000000000
     44496       358  PMPE      H3S           -54.6252820258       28.9972467987      -15.8534939131  MEMB      358             0.0000000000
     44497       358  PMPE      C24           -53.8065307528       29.5166899437      -13.8067769737  MEMB      358             0.0000000000
     44498       358  PMPE      H4R           -54.6810204329       28.9865032754      -13.3726210416  MEMB      358             0.0000000000
     44499       358  PMPE      H4S           -54.0664246138       30.5845241731      -13.9695839942  MEMB      358             0.0000000000
     44500       358  PMPE      C25           -52.6449725244       29.2178569482      -12.9635266519  MEMB      358             0.0000000000
     44501       358  PMPE      H5R           -51.9316753604       30.0693700332      -12.9422331569  MEMB      358             0.0000000000
     44502       358  PMPE      H5S           -52.1767951054       28.3108696752      -13.4022802877  MEMB      358             0.0000000000
     44503       358  PMPE      C26           -52.8344746526       28.8153923893      -11.4443179175  MEMB      358             0.0000000000
     44504       358  PMPE      H6R           -51.8778378410       28.5411754862      -10.9503821706  MEMB      358             0.0000000000
     44505       358  PMPE      H6S           -53.2938545758       27.8095175994      -11.3370463494  MEMB      358             0.0000000000
     44506       358  PMPE      C27           -53.6392691019       29.7810199954      -10.6705532118  MEMB      358             0.0000000000
     44507       358  PMPE      H7R           -54.6764430160       29.6375527931      -11.0420475943  MEMB      358             0.0000000000
     44508       358  PMPE      H7S           -53.3952956454       30.8612378708      -10.7595899097  MEMB      358             0.0000000000
     44509       358  PMPE      C28           -53.5817084382       29.5818724472       -9.0961291421  MEMB      358             0.0000000000
     44510       358  PMPE      H8R           -54.0206642984       28.5868985782       -8.8688280007  MEMB      358             0.0000000000
     44511       358  PMPE      H8S           -54.2684032394       30.2296795715       -8.5103670361  MEMB      358             0.0000000000
     44512       358  PMPE      C29           -52.1187328797       29.6747299754       -8.6233597247  MEMB      358             0.0000000000
     44513       358  PMPE      H9R           -51.5637869064       30.5961787953       -8.9013679673  MEMB      358             0.0000000000
     44514       358  PMPE      C217          -51.3940501435       28.3228690612       -8.3117900791  MEMB      358             0.0000000000
     44515       358  PMPE      H17R          -50.3980598676       28.4272897974       -8.7240869618  MEMB      358             0.0000000000
     44516       358  PMPE      H17S          -52.0548097196       27.4920752848       -8.5264237850  MEMB      358             0.0000000000
     44517       358  PMPE      C210          -51.8077002390       29.2678867676       -7.1571017124  MEMB      358             0.0000000000
     44518       358  PMPE      H10R          -51.1445516161       30.0945839753       -6.8237449978  MEMB      358             0.0000000000
     44519       358  PMPE      C211          -52.8616759379       28.8391801123       -6.1315185994  MEMB      358             0.0000000000
     44520       358  PMPE      H11R          -53.6069131093       28.1147326887       -6.5240974697  MEMB      358             0.0000000000
     44521       358  PMPE      H11S          -53.5447666425       29.7065740485       -6.0076803914  MEMB      358             0.0000000000
     44522       358  PMPE      C212          -52.3319560530       28.2885802183       -4.8606753148  MEMB      358             0.0000000000
     44523       358  PMPE      H12R          -51.4667964034       28.8503272919       -4.4480499465  MEMB      358             0.0000000000
     44524       358  PMPE      H12S          -51.8798895107       27.3249708420       -5.1791310587  MEMB      358             0.0000000000
     44525       358  PMPE      C213          -53.3682711731       27.9870254685       -3.7713468639  MEMB      358             0.0000000000
     44526       358  PMPE      H13R          -54.0029259773       27.2008458586       -4.2333598967  MEMB      358             0.0000000000
     44527       358  PMPE      H13S          -53.9397455385       28.9118213218       -3.5422394758  MEMB      358             0.0000000000
     44528       358  PMPE      C214          -52.7347701612       27.4528088762       -2.5094190629  MEMB      358             0.0000000000
     44529       358  PMPE      H14R          -52.0752084418       26.5763176050       -2.6856648486  MEMB      358             0.0000000000
     44530       358  PMPE      H14S          -53.5532317145       27.0739617864       -1.8606390403  MEMB      358             0.0000000000
     44531       358  PMPE      C215          -51.9204260745       28.3943026477       -1.5775817191  MEMB      358             0.0000000000
     44532       358  PMPE      H15R          -51.0747375604       28.8609746034       -2.1265348906  MEMB      358             0.0000000000
     44533       358  PMPE      H15S          -51.4738824000       27.8138570343       -0.7421164482  MEMB      358             0.0000000000
     44534       358  PMPE      C216          -52.7789596891       29.4826135407       -0.9670129694  MEMB      358             0.0000000000
     44535       358  PMPE      H16R          -53.3694651868       30.1300426287       -1.6499916004  MEMB      358             0.0000000000
     44536       358  PMPE      H16S          -53.4393415747       29.0145790121       -0.2059883681  MEMB      358             0.0000000000
     44537       358  PMPE      H16T          -52.1000115924       30.1305729892       -0.3724550991  MEMB      358             0.0000000000
     44538       358  PMPE      C33           -48.5275797409       25.5143734752      -13.3057854705  MEMB      358             0.0000000000
     44539       358  PMPE      H3X           -47.5079489154       25.4011937651      -12.8793296032  MEMB      358             0.0000000000
     44540       358  PMPE      H3Y           -49.1697526074       24.6781082834      -12.9556495260  MEMB      358             0.0000000000
     44541       358  PMPE      C34           -49.0469385918       26.8752749968      -12.7357467584  MEMB      358             0.0000000000
     44542       358  PMPE      H4X           -49.3423044713       26.7684959341      -11.6700648644  MEMB      358             0.0000000000
     44543       358  PMPE      H4Y           -49.9542041712       27.0911841018      -13.3395460082  MEMB      358             0.0000000000
     44544       358  PMPE      C35           -48.1060625471       28.0512643715      -12.7425533923  MEMB      358             0.0000000000
     44545       358  PMPE      H5X           -47.7687356686       28.1794451479      -13.7933156897  MEMB      358             0.0000000000
     44546       358  PMPE      H5Y           -47.1604798661       27.8973278238      -12.1799717612  MEMB      358             0.0000000000
     44547       358  PMPE      C36           -48.7907116557       29.4024008836      -12.4890820261  MEMB      358             0.0000000000
     44548       358  PMPE      H6X           -49.2191107389       29.3019848774      -11.4689292812  MEMB      358             0.0000000000
     44549       358  PMPE      H6Y           -49.6643916516       29.5081993589      -13.1671754722  MEMB      358             0.0000000000
     44550       358  PMPE      C37           -47.7649559254       30.5708752011      -12.6513874702  MEMB      358             0.0000000000
     44551       358  PMPE      H7X           -47.2577857868       30.4347645563      -13.6304550877  MEMB      358             0.0000000000
     44552       358  PMPE      H7Y           -47.0098858940       30.4942287420      -11.8400210890  MEMB      358             0.0000000000
     44553       358  PMPE      C38           -48.3111360398       31.9573673248      -12.6280209766  MEMB      358             0.0000000000
     44554       358  PMPE      H8X           -49.0309429399       32.1645361253      -13.4485573624  MEMB      358             0.0000000000
     44555       358  PMPE      H8Y           -47.4570604077       32.6678957695      -12.6230315545  MEMB      358             0.0000000000
     44556       358  PMPE      C39           -49.2981933419       32.3383776576      -11.4050090926  MEMB      358             0.0000000000
     44557       358  PMPE      H9X           -50.1801725062       31.6687067517      -11.4943100021  MEMB      358             0.0000000000
     44558       358  PMPE      H9Y           -49.5955066035       33.3938396501      -11.5836868098  MEMB      358             0.0000000000
     44559       358  PMPE      C310          -48.5568407488       32.2337251623      -10.0212815305  MEMB      358             0.0000000000
     44560       358  PMPE      H10X          -47.5176648166       32.6263250061      -10.0386059951  MEMB      358             0.0000000000
     44561       358  PMPE      H10Y          -48.3983667312       31.1628297516       -9.7715018833  MEMB      358             0.0000000000
     44562       358  PMPE      C311          -49.4191812197       32.8204672837       -8.9151325264  MEMB      358             0.0000000000
     44563       358  PMPE      H11X          -50.4733076120       32.4711446284       -8.8817838422  MEMB      358             0.0000000000
     44564       358  PMPE      H11Y          -49.5986345906       33.9003398299       -9.1048504423  MEMB      358             0.0000000000
     44565       358  PMPE      C312          -48.9742821592       32.5205828708       -7.4946388737  MEMB      358             0.0000000000
     44566       358  PMPE      H12X          -47.9305138043       32.8569576742       -7.3165364992  MEMB      358             0.0000000000
     44567       358  PMPE      H12Y          -49.0755048804       31.4153852254       -7.4435189746  MEMB      358             0.0000000000
     44568       358  PMPE      C313          -49.8572727852       33.0955770543       -6.3493992999  MEMB      358             0.0000000000
     44569       358  PMPE      H13X          -50.9231870603       33.1012414258       -6.6626333373  MEMB      358             0.0000000000
     44570       358  PMPE      H13Y          -49.5571567071       34.1613914414       -6.2583452808  MEMB      358             0.0000000000
     44571       358  PMPE      C314          -49.7423015398       32.2630290060       -5.0528376982  MEMB      358             0.0000000000
     44572       358  PMPE      H14X          -48.7327847175       31.9445394354       -4.7155523740  MEMB      358             0.0000000000
     44573       358  PMPE      H14Y          -50.0827435522       31.2069995911       -5.1095987633  MEMB      358             0.0000000000
     44574       358  PMPE      C315          -50.4571288339       32.9505293391       -3.8367289501  MEMB      358             0.0000000000
     44575       358  PMPE      H15X          -51.5635309791       33.0286974293       -3.7728141436  MEMB      358             0.0000000000
     44576       358  PMPE      H15Y          -50.0849450404       33.9865489338       -3.9866077061  MEMB      358             0.0000000000
     44577       358  PMPE      C316          -49.9545339383       32.4965142693       -2.4797038010  MEMB      358             0.0000000000
     44578       358  PMPE      H16X          -50.0342174880       33.2730951443       -1.6892017536  MEMB      358             0.0000000000
     44579       358  PMPE      H16Y          -48.8757929150       32.2495614391       -2.3814545146  MEMB      358             0.0000000000
     44580       358  PMPE      H16Z          -50.5905216578       31.6283508338       -2.2037831203  MEMB      358             0.0000000000
     44581       359  PMPE      N              34.1666348514       49.1363310870      -17.7498983344  MEMB      359             0.0000000000
     44582       359  PMPE      HN1            33.4969033955       49.1223019319      -18.5454251515  MEMB      359             0.0000000000
     44583       359  PMPE      HN2            33.6806056986       49.4143350099      -16.8734910678  MEMB      359             0.0000000000
     44584       359  PMPE      HN3            34.9823367809       49.6594963610      -18.1274272237  MEMB      359             0.0000000000
     44585       359  PMPE      C12            34.5913107447       47.6209684071      -17.6505992814  MEMB      359             0.0000000000
     44586       359  PMPE      H12A           34.0202889530       47.1784354121      -16.8065495763  MEMB      359             0.0000000000
     44587       359  PMPE      H12B           35.6460942730       47.6377253439      -17.3020707227  MEMB      359             0.0000000000
     44588       359  PMPE      C11            34.4027950146       46.8737288933      -18.9745528098  MEMB      359             0.0000000000
     44589       359  PMPE      H11A           34.6356483910       45.7954542507      -18.8425529105  MEMB      359             0.0000000000
     44590       359  PMPE      H11B           34.9497327659       47.1804944589      -19.8916542376  MEMB      359             0.0000000000
     44591       359  PMPE      P              31.9854772964       45.8653412013      -19.5731174108  MEMB      359             0.0000000000
     44592       359  PMPE      O13            32.3822598073       44.6649894208      -18.7750238809  MEMB      359             0.0000000000
     44593       359  PMPE      O14            31.6928347149       45.7049394262      -21.0349692090  MEMB      359             0.0000000000
     44594       359  PMPE      O11            30.8359449226       46.6279972490      -18.8328661139  MEMB      359             0.0000000000
     44595       359  PMPE      O12            33.0348642540       46.9937387102      -19.4089729443  MEMB      359             0.0000000000
     44596       359  PMPE      C1             30.2949535128       47.7681337691      -19.4769496954  MEMB      359             0.0000000000
     44597       359  PMPE      HA             29.6499714544       47.5319599937      -20.3501855694  MEMB      359             0.0000000000
     44598       359  PMPE      HB             31.0953803159       48.3756659882      -19.9508088613  MEMB      359             0.0000000000
     44599       359  PMPE      C2             29.4716691132       48.7914262590      -18.6120636477  MEMB      359             0.0000000000
     44600       359  PMPE      HS             29.3381892603       49.6972393037      -19.2413544123  MEMB      359             0.0000000000
     44601       359  PMPE      O21            30.3653008291       49.0863790043      -17.5066643785  MEMB      359             0.0000000000
     44602       359  PMPE      C21            30.0360796852       50.0737485314      -16.7520040594  MEMB      359             0.0000000000
     44603       359  PMPE      O22            29.1603779784       50.8704398597      -16.9276293163  MEMB      359             0.0000000000
     44604       359  PMPE      C22            31.1176599050       50.2174331634      -15.5973820243  MEMB      359             0.0000000000
     44605       359  PMPE      H2R            31.9330039192       50.8692563791      -15.9777258287  MEMB      359             0.0000000000
     44606       359  PMPE      H2S            31.4876117293       49.1934317985      -15.3762979843  MEMB      359             0.0000000000
     44607       359  PMPE      C3             28.0663084347       48.1664151072      -18.2048910401  MEMB      359             0.0000000000
     44608       359  PMPE      HX             27.5356587303       48.0292270328      -19.1712819652  MEMB      359             0.0000000000
     44609       359  PMPE      HY             27.6904001572       48.9292927958      -17.4900263334  MEMB      359             0.0000000000
     44610       359  PMPE      O31            28.2859857487       46.8624889690      -17.6063965115  MEMB      359             0.0000000000
     44611       359  PMPE      C31            27.7191391847       46.5689786783      -16.4089974724  MEMB      359             0.0000000000
     44612       359  PMPE      O32            27.1386823936       47.3388118339      -15.6634812776  MEMB      359             0.0000000000
     44613       359  PMPE      C32            28.0342037655       45.1495580974      -16.0636139753  MEMB      359             0.0000000000
     44614       359  PMPE      H2X            28.5486511165       44.6502214893      -16.9123352380  MEMB      359             0.0000000000
     44615       359  PMPE      H2Y            27.0262299000       44.7026860915      -15.9271764849  MEMB      359             0.0000000000
     44616       359  PMPE      C23            30.5337793657       51.0590823143      -14.4268377552  MEMB      359             0.0000000000
     44617       359  PMPE      H3R            29.5777532854       50.5619668336      -14.1562620053  MEMB      359             0.0000000000
     44618       359  PMPE      H3S            30.3736791464       52.0738017700      -14.8499617112  MEMB      359             0.0000000000
     44619       359  PMPE      C24            31.4994126852       51.2338510234      -13.3112259763  MEMB      359             0.0000000000
     44620       359  PMPE      H4R            31.0616167022       51.9038249317      -12.5406484281  MEMB      359             0.0000000000
     44621       359  PMPE      H4S            32.4879944524       51.6202265581      -13.6394655100  MEMB      359             0.0000000000
     44622       359  PMPE      C25            31.9665091321       49.9327122551      -12.6590943191  MEMB      359             0.0000000000
     44623       359  PMPE      H5R            32.5880479292       49.4122433675      -13.4187800939  MEMB      359             0.0000000000
     44624       359  PMPE      H5S            31.0911809157       49.3305825274      -12.3341921313  MEMB      359             0.0000000000
     44625       359  PMPE      C26            32.9551274950       49.9884699031      -11.4311619826  MEMB      359             0.0000000000
     44626       359  PMPE      H6R            33.7712733620       50.7155511930      -11.6301086918  MEMB      359             0.0000000000
     44627       359  PMPE      H6S            33.3766588387       48.9612932751      -11.3919161418  MEMB      359             0.0000000000
     44628       359  PMPE      C27            32.2110273387       50.3985645879      -10.1329497157  MEMB      359             0.0000000000
     44629       359  PMPE      H7R            31.3671924543       49.6777134862      -10.0815933930  MEMB      359             0.0000000000
     44630       359  PMPE      H7S            31.8858003972       51.4377777121      -10.3533686333  MEMB      359             0.0000000000
     44631       359  PMPE      C28            33.2366607274       50.3775603243       -8.9797228582  MEMB      359             0.0000000000
     44632       359  PMPE      H8R            33.9367158478       51.2254272852       -9.1389877881  MEMB      359             0.0000000000
     44633       359  PMPE      H8S            33.7296856192       49.3914559898       -8.8424431199  MEMB      359             0.0000000000
     44634       359  PMPE      C29            32.3605947594       50.6603728022       -7.7760981050  MEMB      359             0.0000000000
     44635       359  PMPE      H9R            31.5003477998       49.9860332567       -7.5771953781  MEMB      359             0.0000000000
     44636       359  PMPE      C217           32.0974188187       52.0940915949       -7.5032054644  MEMB      359             0.0000000000
     44637       359  PMPE      H17R           31.0897610361       52.3215922099       -7.1780003626  MEMB      359             0.0000000000
     44638       359  PMPE      H17S           32.7360972895       52.8191310258       -7.9923846610  MEMB      359             0.0000000000
     44639       359  PMPE      C210           32.9460368248       51.2443239630       -6.5035808991  MEMB      359             0.0000000000
     44640       359  PMPE      H10R           32.3834847077       50.8716605556       -5.6209839790  MEMB      359             0.0000000000
     44641       359  PMPE      C211           34.4501317277       51.3854591702       -6.3833824907  MEMB      359             0.0000000000
     44642       359  PMPE      H11R           34.6679973298       52.3106257771       -5.8081236462  MEMB      359             0.0000000000
     44643       359  PMPE      H11S           34.9671539034       51.5801647002       -7.3472799834  MEMB      359             0.0000000000
     44644       359  PMPE      C212           35.1233395362       50.1398073065       -5.7057168498  MEMB      359             0.0000000000
     44645       359  PMPE      H12R           36.2009092450       50.1771311333       -5.9736181950  MEMB      359             0.0000000000
     44646       359  PMPE      H12S           34.7260139606       49.2629711913       -6.2603452286  MEMB      359             0.0000000000
     44647       359  PMPE      C213           34.8344096215       49.9681947055       -4.1894207005  MEMB      359             0.0000000000
     44648       359  PMPE      H13R           35.3344981850       49.0656196332       -3.7776068976  MEMB      359             0.0000000000
     44649       359  PMPE      H13S           33.7354306640       49.8878407721       -4.0476135610  MEMB      359             0.0000000000
     44650       359  PMPE      C214           35.4341948810       51.0137035902       -3.2658648098  MEMB      359             0.0000000000
     44651       359  PMPE      H14R           35.0926611410       51.9935523451       -3.6628183655  MEMB      359             0.0000000000
     44652       359  PMPE      H14S           36.5410780547       51.1065261562       -3.2431815209  MEMB      359             0.0000000000
     44653       359  PMPE      C215           34.9738803802       50.9358580981       -1.7990790993  MEMB      359             0.0000000000
     44654       359  PMPE      H15R           35.6686201187       51.6037921040       -1.2463382322  MEMB      359             0.0000000000
     44655       359  PMPE      H15S           35.0295773993       49.8800957150       -1.4576342057  MEMB      359             0.0000000000
     44656       359  PMPE      C216           33.5680788817       51.5457825929       -1.6875924415  MEMB      359             0.0000000000
     44657       359  PMPE      H16R           32.7659953211       51.0004879337       -2.2294741831  MEMB      359             0.0000000000
     44658       359  PMPE      H16S           33.3293317211       51.5456715666       -0.6025483276  MEMB      359             0.0000000000
     44659       359  PMPE      H16T           33.4498687259       52.5675734518       -2.1074622986  MEMB      359             0.0000000000
     44660       359  PMPE      C33            28.8804178381       45.1663851637      -14.8734977758  MEMB      359             0.0000000000
     44661       359  PMPE      H3X            28.6640913153       44.2160056094      -14.3402973158  MEMB      359             0.0000000000
     44662       359  PMPE      H3Y            28.4130661065       45.8390696534      -14.1228985834  MEMB      359             0.0000000000
     44663       359  PMPE      C34            30.3955113405       45.2996258096      -15.1423593673  MEMB      359             0.0000000000
     44664       359  PMPE      H4X            30.5778576392       46.2592143974      -15.6717557216  MEMB      359             0.0000000000
     44665       359  PMPE      H4Y            30.8200868505       44.4043275475      -15.6448509119  MEMB      359             0.0000000000
     44666       359  PMPE      C35            31.0576783978       45.3053904439      -13.7377668281  MEMB      359             0.0000000000
     44667       359  PMPE      H5X            30.9483619750       44.2812256948      -13.3212848058  MEMB      359             0.0000000000
     44668       359  PMPE      H5Y            30.3901694196       45.9640800140      -13.1420476212  MEMB      359             0.0000000000
     44669       359  PMPE      C36            32.5455599419       45.6580532385      -13.5164830320  MEMB      359             0.0000000000
     44670       359  PMPE      H6X            32.6466604144       46.7594519580      -13.6214629519  MEMB      359             0.0000000000
     44671       359  PMPE      H6Y            33.2594223930       45.1921201200      -14.2289629616  MEMB      359             0.0000000000
     44672       359  PMPE      C37            33.1061055797       45.3285104361      -12.1111377003  MEMB      359             0.0000000000
     44673       359  PMPE      H7X            34.0910443107       45.8425255548      -12.1134274013  MEMB      359             0.0000000000
     44674       359  PMPE      H7Y            33.0521429118       44.2230066732      -12.0148531336  MEMB      359             0.0000000000
     44675       359  PMPE      C38            32.3023447017       45.8041256426      -10.9358889509  MEMB      359             0.0000000000
     44676       359  PMPE      H8X            31.2690844153       45.3960523970      -10.9489421407  MEMB      359             0.0000000000
     44677       359  PMPE      H8Y            32.2065391202       46.9075530369      -11.0230103026  MEMB      359             0.0000000000
     44678       359  PMPE      C39            32.8239126429       45.5961522104       -9.4696071231  MEMB      359             0.0000000000
     44679       359  PMPE      H9X            33.9279043273       45.6842082082       -9.5577517973  MEMB      359             0.0000000000
     44680       359  PMPE      H9Y            32.6636935652       44.6107948166       -8.9820396461  MEMB      359             0.0000000000
     44681       359  PMPE      C310           32.1863841435       46.5027671502       -8.3679755414  MEMB      359             0.0000000000
     44682       359  PMPE      H10X           31.0859357573       46.4400524146       -8.5072636651  MEMB      359             0.0000000000
     44683       359  PMPE      H10Y           32.4994285574       47.5685977823       -8.3861191774  MEMB      359             0.0000000000
     44684       359  PMPE      C311           32.5696364947       46.0051747942       -6.9401565370  MEMB      359             0.0000000000
     44685       359  PMPE      H11X           33.6764026145       45.9082744094       -6.9401198397  MEMB      359             0.0000000000
     44686       359  PMPE      H11Y           32.0292142589       45.0385351537       -6.8514292879  MEMB      359             0.0000000000
     44687       359  PMPE      C312           32.2677206788       46.9970298780       -5.8603905324  MEMB      359             0.0000000000
     44688       359  PMPE      H12X           31.1708723825       47.1280132712       -5.7416969389  MEMB      359             0.0000000000
     44689       359  PMPE      H12Y           32.6213386615       48.0312600842       -6.0594962497  MEMB      359             0.0000000000
     44690       359  PMPE      C313           32.8219548707       46.5574548023       -4.5685942863  MEMB      359             0.0000000000
     44691       359  PMPE      H13X           33.9321812616       46.5981626153       -4.5764192785  MEMB      359             0.0000000000
     44692       359  PMPE      H13Y           32.6283595757       45.4768331473       -4.3980104354  MEMB      359             0.0000000000
     44693       359  PMPE      C314           32.3068520552       47.3879928162       -3.2927600813  MEMB      359             0.0000000000
     44694       359  PMPE      H14X           31.2021057692       47.3048611448       -3.2094175669  MEMB      359             0.0000000000
     44695       359  PMPE      H14Y           32.4843472049       48.4575163998       -3.5355265086  MEMB      359             0.0000000000
     44696       359  PMPE      C315           32.8641134610       46.8478499145       -1.9962247326  MEMB      359             0.0000000000
     44697       359  PMPE      H15X           32.5014911358       45.8071133717       -1.8558902985  MEMB      359             0.0000000000
     44698       359  PMPE      H15Y           32.4367867624       47.4378562265       -1.1574133683  MEMB      359             0.0000000000
     44699       359  PMPE      C316           34.3840043078       46.7953767166       -1.6728097943  MEMB      359             0.0000000000
     44700       359  PMPE      H16X           34.6881103458       45.7467542392       -1.8783124860  MEMB      359             0.0000000000
     44701       359  PMPE      H16Y           34.6277995465       46.9037786870       -0.5943225084  MEMB      359             0.0000000000
     44702       359  PMPE      H16Z           34.9622009075       47.6124073680       -2.1549627387  MEMB      359             0.0000000000
     44703       360  PYPG      C13           -54.1089055969       23.8537770126      -19.5430555650  MEMB      360             0.0000000000
     44704       360  PYPG      H13A          -55.0749962404       24.3277856830      -19.8192900208  MEMB      360             0.0000000000
     44705       360  PYPG      H13B          -53.3178674354       23.9350926158      -20.3189211291  MEMB      360             0.0000000000
     44706       360  PYPG      OC3           -54.2971989188       22.4591027465      -19.1817993795  MEMB      360             0.0000000000
     44707       360  PYPG      HO3           -54.5440924736       21.9307385110      -19.9443443386  MEMB      360             0.0000000000
     44708       360  PYPG      C12           -53.5571524666       24.6325050643      -18.3556661629  MEMB      360             0.0000000000
     44709       360  PYPG      H12A          -54.3391714539       24.6230437484      -17.5612255879  MEMB      360             0.0000000000
     44710       360  PYPG      OC2           -53.3211148430       25.9917435836      -18.7255279991  MEMB      360             0.0000000000
     44711       360  PYPG      HO2           -52.8492086747       26.3545596502      -17.9442560170  MEMB      360             0.0000000000
     44712       360  PYPG      C11           -52.3017082298       24.1082886374      -17.7005099104  MEMB      360             0.0000000000
     44713       360  PYPG      H11A          -52.4235541495       23.0156013347      -17.5407944098  MEMB      360             0.0000000000
     44714       360  PYPG      H11B          -52.1958213872       24.5603377865      -16.6911732304  MEMB      360             0.0000000000
     44715       360  PYPG      P             -50.4183109568       23.3476700059      -19.3535007375  MEMB      360             0.0000000000
     44716       360  PYPG      O13           -48.9961496099       23.7521984300      -19.3436287095  MEMB      360             0.0000000000
     44717       360  PYPG      O14           -51.0832927852       23.2112377020      -20.6373001364  MEMB      360             0.0000000000
     44718       360  PYPG      O11           -50.6425588893       21.9404777761      -18.5974063429  MEMB      360             0.0000000000
     44719       360  PYPG      O12           -51.1745646784       24.4115640270      -18.5616050070  MEMB      360             0.0000000000
     44720       360  PYPG      C1            -49.7635476436       21.6495249916      -17.5120542803  MEMB      360             0.0000000000
     44721       360  PYPG      HA            -49.6766866886       22.5844574099      -16.9181876709  MEMB      360             0.0000000000
     44722       360  PYPG      HB            -48.7745525716       21.3213249898      -17.8974038698  MEMB      360             0.0000000000
     44723       360  PYPG      C2            -50.3047323473       20.5620240499      -16.5247953098  MEMB      360             0.0000000000
     44724       360  PYPG      HS            -49.9765572332       19.5590505955      -16.8721661010  MEMB      360             0.0000000000
     44725       360  PYPG      O21           -51.7230243921       20.6342836127      -16.5849959137  MEMB      360             0.0000000000
     44726       360  PYPG      C21           -52.4132389669       19.6589524781      -16.0564331938  MEMB      360             0.0000000000
     44727       360  PYPG      O22           -51.9915560834       18.5751586513      -15.7718639230  MEMB      360             0.0000000000
     44728       360  PYPG      C22           -53.8683953262       19.9954430158      -16.0529983236  MEMB      360             0.0000000000
     44729       360  PYPG      H2R           -54.3951466805       19.3973094895      -16.8270073993  MEMB      360             0.0000000000
     44730       360  PYPG      H2S           -54.0233029179       21.0502210293      -16.3656774935  MEMB      360             0.0000000000
     44731       360  PYPG      C3            -49.7997825502       20.7801606989      -15.0419987685  MEMB      360             0.0000000000
     44732       360  PYPG      HX            -48.7063864792       20.5881944482      -14.9977821486  MEMB      360             0.0000000000
     44733       360  PYPG      HY            -50.3007459927       20.0281094984      -14.3956429728  MEMB      360             0.0000000000
     44734       360  PYPG      O31           -50.1023001188       22.1211112305      -14.6588812417  MEMB      360             0.0000000000
     44735       360  PYPG      C31           -49.6530342838       22.4663608101      -13.4432546893  MEMB      360             0.0000000000
     44736       360  PYPG      O32           -49.0681283577       21.7291864141      -12.6539221792  MEMB      360             0.0000000000
     44737       360  PYPG      C32           -50.0266337415       23.8963793346      -13.1595816233  MEMB      360             0.0000000000
     44738       360  PYPG      H2X           -49.2051052904       24.5234496676      -12.7519116392  MEMB      360             0.0000000000
     44739       360  PYPG      H2Y           -50.5588933048       24.3851238207      -14.0034712393  MEMB      360             0.0000000000
     44740       360  PYPG      C23           -54.4573836229       19.6041281570      -14.6284126269  MEMB      360             0.0000000000
     44741       360  PYPG      H3R           -54.5087449489       18.5136219627      -14.4223087476  MEMB      360             0.0000000000
     44742       360  PYPG      H3S           -55.5137650846       19.9166287079      -14.7723658792  MEMB      360             0.0000000000
     44743       360  PYPG      C24           -53.8164973843       20.4032533968      -13.3926717303  MEMB      360             0.0000000000
     44744       360  PYPG      H4R           -53.9578327131       21.4646325731      -13.6890147774  MEMB      360             0.0000000000
     44745       360  PYPG      H4S           -52.7507565686       20.1401492816      -13.5638251994  MEMB      360             0.0000000000
     44746       360  PYPG      C25           -54.4308449784       20.2541558833      -11.9577236929  MEMB      360             0.0000000000
     44747       360  PYPG      H5R           -54.6545662250       19.1822707434      -11.7697574574  MEMB      360             0.0000000000
     44748       360  PYPG      H5S           -55.4498005105       20.6963452604      -11.9805082910  MEMB      360             0.0000000000
     44749       360  PYPG      C26           -53.6137600757       20.9087371618      -10.8006185821  MEMB      360             0.0000000000
     44750       360  PYPG      H6R           -54.1320211857       20.6213703501       -9.8608596550  MEMB      360             0.0000000000
     44751       360  PYPG      H6S           -53.6812201573       22.0149968552      -10.7234191604  MEMB      360             0.0000000000
     44752       360  PYPG      C27           -52.0555872249       20.7313302244      -10.6263115616  MEMB      360             0.0000000000
     44753       360  PYPG      H7R           -51.4803121216       21.0744107025      -11.5126950565  MEMB      360             0.0000000000
     44754       360  PYPG      H7S           -51.9404685010       19.6307170101      -10.5277261763  MEMB      360             0.0000000000
     44755       360  PYPG      C28           -51.4894924678       21.2547784658       -9.2500868530  MEMB      360             0.0000000000
     44756       360  PYPG      H8R           -51.7819574839       22.3258192830       -9.2093857358  MEMB      360             0.0000000000
     44757       360  PYPG      H8S           -50.3828871929       21.2602321914       -9.3486564160  MEMB      360             0.0000000000
     44758       360  PYPG      C29           -51.7979776897       20.4085287509       -8.0375068032  MEMB      360             0.0000000000
     44759       360  PYPG      H9R           -51.3744526070       19.3992322810       -7.9282029412  MEMB      360             0.0000000000
     44760       360  PYPG      C210          -52.5457620544       20.7103988203       -6.9986962338  MEMB      360             0.0000000000
     44761       360  PYPG      H10R          -52.5867363720       19.9816076425       -6.1757835173  MEMB      360             0.0000000000
     44762       360  PYPG      C211          -53.2143751879       22.0874211443       -6.8034304156  MEMB      360             0.0000000000
     44763       360  PYPG      H11R          -53.0322946044       22.7096480540       -7.7056499953  MEMB      360             0.0000000000
     44764       360  PYPG      H11S          -52.9541769424       22.4931703798       -5.8024382780  MEMB      360             0.0000000000
     44765       360  PYPG      C212          -54.6709808041       21.7735312962       -6.8903313799  MEMB      360             0.0000000000
     44766       360  PYPG      H12R          -55.0546303229       21.6362590401       -7.9239125979  MEMB      360             0.0000000000
     44767       360  PYPG      H12S          -55.1819706124       22.7423772358       -6.7044615807  MEMB      360             0.0000000000
     44768       360  PYPG      C213          -55.3422192225       20.7862297792       -5.8981219357  MEMB      360             0.0000000000
     44769       360  PYPG      H13R          -54.9682419755       19.7503230624       -6.0442708792  MEMB      360             0.0000000000
     44770       360  PYPG      H13S          -56.4440212960       20.8030998085       -6.0397865504  MEMB      360             0.0000000000
     44771       360  PYPG      C214          -54.9948591718       21.2039868078       -4.4512709011  MEMB      360             0.0000000000
     44772       360  PYPG      H14R          -53.8965687782       21.1263093885       -4.3027936204  MEMB      360             0.0000000000
     44773       360  PYPG      H14S          -55.3230978209       22.2630410273       -4.3806681726  MEMB      360             0.0000000000
     44774       360  PYPG      C215          -55.6870455982       20.4403544997       -3.3267793365  MEMB      360             0.0000000000
     44775       360  PYPG      H15R          -54.9245270878       20.0616991976       -2.6129824871  MEMB      360             0.0000000000
     44776       360  PYPG      H15S          -56.0807319729       19.4921399899       -3.7513044337  MEMB      360             0.0000000000
     44777       360  PYPG      C216          -56.9225917426       21.1443068328       -2.8186741663  MEMB      360             0.0000000000
     44778       360  PYPG      H16R          -56.5352530106       22.0345337722       -2.2785016108  MEMB      360             0.0000000000
     44779       360  PYPG      H16S          -57.6742223940       20.4868509713       -2.3317200276  MEMB      360             0.0000000000
     44780       360  PYPG      H16T          -57.3870897500       21.6444411000       -3.6952740438  MEMB      360             0.0000000000
     44781       360  PYPG      C33           -51.0352536914       23.8172350710      -12.0149140496  MEMB      360             0.0000000000
     44782       360  PYPG      H3X           -50.6426391489       23.2104714257      -11.1711057849  MEMB      360             0.0000000000
     44783       360  PYPG      H3Y           -51.9655829918       23.2593147546      -12.2547748505  MEMB      360             0.0000000000
     44784       360  PYPG      C34           -51.3739759454       25.2358703757      -11.5873516094  MEMB      360             0.0000000000
     44785       360  PYPG      H4X           -51.7291959085       25.7625881998      -12.4987834430  MEMB      360             0.0000000000
     44786       360  PYPG      H4Y           -50.5186759462       25.8592083562      -11.2493678548  MEMB      360             0.0000000000
     44787       360  PYPG      C35           -52.4442227061       25.1371485460      -10.4657071079  MEMB      360             0.0000000000
     44788       360  PYPG      H5X           -51.9923708802       24.5142958787       -9.6643299604  MEMB      360             0.0000000000
     44789       360  PYPG      H5Y           -53.2969893367       24.5881722639      -10.9192871708  MEMB      360             0.0000000000
     44790       360  PYPG      C36           -52.8426195323       26.5415357143      -10.0316660747  MEMB      360             0.0000000000
     44791       360  PYPG      H6X           -53.0017396478       27.2445296760      -10.8771247494  MEMB      360             0.0000000000
     44792       360  PYPG      H6Y           -52.0296928546       27.0040540472       -9.4320426838  MEMB      360             0.0000000000
     44793       360  PYPG      C37           -54.0553852645       26.4722866007       -9.0114841233  MEMB      360             0.0000000000
     44794       360  PYPG      H7X           -54.9535695602       26.1915553707       -9.6020564500  MEMB      360             0.0000000000
     44795       360  PYPG      H7Y           -53.8622853135       25.6776565856       -8.2594226068  MEMB      360             0.0000000000
     44796       360  PYPG      C38           -54.1433192566       27.8420173601       -8.3323493184  MEMB      360             0.0000000000
     44797       360  PYPG      H8X           -54.3312491950       28.6141731346       -9.1087374805  MEMB      360             0.0000000000
     44798       360  PYPG      H8Y           -53.2655401237       28.1034255338       -7.7034688910  MEMB      360             0.0000000000
     44799       360  PYPG      C39           -55.3086874962       27.8066602326       -7.3636484296  MEMB      360             0.0000000000
     44800       360  PYPG      H9X           -56.2277563926       27.8872236943       -7.9826341463  MEMB      360             0.0000000000
     44801       360  PYPG      H9Y           -55.1180228252       28.6496227884       -6.6655209524  MEMB      360             0.0000000000
     44802       360  PYPG      C310          -55.3053844943       26.6182887855       -6.3526298880  MEMB      360             0.0000000000
     44803       360  PYPG      H10X          -55.3444017959       25.6764384349       -6.9406064062  MEMB      360             0.0000000000
     44804       360  PYPG      H10Y          -56.2710660386       26.6179272007       -5.8032843310  MEMB      360             0.0000000000
     44805       360  PYPG      C311          -54.2694658582       26.7832764641       -5.2539165250  MEMB      360             0.0000000000
     44806       360  PYPG      H11X          -54.6366421514       27.6159120387       -4.6165616953  MEMB      360             0.0000000000
     44807       360  PYPG      H11Y          -53.3068158501       27.1736419401       -5.6479227243  MEMB      360             0.0000000000
     44808       360  PYPG      C312          -54.2617961876       25.5725585763       -4.3821374708  MEMB      360             0.0000000000
     44809       360  PYPG      H12X          -55.2877041950       25.1461832427       -4.3760006151  MEMB      360             0.0000000000
     44810       360  PYPG      H12Y          -53.6771506166       24.7564524364       -4.8580374990  MEMB      360             0.0000000000
     44811       360  PYPG      C313          -53.7668120206       25.8717312788       -3.0742045798  MEMB      360             0.0000000000
     44812       360  PYPG      H13X          -52.7967406309       26.4070082507       -3.1564295857  MEMB      360             0.0000000000
     44813       360  PYPG      H13Y          -54.3181228109       26.6319189290       -2.4804931425  MEMB      360             0.0000000000
     44814       360  PYPG      C314          -53.8582255623       24.7309899130       -2.1065314554  MEMB      360             0.0000000000
     44815       360  PYPG      H14X          -53.7688932737       25.1846183170       -1.0963016665  MEMB      360             0.0000000000
     44816       360  PYPG      H14Y          -54.9340726436       24.4562205790       -2.1436277246  MEMB      360             0.0000000000
     44817       360  PYPG      C315          -52.9378830921       23.5313141398       -2.2366606555  MEMB      360             0.0000000000
     44818       360  PYPG      H15X          -53.1268582112       22.8741824338       -1.3609956737  MEMB      360             0.0000000000
     44819       360  PYPG      H15Y          -53.1844568129       22.9513977496       -3.1516559223  MEMB      360             0.0000000000
     44820       360  PYPG      C316          -51.4320494540       23.9126395477       -2.1124268751  MEMB      360             0.0000000000
     44821       360  PYPG      H16X          -51.1138670284       24.4035855415       -1.1679405993  MEMB      360             0.0000000000
     44822       360  PYPG      H16Y          -51.1127517859       24.6178653388       -2.9093125183  MEMB      360             0.0000000000
     44823       360  PYPG      H16Z          -50.8752541383       22.9520003714       -2.1508030570  MEMB      360             0.0000000000
     44824       361  PMPE      N             -37.2292894431       43.7877326990      -18.0868934128  MEMB      361             0.0000000000
     44825       361  PMPE      HN1           -36.2578485364       43.8953575455      -17.7314784095  MEMB      361             0.0000000000
     44826       361  PMPE      HN2           -37.6193210689       44.7157530465      -18.3481472472  MEMB      361             0.0000000000
     44827       361  PMPE      HN3           -37.7941511673       43.3718027124      -17.3190825499  MEMB      361             0.0000000000
     44828       361  PMPE      C12           -37.0170471911       42.9382937451      -19.3064671392  MEMB      361             0.0000000000
     44829       361  PMPE      H12A          -36.2256123380       42.2389052645      -18.9617824627  MEMB      361             0.0000000000
     44830       361  PMPE      H12B          -36.5161236219       43.5806174354      -20.0619912068  MEMB      361             0.0000000000
     44831       361  PMPE      C11           -38.2858700984       42.1402590984      -19.7823881725  MEMB      361             0.0000000000
     44832       361  PMPE      H11A          -37.8880299637       41.5133867815      -20.6088718439  MEMB      361             0.0000000000
     44833       361  PMPE      H11B          -39.0001969045       42.7850979884      -20.3375827245  MEMB      361             0.0000000000
     44834       361  PMPE      P             -40.3509006179       40.8130795352      -19.0007262069  MEMB      361             0.0000000000
     44835       361  PMPE      O13           -40.5619141336       40.5991393239      -20.4711989850  MEMB      361             0.0000000000
     44836       361  PMPE      O14           -41.2966502654       41.7264646322      -18.3281754375  MEMB      361             0.0000000000
     44837       361  PMPE      O11           -40.4181601925       39.3467623049      -18.3398514862  MEMB      361             0.0000000000
     44838       361  PMPE      O12           -38.8458776588       41.2954790574      -18.6842991638  MEMB      361             0.0000000000
     44839       361  PMPE      C1            -39.2445882387       38.8538138910      -17.6890649245  MEMB      361             0.0000000000
     44840       361  PMPE      HA            -38.3025784359       39.2427054294      -18.1314469485  MEMB      361             0.0000000000
     44841       361  PMPE      HB            -39.2276720063       37.7447510753      -17.7524240564  MEMB      361             0.0000000000
     44842       361  PMPE      C2            -39.0621529012       39.3135783054      -16.2380469589  MEMB      361             0.0000000000
     44843       361  PMPE      HS            -39.5235494561       38.4684777137      -15.6837552316  MEMB      361             0.0000000000
     44844       361  PMPE      O21           -39.7786231248       40.5378861777      -15.9710456357  MEMB      361             0.0000000000
     44845       361  PMPE      C21           -40.1604527174       40.8915706418      -14.7382487590  MEMB      361             0.0000000000
     44846       361  PMPE      O22           -39.9078744707       40.2587807074      -13.7433580721  MEMB      361             0.0000000000
     44847       361  PMPE      C22           -40.9576193429       42.2195829886      -14.8043131638  MEMB      361             0.0000000000
     44848       361  PMPE      H2R           -41.7822965108       42.0203310702      -15.5216188163  MEMB      361             0.0000000000
     44849       361  PMPE      H2S           -40.3603166514       43.1350186334      -15.0031297141  MEMB      361             0.0000000000
     44850       361  PMPE      C3            -37.6073246202       39.5822568566      -15.8519653900  MEMB      361             0.0000000000
     44851       361  PMPE      HX            -37.2052728338       40.5238643819      -16.2833013752  MEMB      361             0.0000000000
     44852       361  PMPE      HY            -37.0403626459       38.7620755183      -16.3420444148  MEMB      361             0.0000000000
     44853       361  PMPE      O31           -37.2503388323       39.3856186457      -14.4890881730  MEMB      361             0.0000000000
     44854       361  PMPE      C31           -36.5134723690       40.3211857920      -13.8454499924  MEMB      361             0.0000000000
     44855       361  PMPE      O32           -36.2240066624       41.3851076569      -14.3404929045  MEMB      361             0.0000000000
     44856       361  PMPE      C32           -36.2879901707       39.8855295127      -12.3781530813  MEMB      361             0.0000000000
     44857       361  PMPE      H2X           -35.4831723526       39.1605102745      -12.1313000338  MEMB      361             0.0000000000
     44858       361  PMPE      H2Y           -37.2241077406       39.4225880438      -11.9990883054  MEMB      361             0.0000000000
     44859       361  PMPE      C23           -41.6319565029       42.5823504118      -13.4487301009  MEMB      361             0.0000000000
     44860       361  PMPE      H3R           -40.8900078592       42.7503379186      -12.6390307524  MEMB      361             0.0000000000
     44861       361  PMPE      H3S           -42.3216030385       41.7634294305      -13.1519526923  MEMB      361             0.0000000000
     44862       361  PMPE      C24           -42.3143521524       43.9361029685      -13.3548098587  MEMB      361             0.0000000000
     44863       361  PMPE      H4R           -43.1286065132       44.0463323678      -14.1025802402  MEMB      361             0.0000000000
     44864       361  PMPE      H4S           -41.6070327713       44.7486787559      -13.6263623658  MEMB      361             0.0000000000
     44865       361  PMPE      C25           -42.9815358858       44.1772354335      -11.9311655694  MEMB      361             0.0000000000
     44866       361  PMPE      H5R           -43.2657403551       43.1594553266      -11.5881312526  MEMB      361             0.0000000000
     44867       361  PMPE      H5S           -43.8536933940       44.8544309226      -12.0539201516  MEMB      361             0.0000000000
     44868       361  PMPE      C26           -42.2182370512       44.9574371562      -10.8980470783  MEMB      361             0.0000000000
     44869       361  PMPE      H6R           -42.7591610171       45.2948176911       -9.9881590373  MEMB      361             0.0000000000
     44870       361  PMPE      H6S           -41.8385975798       45.9085222817      -11.3288969608  MEMB      361             0.0000000000
     44871       361  PMPE      C27           -40.9815817511       44.1853165384      -10.3398818630  MEMB      361             0.0000000000
     44872       361  PMPE      H7R           -40.4157926937       44.8446141127       -9.6474014102  MEMB      361             0.0000000000
     44873       361  PMPE      H7S           -40.2535996784       44.0309726947      -11.1648309367  MEMB      361             0.0000000000
     44874       361  PMPE      C28           -41.2082801766       42.8198174569       -9.6476174609  MEMB      361             0.0000000000
     44875       361  PMPE      H8R           -41.7802045097       42.2054163257      -10.3754463061  MEMB      361             0.0000000000
     44876       361  PMPE      H8S           -41.8285753266       42.8925161861       -8.7287758808  MEMB      361             0.0000000000
     44877       361  PMPE      C29           -39.9024047643       42.0616585502       -9.4094943872  MEMB      361             0.0000000000
     44878       361  PMPE      H9R           -38.9700811611       42.6232811183       -9.1866182864  MEMB      361             0.0000000000
     44879       361  PMPE      C217          -39.6599107478       41.0784973875      -10.5257713376  MEMB      361             0.0000000000
     44880       361  PMPE      H17R          -38.6683627391       41.1678648188      -10.9520747874  MEMB      361             0.0000000000
     44881       361  PMPE      H17S          -40.5575572537       40.8407454972      -11.0830802094  MEMB      361             0.0000000000
     44882       361  PMPE      C210          -39.7621275554       40.5557063632       -9.1362324214  MEMB      361             0.0000000000
     44883       361  PMPE      H10R          -38.8332465700       40.4586276080       -8.5345042491  MEMB      361             0.0000000000
     44884       361  PMPE      C211          -41.0367110055       39.8515690752       -8.6398265022  MEMB      361             0.0000000000
     44885       361  PMPE      H11R          -40.9330664841       38.7603306168       -8.8208747057  MEMB      361             0.0000000000
     44886       361  PMPE      H11S          -41.9081373830       40.0710891740       -9.2930858732  MEMB      361             0.0000000000
     44887       361  PMPE      C212          -41.4565695437       40.0390749391       -7.1712419954  MEMB      361             0.0000000000
     44888       361  PMPE      H12R          -42.3741805430       39.4414347895       -6.9837921154  MEMB      361             0.0000000000
     44889       361  PMPE      H12S          -41.7859805582       41.0954675451       -7.0720264493  MEMB      361             0.0000000000
     44890       361  PMPE      C213          -40.3769055021       39.6537449690       -6.1071270611  MEMB      361             0.0000000000
     44891       361  PMPE      H13R          -39.4231543543       40.1786138819       -6.3289212037  MEMB      361             0.0000000000
     44892       361  PMPE      H13S          -40.0796166714       38.6003574292       -6.2976925787  MEMB      361             0.0000000000
     44893       361  PMPE      C214          -40.7033596057       39.8935135242       -4.6269873974  MEMB      361             0.0000000000
     44894       361  PMPE      H14R          -41.5732921720       39.2476248375       -4.3812920621  MEMB      361             0.0000000000
     44895       361  PMPE      H14S          -40.9544587528       40.9689206265       -4.5054561248  MEMB      361             0.0000000000
     44896       361  PMPE      C215          -39.4468257688       39.5125291717       -3.8362510801  MEMB      361             0.0000000000
     44897       361  PMPE      H15R          -38.5473248895       40.0318777370       -4.2305812165  MEMB      361             0.0000000000
     44898       361  PMPE      H15S          -39.2063790588       38.4473286502       -4.0408328116  MEMB      361             0.0000000000
     44899       361  PMPE      C216          -39.5643576142       39.6518868166       -2.3193334402  MEMB      361             0.0000000000
     44900       361  PMPE      H16R          -39.5874566070       40.7060045086       -1.9691571822  MEMB      361             0.0000000000
     44901       361  PMPE      H16S          -40.4779272419       39.1962955159       -1.8809878354  MEMB      361             0.0000000000
     44902       361  PMPE      H16T          -38.6576631406       39.1229537740       -1.9553892980  MEMB      361             0.0000000000
     44903       361  PMPE      C33           -35.9326015711       41.1964143950      -11.6771219501  MEMB      361             0.0000000000
     44904       361  PMPE      H3X           -36.6996991082       41.9044076582      -12.0574221661  MEMB      361             0.0000000000
     44905       361  PMPE      H3Y           -35.0320087482       41.6756981125      -12.1170550826  MEMB      361             0.0000000000
     44906       361  PMPE      C34           -35.8996099810       41.2302652501      -10.1146125036  MEMB      361             0.0000000000
     44907       361  PMPE      H4X           -35.0164606668       40.6310905154       -9.8058117726  MEMB      361             0.0000000000
     44908       361  PMPE      H4Y           -36.7571191942       40.6164308975       -9.7650319443  MEMB      361             0.0000000000
     44909       361  PMPE      C35           -35.8370635371       42.5957731718       -9.4793142965  MEMB      361             0.0000000000
     44910       361  PMPE      H5X           -36.7659299772       43.0434500185       -9.8929728491  MEMB      361             0.0000000000
     44911       361  PMPE      H5Y           -34.9974818293       43.1881253344       -9.9018572165  MEMB      361             0.0000000000
     44912       361  PMPE      C36           -35.7308746530       42.6680316743       -7.9933714193  MEMB      361             0.0000000000
     44913       361  PMPE      H6X           -34.7250226219       42.3341749096       -7.6600217373  MEMB      361             0.0000000000
     44914       361  PMPE      H6Y           -36.5191009265       42.1796106607       -7.3814353048  MEMB      361             0.0000000000
     44915       361  PMPE      C37           -35.7994239165       44.1586692017       -7.5976863676  MEMB      361             0.0000000000
     44916       361  PMPE      H7X           -36.7947396406       44.5012243792       -7.9531063389  MEMB      361             0.0000000000
     44917       361  PMPE      H7Y           -34.9704371161       44.7775374195       -8.0027843706  MEMB      361             0.0000000000
     44918       361  PMPE      C38           -35.7274349310       44.3922934662       -6.0575951993  MEMB      361             0.0000000000
     44919       361  PMPE      H8X           -35.6864032733       45.4930088883       -5.9124654067  MEMB      361             0.0000000000
     44920       361  PMPE      H8Y           -34.7688193337       43.9699950006       -5.6874045726  MEMB      361             0.0000000000
     44921       361  PMPE      C39           -36.9024735139       43.7829227757       -5.2289081710  MEMB      361             0.0000000000
     44922       361  PMPE      H9X           -36.8214214852       42.7040758678       -5.4815766152  MEMB      361             0.0000000000
     44923       361  PMPE      H9Y           -37.8536301488       44.1439199957       -5.6753423809  MEMB      361             0.0000000000
     44924       361  PMPE      C310          -36.9313526258       43.6206994089       -3.7015680992  MEMB      361             0.0000000000
     44925       361  PMPE      H10X          -36.5657878667       44.4640852460       -3.0775622210  MEMB      361             0.0000000000
     44926       361  PMPE      H10Y          -36.1775898651       42.8464408469       -3.4433313146  MEMB      361             0.0000000000
     44927       361  PMPE      C311          -38.2708131286       43.0387063168       -3.1829995344  MEMB      361             0.0000000000
     44928       361  PMPE      H11X          -38.2932921194       42.9806369898       -2.0737448597  MEMB      361             0.0000000000
     44929       361  PMPE      H11Y          -38.1537740601       41.9985736022       -3.5554869768  MEMB      361             0.0000000000
     44930       361  PMPE      C312          -39.5549530285       43.5828049702       -3.7112670853  MEMB      361             0.0000000000
     44931       361  PMPE      H12X          -40.3490656379       42.8649066070       -3.4140662770  MEMB      361             0.0000000000
     44932       361  PMPE      H12Y          -39.5538074163       43.6122805833       -4.8218751967  MEMB      361             0.0000000000
     44933       361  PMPE      C313          -39.9556886538       44.9069338927       -3.0480171508  MEMB      361             0.0000000000
     44934       361  PMPE      H13X          -39.1539624008       45.6643499726       -3.1817206629  MEMB      361             0.0000000000
     44935       361  PMPE      H13Y          -39.9861358608       44.7183931225       -1.9535555424  MEMB      361             0.0000000000
     44936       361  PMPE      C314          -41.3349761970       45.5325145495       -3.3726818690  MEMB      361             0.0000000000
     44937       361  PMPE      H14X          -41.4945984402       45.7526822019       -4.4498856469  MEMB      361             0.0000000000
     44938       361  PMPE      H14Y          -41.4315604695       46.3951369651       -2.6792314596  MEMB      361             0.0000000000
     44939       361  PMPE      C315          -42.6200869735       44.5910305255       -3.1736004998  MEMB      361             0.0000000000
     44940       361  PMPE      H15X          -42.5419814740       43.7363200501       -3.8790710763  MEMB      361             0.0000000000
     44941       361  PMPE      H15Y          -43.5429280129       45.1993665790       -3.2859069366  MEMB      361             0.0000000000
     44942       361  PMPE      C316          -42.7606236395       44.1732666944       -1.7409515582  MEMB      361             0.0000000000
     44943       361  PMPE      H16X          -43.8408136424       44.0401424000       -1.5178200471  MEMB      361             0.0000000000
     44944       361  PMPE      H16Y          -42.2705336473       44.9302425660       -1.0920132955  MEMB      361             0.0000000000
     44945       361  PMPE      H16Z          -42.2696263313       43.2195586947       -1.4516698801  MEMB      361             0.0000000000
     44946       362  PMPE      N             -25.9578944232       47.4380458345      -18.6413597238  MEMB      362             0.0000000000
     44947       362  PMPE      HN1           -25.6376116221       46.7028859734      -19.3035973050  MEMB      362             0.0000000000
     44948       362  PMPE      HN2           -25.3041068048       47.5739919543      -17.8440640187  MEMB      362             0.0000000000
     44949       362  PMPE      HN3           -26.8619355503       47.1903202439      -18.1908693507  MEMB      362             0.0000000000
     44950       362  PMPE      C12           -26.1576003018       48.6559524053      -19.4499433353  MEMB      362             0.0000000000
     44951       362  PMPE      H12A          -25.3351118689       48.6724208512      -20.1966445329  MEMB      362             0.0000000000
     44952       362  PMPE      H12B          -26.0271887949       49.5798751902      -18.8468840736  MEMB      362             0.0000000000
     44953       362  PMPE      C11           -27.4742831579       48.6813255993      -20.2504404607  MEMB      362             0.0000000000
     44954       362  PMPE      H11A          -27.5918544525       47.8617290412      -20.9912233965  MEMB      362             0.0000000000
     44955       362  PMPE      H11B          -27.5474703774       49.6817267025      -20.7281037956  MEMB      362             0.0000000000
     44956       362  PMPE      P             -29.4019359975       49.5788693946      -18.7411706913  MEMB      362             0.0000000000
     44957       362  PMPE      O13           -30.8000017502       49.4307558208      -19.1785440824  MEMB      362             0.0000000000
     44958       362  PMPE      O14           -28.6737196978       50.8562089959      -18.9173528838  MEMB      362             0.0000000000
     44959       362  PMPE      O11           -29.2352804594       49.1260099073      -17.2188396624  MEMB      362             0.0000000000
     44960       362  PMPE      O12           -28.7356505628       48.5486128050      -19.6023491616  MEMB      362             0.0000000000
     44961       362  PMPE      C1            -29.4239510162       47.7929732024      -16.8671286028  MEMB      362             0.0000000000
     44962       362  PMPE      HA            -28.5370629467       47.2077510949      -17.1915753641  MEMB      362             0.0000000000
     44963       362  PMPE      HB            -30.3496727046       47.4564164290      -17.3810255419  MEMB      362             0.0000000000
     44964       362  PMPE      C2            -29.7000653900       47.6736769910      -15.3804667027  MEMB      362             0.0000000000
     44965       362  PMPE      HS            -30.2751096963       46.7314426276      -15.2546110512  MEMB      362             0.0000000000
     44966       362  PMPE      O21           -30.4357371064       48.7515119476      -14.7852295430  MEMB      362             0.0000000000
     44967       362  PMPE      C21           -31.6937870487       49.0544800501      -15.1848908426  MEMB      362             0.0000000000
     44968       362  PMPE      O22           -32.3068872095       48.4168851552      -16.0349861961  MEMB      362             0.0000000000
     44969       362  PMPE      C22           -32.1790151732       50.2595351675      -14.4453648806  MEMB      362             0.0000000000
     44970       362  PMPE      H2R           -32.8184437663       50.7896392561      -15.1832280023  MEMB      362             0.0000000000
     44971       362  PMPE      H2S           -31.3509406505       50.9995988864      -14.4150489007  MEMB      362             0.0000000000
     44972       362  PMPE      C3            -28.3888955768       47.6280606140      -14.6310798296  MEMB      362             0.0000000000
     44973       362  PMPE      HX            -27.7650033300       48.5180290926      -14.8613742407  MEMB      362             0.0000000000
     44974       362  PMPE      HY            -27.8128548095       46.6974868027      -14.8222086932  MEMB      362             0.0000000000
     44975       362  PMPE      O31           -28.7272495152       47.6501697093      -13.2268991988  MEMB      362             0.0000000000
     44976       362  PMPE      C31           -29.0631798915       46.4158119237      -12.6279416894  MEMB      362             0.0000000000
     44977       362  PMPE      O32           -29.0994435973       45.3468836574      -13.2053021009  MEMB      362             0.0000000000
     44978       362  PMPE      C32           -29.1969400150       46.5353480217      -11.0713171590  MEMB      362             0.0000000000
     44979       362  PMPE      H2X           -29.1807388705       47.6101506277      -10.7905003457  MEMB      362             0.0000000000
     44980       362  PMPE      H2Y           -28.3394587518       45.9737624341      -10.6427514523  MEMB      362             0.0000000000
     44981       362  PMPE      C23           -32.7961980972       49.9914499476      -13.0737496365  MEMB      362             0.0000000000
     44982       362  PMPE      H3R           -33.5513318444       49.1795572874      -13.0035766410  MEMB      362             0.0000000000
     44983       362  PMPE      H3S           -33.3314277383       50.9537412219      -12.9259472002  MEMB      362             0.0000000000
     44984       362  PMPE      C24           -31.8265392594       50.0268125447      -11.9133552091  MEMB      362             0.0000000000
     44985       362  PMPE      H4R           -31.3636901764       51.0361682923      -11.8773983751  MEMB      362             0.0000000000
     44986       362  PMPE      H4S           -31.0173768700       49.2803443030      -12.0628952136  MEMB      362             0.0000000000
     44987       362  PMPE      C25           -32.4800553574       49.8404176839      -10.5336556188  MEMB      362             0.0000000000
     44988       362  PMPE      H5R           -33.1439857551       48.9498494108      -10.5135200060  MEMB      362             0.0000000000
     44989       362  PMPE      H5S           -33.0652158483       50.7674763965      -10.3534605356  MEMB      362             0.0000000000
     44990       362  PMPE      C26           -31.5652575052       49.6829799294       -9.3637835241  MEMB      362             0.0000000000
     44991       362  PMPE      H6R           -30.7152471349       49.0665445191       -9.7268404428  MEMB      362             0.0000000000
     44992       362  PMPE      H6S           -32.1237148875       49.0980779062       -8.6019852811  MEMB      362             0.0000000000
     44993       362  PMPE      C27           -30.9234311834       51.0060736176       -8.8554616930  MEMB      362             0.0000000000
     44994       362  PMPE      H7R           -31.7353779651       51.6814867350       -8.5106704445  MEMB      362             0.0000000000
     44995       362  PMPE      H7S           -30.5012019669       51.5996091447       -9.6943651393  MEMB      362             0.0000000000
     44996       362  PMPE      C28           -29.9089547505       50.8283921129       -7.6980988836  MEMB      362             0.0000000000
     44997       362  PMPE      H8R           -30.1617005061       49.9169147712       -7.1153042602  MEMB      362             0.0000000000
     44998       362  PMPE      H8S           -30.0749539748       51.7594710260       -7.1151260098  MEMB      362             0.0000000000
     44999       362  PMPE      C29           -28.5234205092       50.6770017407       -8.2364023830  MEMB      362             0.0000000000
     45000       362  PMPE      H9R           -28.1148841915       51.3587808453       -9.0126726693  MEMB      362             0.0000000000
     45001       362  PMPE      C217          -28.1211039632       49.2780083168       -8.5102756783  MEMB      362             0.0000000000
     45002       362  PMPE      H17R          -27.2766342027       49.1652165486       -9.1788846950  MEMB      362             0.0000000000
     45003       362  PMPE      H17S          -28.8099244315       48.5437251409       -8.1112217114  MEMB      362             0.0000000000
     45004       362  PMPE      C210          -27.5528785897       50.0140003456       -7.3716271271  MEMB      362             0.0000000000
     45005       362  PMPE      H10R          -26.4921126554       50.3371649827       -7.4399008478  MEMB      362             0.0000000000
     45006       362  PMPE      C211          -27.8542825195       49.4510089990       -5.9799885847  MEMB      362             0.0000000000
     45007       362  PMPE      H11R          -27.2259104240       48.5822851983       -5.6888041298  MEMB      362             0.0000000000
     45008       362  PMPE      H11S          -28.9030791800       49.0900775315       -5.9161515830  MEMB      362             0.0000000000
     45009       362  PMPE      C212          -27.8419586322       50.6479233864       -4.9347938844  MEMB      362             0.0000000000
     45010       362  PMPE      H12R          -28.8000427114       51.1798537625       -5.1176759392  MEMB      362             0.0000000000
     45011       362  PMPE      H12S          -26.9578745939       51.3134273792       -5.0338938748  MEMB      362             0.0000000000
     45012       362  PMPE      C213          -27.6722346593       50.0724554843       -3.5349563354  MEMB      362             0.0000000000
     45013       362  PMPE      H13R          -26.7169955761       49.5051501747       -3.5330089312  MEMB      362             0.0000000000
     45014       362  PMPE      H13S          -28.4813302105       49.3936153185       -3.1901933980  MEMB      362             0.0000000000
     45015       362  PMPE      C214          -27.6944341873       51.2679136943       -2.5288055824  MEMB      362             0.0000000000
     45016       362  PMPE      H14R          -27.9975266493       51.0868513142       -1.4753939593  MEMB      362             0.0000000000
     45017       362  PMPE      H14S          -28.4728092314       51.9265070680       -2.9700620317  MEMB      362             0.0000000000
     45018       362  PMPE      C215          -26.3536221749       51.9532885427       -2.5245718162  MEMB      362             0.0000000000
     45019       362  PMPE      H15R          -26.5115449363       52.9294527946       -2.0181289657  MEMB      362             0.0000000000
     45020       362  PMPE      H15S          -25.8611542288       52.1684688919       -3.4969370468  MEMB      362             0.0000000000
     45021       362  PMPE      C216          -25.1804497793       51.1886251766       -1.7381272132  MEMB      362             0.0000000000
     45022       362  PMPE      H16R          -24.6223639392       50.5546440988       -2.4598815220  MEMB      362             0.0000000000
     45023       362  PMPE      H16S          -24.5300800922       51.8715228322       -1.1507679104  MEMB      362             0.0000000000
     45024       362  PMPE      H16T          -25.6174768891       50.4703177152       -1.0119307990  MEMB      362             0.0000000000
     45025       362  PMPE      C33           -30.3650301023       45.6594366980      -10.5816618667  MEMB      362             0.0000000000
     45026       362  PMPE      H3X           -30.1940851352       44.5757949024      -10.7572167253  MEMB      362             0.0000000000
     45027       362  PMPE      H3Y           -31.2987187805       45.8534684591      -11.1516602259  MEMB      362             0.0000000000
     45028       362  PMPE      C34           -30.7217280843       45.8579619519       -9.0758161720  MEMB      362             0.0000000000
     45029       362  PMPE      H4X           -31.7249940937       45.5295300139       -8.7295340044  MEMB      362             0.0000000000
     45030       362  PMPE      H4Y           -30.7363126931       46.9648587598       -8.9815410022  MEMB      362             0.0000000000
     45031       362  PMPE      C35           -29.7016444041       45.2837574165       -8.1375067505  MEMB      362             0.0000000000
     45032       362  PMPE      H5X           -28.6979335730       45.3769788260       -8.6046209439  MEMB      362             0.0000000000
     45033       362  PMPE      H5Y           -29.8153650338       44.1814893095       -8.2174714837  MEMB      362             0.0000000000
     45034       362  PMPE      C36           -29.7548727611       45.8969476227       -6.7533078822  MEMB      362             0.0000000000
     45035       362  PMPE      H6X           -30.8036620418       45.9426260102       -6.3896102317  MEMB      362             0.0000000000
     45036       362  PMPE      H6Y           -29.5210603542       46.9822936069       -6.7942545260  MEMB      362             0.0000000000
     45037       362  PMPE      C37           -28.7760732770       45.1555229129       -5.8649676224  MEMB      362             0.0000000000
     45038       362  PMPE      H7X           -27.7523087806       45.2232050365       -6.2911679062  MEMB      362             0.0000000000
     45039       362  PMPE      H7Y           -29.1677655032       44.1165016352       -5.8284626187  MEMB      362             0.0000000000
     45040       362  PMPE      C38           -28.7532922929       45.7276600361       -4.4496680275  MEMB      362             0.0000000000
     45041       362  PMPE      H8X           -29.7906826339       45.6087373719       -4.0701956734  MEMB      362             0.0000000000
     45042       362  PMPE      H8Y           -28.6419485861       46.8330343254       -4.4412066013  MEMB      362             0.0000000000
     45043       362  PMPE      C39           -27.7832897205       45.0451905887       -3.4339233715  MEMB      362             0.0000000000
     45044       362  PMPE      H9X           -26.7228995268       45.1665702072       -3.7424046655  MEMB      362             0.0000000000
     45045       362  PMPE      H9Y           -27.8791387743       43.9392266987       -3.4783970990  MEMB      362             0.0000000000
     45046       362  PMPE      C310          -28.0834811488       45.2475966934       -1.8513709688  MEMB      362             0.0000000000
     45047       362  PMPE      H10X          -28.9176242113       44.6452006514       -1.4322702212  MEMB      362             0.0000000000
     45048       362  PMPE      H10Y          -28.3039758623       46.3364311961       -1.8633152057  MEMB      362             0.0000000000
     45049       362  PMPE      C311          -26.8208479263       44.9627182176       -0.9576430116  MEMB      362             0.0000000000
     45050       362  PMPE      H11X          -25.9669342143       45.5333699527       -1.3813289862  MEMB      362             0.0000000000
     45051       362  PMPE      H11Y          -26.4275916012       43.9299159574       -1.0716164936  MEMB      362             0.0000000000
     45052       362  PMPE      C312          -27.1425769208       45.2834026163        0.5556341895  MEMB      362             0.0000000000
     45053       362  PMPE      H12X          -26.2039155162       45.0832502795        1.1152545640  MEMB      362             0.0000000000
     45054       362  PMPE      H12Y          -27.9585748920       44.6236612486        0.9206129495  MEMB      362             0.0000000000
     45055       362  PMPE      C313          -27.4359029824       46.8024336173        0.8075871396  MEMB      362             0.0000000000
     45056       362  PMPE      H13X          -28.4861077921       47.0068440850        0.5082422373  MEMB      362             0.0000000000
     45057       362  PMPE      H13Y          -26.7399561888       47.3094336262        0.1054964215  MEMB      362             0.0000000000
     45058       362  PMPE      C314          -27.2326102109       47.2662455099        2.2560148899  MEMB      362             0.0000000000
     45059       362  PMPE      H14X          -26.2447188754       46.8830937608        2.5900602674  MEMB      362             0.0000000000
     45060       362  PMPE      H14Y          -27.9964263042       46.7274372064        2.8565089763  MEMB      362             0.0000000000
     45061       362  PMPE      C315          -27.3135740055       48.7579470621        2.5660795236  MEMB      362             0.0000000000
     45062       362  PMPE      H15X          -27.1443359242       48.8233895710        3.6621622360  MEMB      362             0.0000000000
     45063       362  PMPE      H15Y          -28.3493211045       49.0956413748        2.3481095927  MEMB      362             0.0000000000
     45064       362  PMPE      C316          -26.2510100351       49.6261424900        1.9551845704  MEMB      362             0.0000000000
     45065       362  PMPE      H16X          -26.4064331882       49.8336129615        0.8748517611  MEMB      362             0.0000000000
     45066       362  PMPE      H16Y          -25.2049598499       49.2630207184        2.0459730481  MEMB      362             0.0000000000
     45067       362  PMPE      H16Z          -26.4063284323       50.6352644888        2.3932154466  MEMB      362             0.0000000000
     45068       363  PMPE      N              35.0235926139      -43.6107711581      -21.1159244385  MEMB      363             0.0000000000
     45069       363  PMPE      HN1            34.2229817166      -43.6186337307      -21.7796717807  MEMB      363             0.0000000000
     45070       363  PMPE      HN2            35.9615960187      -43.5978837390      -21.5649050333  MEMB      363             0.0000000000
     45071       363  PMPE      HN3            34.9904162536      -44.4255244272      -20.4704197587  MEMB      363             0.0000000000
     45072       363  PMPE      C12            34.9288529014      -42.4038837876      -20.2819215195  MEMB      363             0.0000000000
     45073       363  PMPE      H12A           34.3290744913      -42.5554243849      -19.3590877582  MEMB      363             0.0000000000
     45074       363  PMPE      H12B           34.6783961177      -41.5733126440      -20.9759993056  MEMB      363             0.0000000000
     45075       363  PMPE      C11            36.3101518794      -42.0514152821      -19.7117827044  MEMB      363             0.0000000000
     45076       363  PMPE      H11A           36.1486607226      -41.3797353563      -18.8416749007  MEMB      363             0.0000000000
     45077       363  PMPE      H11B           36.9177238973      -41.6334746339      -20.5427477513  MEMB      363             0.0000000000
     45078       363  PMPE      P              38.2240687573      -43.0947757532      -18.2119653692  MEMB      363             0.0000000000
     45079       363  PMPE      O13            38.5840114919      -41.6708557453      -18.0404702213  MEMB      363             0.0000000000
     45080       363  PMPE      O14            39.3166247014      -44.0175442462      -18.6447635567  MEMB      363             0.0000000000
     45081       363  PMPE      O11            37.6683203459      -43.4778109904      -16.7755952609  MEMB      363             0.0000000000
     45082       363  PMPE      O12            36.9882602333      -43.1881593159      -19.2175769309  MEMB      363             0.0000000000
     45083       363  PMPE      C1             36.7868492946      -44.5082717684      -16.4714470131  MEMB      363             0.0000000000
     45084       363  PMPE      HA             37.2102062953      -44.9379750978      -15.5384706307  MEMB      363             0.0000000000
     45085       363  PMPE      HB             36.8147945477      -45.3156389117      -17.2341384927  MEMB      363             0.0000000000
     45086       363  PMPE      C2             35.3918741678      -43.9661711779      -16.2804599264  MEMB      363             0.0000000000
     45087       363  PMPE      HS             35.2853632908      -43.2161788318      -17.0931640612  MEMB      363             0.0000000000
     45088       363  PMPE      O21            35.3003530653      -43.3653449008      -14.9939150751  MEMB      363             0.0000000000
     45089       363  PMPE      C21            34.8679534997      -42.1463065427      -14.7760050573  MEMB      363             0.0000000000
     45090       363  PMPE      O22            34.4668437132      -41.3995122774      -15.7046484230  MEMB      363             0.0000000000
     45091       363  PMPE      C22            34.9973253173      -41.7367101074      -13.3010686817  MEMB      363             0.0000000000
     45092       363  PMPE      H2R            35.8090648950      -40.9789721529      -13.3361836156  MEMB      363             0.0000000000
     45093       363  PMPE      H2S            35.4308839507      -42.4741956473      -12.5922223023  MEMB      363             0.0000000000
     45094       363  PMPE      C3             34.3367091209      -45.0618573621      -16.4295135187  MEMB      363             0.0000000000
     45095       363  PMPE      HX             34.4924499772      -45.4073228516      -17.4738885343  MEMB      363             0.0000000000
     45096       363  PMPE      HY             33.2999848306      -44.7032395846      -16.2536811397  MEMB      363             0.0000000000
     45097       363  PMPE      O31            34.6126806356      -46.1445808513      -15.5859070943  MEMB      363             0.0000000000
     45098       363  PMPE      C31            34.2553718879      -46.1193482128      -14.2886877801  MEMB      363             0.0000000000
     45099       363  PMPE      O32            33.6969987720      -45.1978705326      -13.7370794247  MEMB      363             0.0000000000
     45100       363  PMPE      C32            34.6899428524      -47.4055525708      -13.5729574955  MEMB      363             0.0000000000
     45101       363  PMPE      H2X            35.7936995468      -47.4575327140      -13.6884571432  MEMB      363             0.0000000000
     45102       363  PMPE      H2Y            34.2093498693      -48.2513408889      -14.1096078407  MEMB      363             0.0000000000
     45103       363  PMPE      C23            33.7415064746      -41.1339255574      -12.7031717489  MEMB      363             0.0000000000
     45104       363  PMPE      H3R            32.9244023446      -41.8296792006      -12.4157889585  MEMB      363             0.0000000000
     45105       363  PMPE      H3S            33.2778008966      -40.3882299584      -13.3837863668  MEMB      363             0.0000000000
     45106       363  PMPE      C24            34.1318098318      -40.4041647181      -11.3581338759  MEMB      363             0.0000000000
     45107       363  PMPE      H4R            33.2606861069      -39.7405010407      -11.1710111194  MEMB      363             0.0000000000
     45108       363  PMPE      H4S            34.9389125515      -39.6985999054      -11.6498262964  MEMB      363             0.0000000000
     45109       363  PMPE      C25            34.3067067743      -41.3863425930      -10.1184851792  MEMB      363             0.0000000000
     45110       363  PMPE      H5R            35.2097845881      -41.9833657972      -10.3681536759  MEMB      363             0.0000000000
     45111       363  PMPE      H5S            33.3871226601      -41.9859882963       -9.9478647247  MEMB      363             0.0000000000
     45112       363  PMPE      C26            34.5846519310      -40.6094724283       -8.7974506303  MEMB      363             0.0000000000
     45113       363  PMPE      H6R            33.6454451218      -40.0665977492       -8.5576609310  MEMB      363             0.0000000000
     45114       363  PMPE      H6S            35.4334109548      -39.9158037709       -8.9784279819  MEMB      363             0.0000000000
     45115       363  PMPE      C27            34.8584592621      -41.5089330311       -7.5735211621  MEMB      363             0.0000000000
     45116       363  PMPE      H7R            35.7574201366      -42.1479501235       -7.7071166760  MEMB      363             0.0000000000
     45117       363  PMPE      H7S            34.0768908771      -42.2930856077       -7.4809113695  MEMB      363             0.0000000000
     45118       363  PMPE      C28            34.9993455004      -40.7099066503       -6.2152170031  MEMB      363             0.0000000000
     45119       363  PMPE      H8R            35.4552855252      -41.4585704069       -5.5326172860  MEMB      363             0.0000000000
     45120       363  PMPE      H8S            33.9815620998      -40.4685611862       -5.8407964497  MEMB      363             0.0000000000
     45121       363  PMPE      C29            35.8843084882      -39.4455049094       -6.2697978018  MEMB      363             0.0000000000
     45122       363  PMPE      H9R            35.7367431047      -38.6624885063       -7.0440267598  MEMB      363             0.0000000000
     45123       363  PMPE      C217           37.3879253693      -39.8045612005       -6.3749026324  MEMB      363             0.0000000000
     45124       363  PMPE      H17R           38.1391526416      -39.1655406858       -6.8223390880  MEMB      363             0.0000000000
     45125       363  PMPE      H17S           37.5704725244      -40.8579957609       -6.2021563435  MEMB      363             0.0000000000
     45126       363  PMPE      C210           36.7493247800      -39.0460168777       -5.1194522731  MEMB      363             0.0000000000
     45127       363  PMPE      H10R           36.8606617016      -37.9640313258       -4.8931061785  MEMB      363             0.0000000000
     45128       363  PMPE      C211           36.7812525928      -39.8846062169       -3.8007138692  MEMB      363             0.0000000000
     45129       363  PMPE      H11R           36.9883392438      -40.9606439395       -3.9839607659  MEMB      363             0.0000000000
     45130       363  PMPE      H11S           35.7713560723      -39.7954726396       -3.3463071426  MEMB      363             0.0000000000
     45131       363  PMPE      C212           37.6969911781      -39.3595015288       -2.7403766504  MEMB      363             0.0000000000
     45132       363  PMPE      H12R           37.4905462579      -38.2683886355       -2.7061142676  MEMB      363             0.0000000000
     45133       363  PMPE      H12S           38.7084265228      -39.6032650955       -3.1301190238  MEMB      363             0.0000000000
     45134       363  PMPE      C213           37.6020943107      -40.1128522625       -1.4192970744  MEMB      363             0.0000000000
     45135       363  PMPE      H13R           38.1259890765      -41.0877569419       -1.5163356108  MEMB      363             0.0000000000
     45136       363  PMPE      H13S           36.5429995827      -40.3079724037       -1.1462266251  MEMB      363             0.0000000000
     45137       363  PMPE      C214           38.3505522953      -39.3781631204       -0.3131086845  MEMB      363             0.0000000000
     45138       363  PMPE      H14R           39.4034889500      -39.1541027391       -0.5877771452  MEMB      363             0.0000000000
     45139       363  PMPE      H14S           38.4602005611      -40.1465863798        0.4817647862  MEMB      363             0.0000000000
     45140       363  PMPE      C215           37.6303124077      -38.0980222255        0.2012820241  MEMB      363             0.0000000000
     45141       363  PMPE      H15R           37.3778255205      -37.3971882047       -0.6229772047  MEMB      363             0.0000000000
     45142       363  PMPE      H15S           38.4200342508      -37.5633444964        0.7711781640  MEMB      363             0.0000000000
     45143       363  PMPE      C216           36.5034174629      -38.3989151775        1.1887256516  MEMB      363             0.0000000000
     45144       363  PMPE      H16R           35.8985161037      -37.4686689414        1.2440145955  MEMB      363             0.0000000000
     45145       363  PMPE      H16S           35.8429901906      -39.2361283972        0.8769059867  MEMB      363             0.0000000000
     45146       363  PMPE      H16T           36.9029751206      -38.5893028826        2.2077578684  MEMB      363             0.0000000000
     45147       363  PMPE      C33            34.2971490340      -47.3024679047      -12.1483047138  MEMB      363             0.0000000000
     45148       363  PMPE      H3X            34.5471319472      -48.2938480047      -11.7135689916  MEMB      363             0.0000000000
     45149       363  PMPE      H3Y            33.2339325528      -47.0393295851      -11.9621603253  MEMB      363             0.0000000000
     45150       363  PMPE      C34            35.1134608903      -46.3608764844      -11.3129575313  MEMB      363             0.0000000000
     45151       363  PMPE      H4X            35.0759003755      -45.3222154627      -11.7055047374  MEMB      363             0.0000000000
     45152       363  PMPE      H4Y            36.1380404111      -46.7901066129      -11.2950924322  MEMB      363             0.0000000000
     45153       363  PMPE      C35            34.5974180242      -46.2784673604       -9.9046103722  MEMB      363             0.0000000000
     45154       363  PMPE      H5X            34.6405895559      -47.3020568334       -9.4748178786  MEMB      363             0.0000000000
     45155       363  PMPE      H5Y            33.5625304108      -45.8793539018       -9.8410733351  MEMB      363             0.0000000000
     45156       363  PMPE      C36            35.5555377797      -45.5201349275       -8.9745855064  MEMB      363             0.0000000000
     45157       363  PMPE      H6X            35.4861138800      -44.4817579965       -9.3635255764  MEMB      363             0.0000000000
     45158       363  PMPE      H6Y            36.6025450778      -45.8292409439       -9.1808630333  MEMB      363             0.0000000000
     45159       363  PMPE      C37            35.2421391114      -45.6694662751       -7.4919365845  MEMB      363             0.0000000000
     45160       363  PMPE      H7X            35.4464370548      -46.7265939215       -7.2179576501  MEMB      363             0.0000000000
     45161       363  PMPE      H7Y            34.1518380317      -45.4927917400       -7.3721421589  MEMB      363             0.0000000000
     45162       363  PMPE      C38            35.8357598518      -44.8654267917       -6.3597533870  MEMB      363             0.0000000000
     45163       363  PMPE      H8X            35.5353210793      -45.3316618413       -5.3971102712  MEMB      363             0.0000000000
     45164       363  PMPE      H8Y            35.4224860259      -43.8407903316       -6.2429379147  MEMB      363             0.0000000000
     45165       363  PMPE      C39            37.3405486378      -44.7463907435       -6.5364283027  MEMB      363             0.0000000000
     45166       363  PMPE      H9X            37.6638797962      -44.2311904899       -7.4661303958  MEMB      363             0.0000000000
     45167       363  PMPE      H9Y            37.8227142789      -45.7424602164       -6.6348280132  MEMB      363             0.0000000000
     45168       363  PMPE      C310           38.0428911074      -43.9849573646       -5.4006006951  MEMB      363             0.0000000000
     45169       363  PMPE      H10X           37.7263019719      -42.9264424007       -5.5173843296  MEMB      363             0.0000000000
     45170       363  PMPE      H10Y           39.1434823863      -43.9851676790       -5.5523223031  MEMB      363             0.0000000000
     45171       363  PMPE      C311           37.6927688014      -44.5402313242       -3.9736799691  MEMB      363             0.0000000000
     45172       363  PMPE      H11X           37.8984146074      -45.6295915071       -3.9007048200  MEMB      363             0.0000000000
     45173       363  PMPE      H11Y           36.6344210103      -44.3182469336       -3.7188396656  MEMB      363             0.0000000000
     45174       363  PMPE      C312           38.6511716134      -43.9808351881       -2.9105304106  MEMB      363             0.0000000000
     45175       363  PMPE      H12X           38.3272485169      -42.9181409315       -2.9192527972  MEMB      363             0.0000000000
     45176       363  PMPE      H12Y           39.7180072097      -44.1500492212       -3.1704314545  MEMB      363             0.0000000000
     45177       363  PMPE      C313           38.4606423485      -44.4392842037       -1.4876542382  MEMB      363             0.0000000000
     45178       363  PMPE      H13X           38.4974256275      -45.5481060398       -1.4286436773  MEMB      363             0.0000000000
     45179       363  PMPE      H13Y           37.5042191044      -44.0695439010       -1.0600254893  MEMB      363             0.0000000000
     45180       363  PMPE      C314           39.6683599669      -44.0760590858       -0.5514375049  MEMB      363             0.0000000000
     45181       363  PMPE      H14X           39.8331833875      -42.9815006899       -0.4560660877  MEMB      363             0.0000000000
     45182       363  PMPE      H14Y           40.6229314020      -44.4716698628       -0.9596124552  MEMB      363             0.0000000000
     45183       363  PMPE      C315           39.6284082034      -44.6911800199        0.8487684864  MEMB      363             0.0000000000
     45184       363  PMPE      H15X           40.5438219939      -44.4272854788        1.4203436244  MEMB      363             0.0000000000
     45185       363  PMPE      H15Y           39.5847452990      -45.8006507902        0.8101735699  MEMB      363             0.0000000000
     45186       363  PMPE      C316           38.4423893665      -44.0514336952        1.6430571970  MEMB      363             0.0000000000
     45187       363  PMPE      H16X           38.4935710769      -44.3140308990        2.7213627329  MEMB      363             0.0000000000
     45188       363  PMPE      H16Y           37.4923977924      -44.3447890410        1.1472960115  MEMB      363             0.0000000000
     45189       363  PMPE      H16Z           38.5366576652      -42.9449505248        1.6766652789  MEMB      363             0.0000000000
     45190       364  PMPE      N              47.9701463927       32.5361466624      -21.7745658781  MEMB      364             0.0000000000
     45191       364  PMPE      HN1            48.3025159705       33.2909232072      -21.1409708911  MEMB      364             0.0000000000
     45192       364  PMPE      HN2            48.6247397511       32.5709244470      -22.5819678637  MEMB      364             0.0000000000
     45193       364  PMPE      HN3            46.9488043658       32.6681165951      -21.9196329801  MEMB      364             0.0000000000
     45194       364  PMPE      C12            48.1955897709       31.1046989134      -21.1967620349  MEMB      364             0.0000000000
     45195       364  PMPE      H12A           49.2893603094       31.1123485341      -21.0020094719  MEMB      364             0.0000000000
     45196       364  PMPE      H12B           47.9845395710       30.2592763924      -21.8859933573  MEMB      364             0.0000000000
     45197       364  PMPE      C11            47.5164544167       30.8199532308      -19.8057027384  MEMB      364             0.0000000000
     45198       364  PMPE      H11A           47.7825818742       29.8160079875      -19.4112524381  MEMB      364             0.0000000000
     45199       364  PMPE      H11B           46.4240519180       30.8817563553      -19.9984667959  MEMB      364             0.0000000000
     45200       364  PMPE      P              48.9971529394       31.7056414439      -17.8009014902  MEMB      364             0.0000000000
     45201       364  PMPE      O13            48.8005249265       32.7617060732      -16.7877456221  MEMB      364             0.0000000000
     45202       364  PMPE      O14            50.2462303684       31.6840566177      -18.5485785352  MEMB      364             0.0000000000
     45203       364  PMPE      O11            48.9521418163       30.2496248755      -17.2235501937  MEMB      364             0.0000000000
     45204       364  PMPE      O12            47.8186561693       31.7749801836      -18.8621935103  MEMB      364             0.0000000000
     45205       364  PMPE      C1             47.8141661705       29.5704340037      -16.7013587494  MEMB      364             0.0000000000
     45206       364  PMPE      HA             47.7799039600       28.6310067403      -17.2934934991  MEMB      364             0.0000000000
     45207       364  PMPE      HB             46.8521584613       30.0942859965      -16.8869422644  MEMB      364             0.0000000000
     45208       364  PMPE      C2             48.0894917481       29.1253615450      -15.2675692838  MEMB      364             0.0000000000
     45209       364  PMPE      HS             47.2067209359       28.5604130913      -14.8989638099  MEMB      364             0.0000000000
     45210       364  PMPE      O21            48.3360662431       30.3026187271      -14.4574559944  MEMB      364             0.0000000000
     45211       364  PMPE      C21            47.2366428926       30.9752293631      -14.0612845097  MEMB      364             0.0000000000
     45212       364  PMPE      O22            46.0817082714       30.7211486461      -14.3712739388  MEMB      364             0.0000000000
     45213       364  PMPE      C22            47.6907387053       32.2323990188      -13.3259054044  MEMB      364             0.0000000000
     45214       364  PMPE      H2R            48.2612135524       32.7331673555      -14.1371459060  MEMB      364             0.0000000000
     45215       364  PMPE      H2S            48.3595420531       32.0982245307      -12.4489674475  MEMB      364             0.0000000000
     45216       364  PMPE      C3             49.4053664055       28.2595817595      -15.1384980455  MEMB      364             0.0000000000
     45217       364  PMPE      HX             50.3120927150       28.8381001063      -15.4168595848  MEMB      364             0.0000000000
     45218       364  PMPE      HY             49.3301722748       27.3430035440      -15.7618368517  MEMB      364             0.0000000000
     45219       364  PMPE      O31            49.5587168169       27.7578641970      -13.7919238226  MEMB      364             0.0000000000
     45220       364  PMPE      C31            48.6640210600       26.8285578292      -13.4552915217  MEMB      364             0.0000000000
     45221       364  PMPE      O32            47.7913844564       26.3920703486      -14.1876493538  MEMB      364             0.0000000000
     45222       364  PMPE      C32            48.8036169477       26.5175143063      -11.9608340682  MEMB      364             0.0000000000
     45223       364  PMPE      H2X            49.6891906375       27.0751672889      -11.5878679208  MEMB      364             0.0000000000
     45224       364  PMPE      H2Y            48.9736601909       25.4198723968      -11.9365899710  MEMB      364             0.0000000000
     45225       364  PMPE      C23            46.6257584473       33.1708564571      -13.0592741407  MEMB      364             0.0000000000
     45226       364  PMPE      H3R            45.9599892075       32.7075401806      -12.3000574181  MEMB      364             0.0000000000
     45227       364  PMPE      H3S            46.0739598639       33.3418653322      -14.0082709969  MEMB      364             0.0000000000
     45228       364  PMPE      C24            46.9985164261       34.4516364447      -12.3416907570  MEMB      364             0.0000000000
     45229       364  PMPE      H4R            46.0428703307       34.9464049949      -12.0655285208  MEMB      364             0.0000000000
     45230       364  PMPE      H4S            47.6242413233       35.0256592726      -13.0581314336  MEMB      364             0.0000000000
     45231       364  PMPE      C25            47.7611167132       34.2460840017      -10.9957711508  MEMB      364             0.0000000000
     45232       364  PMPE      H5R            48.7172839554       33.7413909736      -11.2514076236  MEMB      364             0.0000000000
     45233       364  PMPE      H5S            47.2474043498       33.4450898047      -10.4223350701  MEMB      364             0.0000000000
     45234       364  PMPE      C26            47.9888823301       35.5391142514      -10.2954866915  MEMB      364             0.0000000000
     45235       364  PMPE      H6R            47.0061459971       36.0012642581      -10.0610341536  MEMB      364             0.0000000000
     45236       364  PMPE      H6S            48.5523825849       36.1764553450      -11.0100382892  MEMB      364             0.0000000000
     45237       364  PMPE      C27            48.9680274609       35.3559378301       -9.1368956750  MEMB      364             0.0000000000
     45238       364  PMPE      H7R            49.7545548346       36.1396359653       -9.0979947047  MEMB      364             0.0000000000
     45239       364  PMPE      H7S            49.5943648826       34.4425373098       -9.2247679949  MEMB      364             0.0000000000
     45240       364  PMPE      C28            48.3181653498       35.6087029559       -7.7552363663  MEMB      364             0.0000000000
     45241       364  PMPE      H8R            47.5676457245       36.4204415044       -7.8653361039  MEMB      364             0.0000000000
     45242       364  PMPE      H8S            49.1508770453       36.0634468712       -7.1772048387  MEMB      364             0.0000000000
     45243       364  PMPE      C29            47.5185785830       34.3774000575       -7.2300259295  MEMB      364             0.0000000000
     45244       364  PMPE      H9R            46.7928404886       33.8193620494       -7.8594849311  MEMB      364             0.0000000000
     45245       364  PMPE      C217           47.0258148330       34.3521885005       -5.7854714275  MEMB      364             0.0000000000
     45246       364  PMPE      H17R           46.0922512765       33.8049607200       -5.7419983463  MEMB      364             0.0000000000
     45247       364  PMPE      H17S           47.3434561603       35.2193341167       -5.2197405264  MEMB      364             0.0000000000
     45248       364  PMPE      C210           48.1301939760       33.4266876341       -6.2618845066  MEMB      364             0.0000000000
     45249       364  PMPE      H10R           47.7434794948       32.3853560297       -6.2418456204  MEMB      364             0.0000000000
     45250       364  PMPE      C211           49.4330199564       33.6089054838       -5.4815705169  MEMB      364             0.0000000000
     45251       364  PMPE      H11R           49.3022221917       33.1907963341       -4.4605918239  MEMB      364             0.0000000000
     45252       364  PMPE      H11S           49.7261896429       34.6737863343       -5.3615643138  MEMB      364             0.0000000000
     45253       364  PMPE      C212           50.4937647651       32.8386399450       -6.2736360341  MEMB      364             0.0000000000
     45254       364  PMPE      H12R           50.4152611233       32.8338774844       -7.3818488280  MEMB      364             0.0000000000
     45255       364  PMPE      H12S           50.3215170263       31.7648333342       -6.0464998843  MEMB      364             0.0000000000
     45256       364  PMPE      C213           51.9048375015       33.1929093268       -5.9651887200  MEMB      364             0.0000000000
     45257       364  PMPE      H13R           52.3238478996       34.0843033935       -6.4791619697  MEMB      364             0.0000000000
     45258       364  PMPE      H13S           52.4675882415       32.3915170089       -6.4899772299  MEMB      364             0.0000000000
     45259       364  PMPE      C214           52.2210895061       33.0827851900       -4.4049008809  MEMB      364             0.0000000000
     45260       364  PMPE      H14R           51.7873850222       32.1763464578       -3.9309907723  MEMB      364             0.0000000000
     45261       364  PMPE      H14S           51.8349061915       33.9224130581       -3.7882903924  MEMB      364             0.0000000000
     45262       364  PMPE      C215           53.6593714628       33.1087164814       -3.9737003530  MEMB      364             0.0000000000
     45263       364  PMPE      H15R           54.1846077858       34.0004636409       -4.3777233842  MEMB      364             0.0000000000
     45264       364  PMPE      H15S           54.1257543913       32.1633671450       -4.3245893102  MEMB      364             0.0000000000
     45265       364  PMPE      C216           53.9737477065       33.0973658403       -2.4315655605  MEMB      364             0.0000000000
     45266       364  PMPE      H16R           53.4473874761       33.9403886364       -1.9349982037  MEMB      364             0.0000000000
     45267       364  PMPE      H16S           53.6416444034       32.1410285954       -1.9739112681  MEMB      364             0.0000000000
     45268       364  PMPE      H16T           55.0289985691       33.2914560941       -2.1433019576  MEMB      364             0.0000000000
     45269       364  PMPE      C33            47.4771132029       26.9142470796      -11.2637737762  MEMB      364             0.0000000000
     45270       364  PMPE      H3X            47.5667013562       26.5650072860      -10.2129042367  MEMB      364             0.0000000000
     45271       364  PMPE      H3Y            46.5400462062       26.4165335878      -11.5931800469  MEMB      364             0.0000000000
     45272       364  PMPE      C34            47.3083819012       28.5003509467      -11.3539716307  MEMB      364             0.0000000000
     45273       364  PMPE      H4X            47.0176697835       28.7172654485      -12.4040931248  MEMB      364             0.0000000000
     45274       364  PMPE      H4Y            48.2903517725       28.9892940207      -11.1779285869  MEMB      364             0.0000000000
     45275       364  PMPE      C35            46.1677219937       28.9928511820      -10.4375275071  MEMB      364             0.0000000000
     45276       364  PMPE      H5X            46.4879625165       28.6246989877       -9.4394133935  MEMB      364             0.0000000000
     45277       364  PMPE      H5Y            45.1342092915       28.6638536760      -10.6782203820  MEMB      364             0.0000000000
     45278       364  PMPE      C36            46.3290971713       30.4880374925      -10.3047880599  MEMB      364             0.0000000000
     45279       364  PMPE      H6X            46.1134596157       30.8785096836      -11.3223111920  MEMB      364             0.0000000000
     45280       364  PMPE      H6Y            47.3463494451       30.8532002694      -10.0475434266  MEMB      364             0.0000000000
     45281       364  PMPE      C37            45.3044832903       31.0575525046       -9.3177067284  MEMB      364             0.0000000000
     45282       364  PMPE      H7X            44.4777181077       30.3227470310       -9.4218255560  MEMB      364             0.0000000000
     45283       364  PMPE      H7Y            44.9193643071       32.0415764458       -9.6607821850  MEMB      364             0.0000000000
     45284       364  PMPE      C38            45.8586519026       30.9689833347       -7.9201240986  MEMB      364             0.0000000000
     45285       364  PMPE      H8X            45.7724473561       31.9316425791       -7.3722402583  MEMB      364             0.0000000000
     45286       364  PMPE      H8Y            46.9338238760       30.7051945462       -7.8266280379  MEMB      364             0.0000000000
     45287       364  PMPE      C39            45.1713828701       29.8965944231       -7.0055537866  MEMB      364             0.0000000000
     45288       364  PMPE      H9X            45.5055291715       28.8935547428       -7.3469904628  MEMB      364             0.0000000000
     45289       364  PMPE      H9Y            44.0723913395       30.0114384791       -7.1210920327  MEMB      364             0.0000000000
     45290       364  PMPE      C310           45.6118854179       29.9824933664       -5.5270121429  MEMB      364             0.0000000000
     45291       364  PMPE      H10X           44.9114590594       29.5228974269       -4.7972886387  MEMB      364             0.0000000000
     45292       364  PMPE      H10Y           45.6496005871       31.0108252497       -5.1081660046  MEMB      364             0.0000000000
     45293       364  PMPE      C311           46.9884259416       29.3414682909       -5.2293208713  MEMB      364             0.0000000000
     45294       364  PMPE      H11X           47.7924573077       29.6480969415       -5.9320545650  MEMB      364             0.0000000000
     45295       364  PMPE      H11Y           46.9724606238       28.2313190297       -5.2697545695  MEMB      364             0.0000000000
     45296       364  PMPE      C312           47.6568903961       29.7449219126       -3.8613221633  MEMB      364             0.0000000000
     45297       364  PMPE      H12X           46.8686505375       29.4781147974       -3.1252423246  MEMB      364             0.0000000000
     45298       364  PMPE      H12Y           47.7352812052       30.8525564408       -3.8249674866  MEMB      364             0.0000000000
     45299       364  PMPE      C313           48.9753956575       29.0507467347       -3.6214403338  MEMB      364             0.0000000000
     45300       364  PMPE      H13X           49.5192010692       29.3080487170       -4.5554591900  MEMB      364             0.0000000000
     45301       364  PMPE      H13Y           48.8340594734       27.9514067772       -3.5453054958  MEMB      364             0.0000000000
     45302       364  PMPE      C314           49.7733991349       29.7600194977       -2.4788507994  MEMB      364             0.0000000000
     45303       364  PMPE      H14X           49.9233319573       30.8390997784       -2.6966287180  MEMB      364             0.0000000000
     45304       364  PMPE      H14Y           50.7550526596       29.2398619396       -2.4681925850  MEMB      364             0.0000000000
     45305       364  PMPE      C315           49.1928508658       29.5342906676       -1.1053000827  MEMB      364             0.0000000000
     45306       364  PMPE      H15X           49.1929760613       28.5111509806       -0.6722811376  MEMB      364             0.0000000000
     45307       364  PMPE      H15Y           48.1389677753       29.8787223865       -1.1761433613  MEMB      364             0.0000000000
     45308       364  PMPE      C316           49.9790433887       30.3561835300       -0.0867408827  MEMB      364             0.0000000000
     45309       364  PMPE      H16X           49.7206102344       30.3546346509        0.9937832477  MEMB      364             0.0000000000
     45310       364  PMPE      H16Y           49.8445237721       31.4372203446       -0.3048791766  MEMB      364             0.0000000000
     45311       364  PMPE      H16Z           51.0448993068       30.0570777060        0.0071107537  MEMB      364             0.0000000000
     45312       365  POPE      N             -54.0399589399       18.4112241987      -17.9515422320  MEMB      365             0.0000000000
     45313       365  POPE      HN1           -53.5998458233       19.3484529374      -18.0490235178  MEMB      365             0.0000000000
     45314       365  POPE      HN2           -54.6237865360       18.2447402418      -17.1071321338  MEMB      365             0.0000000000
     45315       365  POPE      HN3           -53.3035758311       17.6818294626      -18.0371199790  MEMB      365             0.0000000000
     45316       365  POPE      C12           -54.8430448407       18.2288454195      -19.2062606325  MEMB      365             0.0000000000
     45317       365  POPE      H12A          -54.1542190338       18.2441197794      -20.0778148393  MEMB      365             0.0000000000
     45318       365  POPE      H12B          -55.4984468293       19.1121699124      -19.3628083708  MEMB      365             0.0000000000
     45319       365  POPE      C11           -55.6800115029       16.9985132804      -19.2137368995  MEMB      365             0.0000000000
     45320       365  POPE      H11A          -56.1712494128       16.8559809076      -20.1999878856  MEMB      365             0.0000000000
     45321       365  POPE      H11B          -56.5116765410       17.0159842264      -18.4772934394  MEMB      365             0.0000000000
     45322       365  POPE      P             -55.5623754568       14.4309510479      -19.2065878469  MEMB      365             0.0000000000
     45323       365  POPE      O13           -54.4877330126       13.3896501233      -18.9625107531  MEMB      365             0.0000000000
     45324       365  POPE      O14           -56.3230946796       14.3207090804      -20.4823555569  MEMB      365             0.0000000000
     45325       365  POPE      O11           -56.5574482110       14.4421781149      -17.9198928428  MEMB      365             0.0000000000
     45326       365  POPE      O12           -54.9069053561       15.8328036338      -19.0571132397  MEMB      365             0.0000000000
     45327       365  POPE      C1            -57.5193038220       13.3966865760      -17.9407951711  MEMB      365             0.0000000000
     45328       365  POPE      HA            -56.9747427048       12.4458246645      -17.7573942695  MEMB      365             0.0000000000
     45329       365  POPE      HB            -58.1083785281       13.3259766761      -18.8801098979  MEMB      365             0.0000000000
     45330       365  POPE      C2            -58.5571185199       13.6762824746      -16.7873805086  MEMB      365             0.0000000000
     45331       365  POPE      HS            -59.3549097052       14.1265561258      -17.4159534272  MEMB      365             0.0000000000
     45332       365  POPE      O21           -58.0427905046       14.6517768086      -15.8559040322  MEMB      365             0.0000000000
     45333       365  POPE      C21           -59.0143193376       15.3447098086      -15.1925729314  MEMB      365             0.0000000000
     45334       365  POPE      O22           -60.1908056634       15.2501402379      -15.3462887106  MEMB      365             0.0000000000
     45335       365  POPE      C22           -58.2614702839       16.4090962050      -14.3927242403  MEMB      365             0.0000000000
     45336       365  POPE      H2R           -57.5335687894       15.8753122233      -13.7449938531  MEMB      365             0.0000000000
     45337       365  POPE      H2S           -58.9060605545       16.9844583856      -13.6943097816  MEMB      365             0.0000000000
     45338       365  POPE      C3            -58.9002768405       12.3311544672      -16.0565257690  MEMB      365             0.0000000000
     45339       365  POPE      HX            -59.1954609341       11.7038716417      -16.9246867683  MEMB      365             0.0000000000
     45340       365  POPE      HY            -59.6120218137       12.5114057541      -15.2227093975  MEMB      365             0.0000000000
     45341       365  POPE      O31           -57.6680963789       11.7735759175      -15.6144599263  MEMB      365             0.0000000000
     45342       365  POPE      C31           -57.2044296571       12.1319641846      -14.3489507599  MEMB      365             0.0000000000
     45343       365  POPE      O32           -57.9855015634       12.6252984792      -13.5403221604  MEMB      365             0.0000000000
     45344       365  POPE      C32           -55.7137435569       11.8999680478      -14.1945188966  MEMB      365             0.0000000000
     45345       365  POPE      H2X           -55.3040236742       12.7802097534      -14.7345418586  MEMB      365             0.0000000000
     45346       365  POPE      H2Y           -55.3271111712       10.9455034916      -14.6114526285  MEMB      365             0.0000000000
     45347       365  POPE      C23           -57.4774311442       17.4017574412      -15.1945277065  MEMB      365             0.0000000000
     45348       365  POPE      H3R           -58.1772417861       17.9139754938      -15.8889477176  MEMB      365             0.0000000000
     45349       365  POPE      H3S           -56.6563305757       16.9742347160      -15.8088070274  MEMB      365             0.0000000000
     45350       365  POPE      C24           -56.8869917821       18.5645557459      -14.4102307094  MEMB      365             0.0000000000
     45351       365  POPE      H4R           -57.6602673530       19.1140663623      -13.8319541697  MEMB      365             0.0000000000
     45352       365  POPE      H4S           -56.5818845260       19.2659907549      -15.2159723908  MEMB      365             0.0000000000
     45353       365  POPE      C25           -55.8664358285       18.1424674776      -13.3486714515  MEMB      365             0.0000000000
     45354       365  POPE      H5R           -56.2401916494       17.2858616415      -12.7479601703  MEMB      365             0.0000000000
     45355       365  POPE      H5S           -55.8038423177       18.9890818379      -12.6319798903  MEMB      365             0.0000000000
     45356       365  POPE      C26           -54.3827507436       17.7332886653      -13.8679449536  MEMB      365             0.0000000000
     45357       365  POPE      H6R           -54.0886576378       18.6086052096      -14.4857242034  MEMB      365             0.0000000000
     45358       365  POPE      H6S           -54.6264166915       16.8303976168      -14.4677249651  MEMB      365             0.0000000000
     45359       365  POPE      C27           -53.4330711884       17.3952016223      -12.7022359896  MEMB      365             0.0000000000
     45360       365  POPE      H7R           -53.2855264347       18.3642848195      -12.1793316279  MEMB      365             0.0000000000
     45361       365  POPE      H7S           -52.4999792154       17.1068144274      -13.2318518403  MEMB      365             0.0000000000
     45362       365  POPE      C28           -53.9127332436       16.2258213178      -11.9009769124  MEMB      365             0.0000000000
     45363       365  POPE      H8R           -54.5038921889       15.4606648504      -12.4481399829  MEMB      365             0.0000000000
     45364       365  POPE      H8S           -54.5512985299       16.4508054573      -11.0201035165  MEMB      365             0.0000000000
     45365       365  POPE      C29           -52.7699899714       15.4525654974      -11.2842752982  MEMB      365             0.0000000000
     45366       365  POPE      H91           -52.3783780781       14.6593254810      -11.9380415034  MEMB      365             0.0000000000
     45367       365  POPE      C210          -52.2211255466       15.5514774285      -10.0026136560  MEMB      365             0.0000000000
     45368       365  POPE      H101          -51.4719301861       14.8177921687       -9.6703290485  MEMB      365             0.0000000000
     45369       365  POPE      C211          -52.6540246677       16.5133600611       -8.9297304027  MEMB      365             0.0000000000
     45370       365  POPE      H11R          -52.8796555854       17.4737121901       -9.4407445687  MEMB      365             0.0000000000
     45371       365  POPE      H11S          -51.7218387082       16.7149257209       -8.3598869069  MEMB      365             0.0000000000
     45372       365  POPE      C212          -53.8314531766       16.2711126958       -7.9164053544  MEMB      365             0.0000000000
     45373       365  POPE      H12R          -53.5254631420       15.6074134648       -7.0796294644  MEMB      365             0.0000000000
     45374       365  POPE      H12S          -54.7227042097       15.9476825856       -8.4955299333  MEMB      365             0.0000000000
     45375       365  POPE      C213          -54.1416578239       17.6163429089       -7.1589440339  MEMB      365             0.0000000000
     45376       365  POPE      H13R          -54.4808015512       18.4393694073       -7.8237221459  MEMB      365             0.0000000000
     45377       365  POPE      H13S          -53.3059383727       17.9217761788       -6.4936584674  MEMB      365             0.0000000000
     45378       365  POPE      C214          -55.3792137008       17.4287545664       -6.2742582079  MEMB      365             0.0000000000
     45379       365  POPE      H14R          -56.2142001025       17.0983261391       -6.9284266954  MEMB      365             0.0000000000
     45380       365  POPE      H14S          -55.6347753185       18.4643076147       -5.9633902749  MEMB      365             0.0000000000
     45381       365  POPE      C215          -55.1676676381       16.4525591080       -5.0732457272  MEMB      365             0.0000000000
     45382       365  POPE      H15R          -54.8999148148       15.4724521867       -5.5227116977  MEMB      365             0.0000000000
     45383       365  POPE      H15S          -56.1178819137       16.4321895357       -4.4979209967  MEMB      365             0.0000000000
     45384       365  POPE      C216          -54.0185108498       16.9086286133       -4.1800971482  MEMB      365             0.0000000000
     45385       365  POPE      H16R          -54.1891362912       17.9895560052       -3.9882541801  MEMB      365             0.0000000000
     45386       365  POPE      H16S          -53.0900931838       16.7993700891       -4.7804505203  MEMB      365             0.0000000000
     45387       365  POPE      C217          -53.8337911020       16.0670103757       -2.9275473459  MEMB      365             0.0000000000
     45388       365  POPE      H17R          -52.9265344931       16.4929518525       -2.4481931495  MEMB      365             0.0000000000
     45389       365  POPE      H17S          -53.5746192246       15.0265368923       -3.2183501819  MEMB      365             0.0000000000
     45390       365  POPE      C218          -54.9455327933       16.0728599684       -1.8218087412  MEMB      365             0.0000000000
     45391       365  POPE      H18R          -55.1246632235       17.0981861363       -1.4332994574  MEMB      365             0.0000000000
     45392       365  POPE      H18S          -54.5878883578       15.5212641840       -0.9261781139  MEMB      365             0.0000000000
     45393       365  POPE      H18T          -55.9207042698       15.7367502688       -2.2345940592  MEMB      365             0.0000000000
     45394       365  POPE      C33           -55.4457438585       12.0492915823      -12.6654419968  MEMB      365             0.0000000000
     45395       365  POPE      H3X           -56.0800366382       11.2850907614      -12.1674552301  MEMB      365             0.0000000000
     45396       365  POPE      H3Y           -55.7278798731       13.0354890234      -12.2386693758  MEMB      365             0.0000000000
     45397       365  POPE      C34           -54.0065438534       11.6567115372      -12.3108702402  MEMB      365             0.0000000000
     45398       365  POPE      H4X           -53.4249582339       12.2865923523      -13.0175029057  MEMB      365             0.0000000000
     45399       365  POPE      H4Y           -53.9122090078       10.5879865183      -12.5993989602  MEMB      365             0.0000000000
     45400       365  POPE      C35           -53.5794962408       11.8361558118      -10.8563241450  MEMB      365             0.0000000000
     45401       365  POPE      H5X           -54.3718692626       11.4936564393      -10.1569236589  MEMB      365             0.0000000000
     45402       365  POPE      H5Y           -53.4358429732       12.9172856720      -10.6445622660  MEMB      365             0.0000000000
     45403       365  POPE      C36           -52.2292567168       11.2134393247      -10.4653758452  MEMB      365             0.0000000000
     45404       365  POPE      H6X           -51.6703813730       11.3980036136      -11.4076679559  MEMB      365             0.0000000000
     45405       365  POPE      H6Y           -52.3592986586       10.1141740511      -10.3703692408  MEMB      365             0.0000000000
     45406       365  POPE      C37           -51.3758824655       11.7811723917       -9.2598524536  MEMB      365             0.0000000000
     45407       365  POPE      H7X           -51.3952444344       12.8743131123       -9.4573100298  MEMB      365             0.0000000000
     45408       365  POPE      H7Y           -50.3557618598       11.3579314534       -9.3804418789  MEMB      365             0.0000000000
     45409       365  POPE      C38           -51.8546582462       11.5569565714       -7.7812904059  MEMB      365             0.0000000000
     45410       365  POPE      H8X           -51.4110441429       10.5730313338       -7.5178172836  MEMB      365             0.0000000000
     45411       365  POPE      H8Y           -52.9653241722       11.5331237911       -7.7944898665  MEMB      365             0.0000000000
     45412       365  POPE      C39           -51.4262488978       12.7367698913       -6.7811728690  MEMB      365             0.0000000000
     45413       365  POPE      H9X           -52.0301401941       13.6490589006       -6.9744726078  MEMB      365             0.0000000000
     45414       365  POPE      H9Y           -50.4245443981       13.0634054070       -7.1336184697  MEMB      365             0.0000000000
     45415       365  POPE      C310          -51.4584604463       12.4294814254       -5.3119952678  MEMB      365             0.0000000000
     45416       365  POPE      H10X          -51.2306286349       13.4017400125       -4.8250386973  MEMB      365             0.0000000000
     45417       365  POPE      H10Y          -50.7071863992       11.6299105722       -5.1370825316  MEMB      365             0.0000000000
     45418       365  POPE      C311          -52.8325609692       11.9362933117       -4.9028319015  MEMB      365             0.0000000000
     45419       365  POPE      H11X          -53.2382860631       11.0490631447       -5.4343680024  MEMB      365             0.0000000000
     45420       365  POPE      H11Y          -53.5638085236       12.7708071288       -4.9592658737  MEMB      365             0.0000000000
     45421       365  POPE      C312          -52.9453936720       11.5663026189       -3.4834280243  MEMB      365             0.0000000000
     45422       365  POPE      H12X          -52.6137121047       12.4255903198       -2.8621933306  MEMB      365             0.0000000000
     45423       365  POPE      H12Y          -52.2267727009       10.7381899098       -3.3041663776  MEMB      365             0.0000000000
     45424       365  POPE      C313          -54.3598454360       11.0890533092       -2.9121325800  MEMB      365             0.0000000000
     45425       365  POPE      H13X          -54.6583574881       10.1511092533       -3.4273728145  MEMB      365             0.0000000000
     45426       365  POPE      H13Y          -55.1588311424       11.8429192293       -3.0783527022  MEMB      365             0.0000000000
     45427       365  POPE      C314          -54.2381183653       10.5541318100       -1.4544281712  MEMB      365             0.0000000000
     45428       365  POPE      H14X          -53.7665612983        9.5495062851       -1.4026352261  MEMB      365             0.0000000000
     45429       365  POPE      H14Y          -55.2484829455       10.3776696987       -1.0274083210  MEMB      365             0.0000000000
     45430       365  POPE      C315          -53.2942758591       11.3375305072       -0.5365177832  MEMB      365             0.0000000000
     45431       365  POPE      H15X          -53.7778340663       12.3092013379       -0.2991401529  MEMB      365             0.0000000000
     45432       365  POPE      H15Y          -52.3081797582       11.6588362932       -0.9348892045  MEMB      365             0.0000000000
     45433       365  POPE      C316          -53.1478528680       10.6413911259        0.8328008589  MEMB      365             0.0000000000
     45434       365  POPE      H16X          -54.1840743794       10.6855493965        1.2310676510  MEMB      365             0.0000000000
     45435       365  POPE      H16Y          -52.4255429069       11.1269643642        1.5233145343  MEMB      365             0.0000000000
     45436       365  POPE      H16Z          -52.8062557023        9.5934751461        0.6931414540  MEMB      365             0.0000000000
     45437       366  PMPE      N              51.7965253460       21.7653603689      -16.7205834065  MEMB      366             0.0000000000
     45438       366  PMPE      HN1            52.6963759534       21.4467047071      -17.1332909623  MEMB      366             0.0000000000
     45439       366  PMPE      HN2            51.9635835748       22.0420511498      -15.7320826490  MEMB      366             0.0000000000
     45440       366  PMPE      HN3            51.0610051947       21.0340738697      -16.6442298441  MEMB      366             0.0000000000
     45441       366  PMPE      C12            51.2145050688       22.7665028267      -17.7463562517  MEMB      366             0.0000000000
     45442       366  PMPE      H12A           50.3131749454       23.0988770056      -17.1882770803  MEMB      366             0.0000000000
     45443       366  PMPE      H12B           51.0091107546       22.1995310225      -18.6794571193  MEMB      366             0.0000000000
     45444       366  PMPE      C11            52.1329239968       23.8850442237      -17.9746844144  MEMB      366             0.0000000000
     45445       366  PMPE      H11A           52.8846260180       24.0558669368      -17.1746315086  MEMB      366             0.0000000000
     45446       366  PMPE      H11B           51.5193666007       24.8043900764      -18.0872518236  MEMB      366             0.0000000000
     45447       366  PMPE      P              53.4314521730       24.9251929088      -20.0088150289  MEMB      366             0.0000000000
     45448       366  PMPE      O13            52.3632509249       25.8438145465      -20.3469690799  MEMB      366             0.0000000000
     45449       366  PMPE      O14            54.2553232214       24.4995194017      -21.1506729078  MEMB      366             0.0000000000
     45450       366  PMPE      O11            54.3324025055       25.5874281595      -18.8511180994  MEMB      366             0.0000000000
     45451       366  PMPE      O12            52.8843999604       23.6652511668      -19.2008008385  MEMB      366             0.0000000000
     45452       366  PMPE      C1             55.7582173975       25.4505110350      -18.7536620716  MEMB      366             0.0000000000
     45453       366  PMPE      HA             56.2303849177       26.3252632872      -19.2498344669  MEMB      366             0.0000000000
     45454       366  PMPE      HB             56.1642207197       24.6266582719      -19.3787613220  MEMB      366             0.0000000000
     45455       366  PMPE      C2             56.2647326192       25.4233066499      -17.2762806316  MEMB      366             0.0000000000
     45456       366  PMPE      HS             57.3596087868       25.2583380191      -17.3676732842  MEMB      366             0.0000000000
     45457       366  PMPE      O21            55.6392075608       24.4143347883      -16.4583483364  MEMB      366             0.0000000000
     45458       366  PMPE      C21            55.7854721691       23.1168363404      -16.8408020760  MEMB      366             0.0000000000
     45459       366  PMPE      O22            56.4608139837       22.6872840066      -17.7419455353  MEMB      366             0.0000000000
     45460       366  PMPE      C22            54.9456200816       22.2667340831      -15.8720113927  MEMB      366             0.0000000000
     45461       366  PMPE      H2R            54.6104368328       21.3580315701      -16.4162841577  MEMB      366             0.0000000000
     45462       366  PMPE      H2S            54.0907155021       22.9304907076      -15.6212395859  MEMB      366             0.0000000000
     45463       366  PMPE      C3             56.0781967783       26.8163266507      -16.5962060907  MEMB      366             0.0000000000
     45464       366  PMPE      HX             56.6002842554       27.5357542089      -17.2626666527  MEMB      366             0.0000000000
     45465       366  PMPE      HY             56.5662585452       26.7636127815      -15.5995426072  MEMB      366             0.0000000000
     45466       366  PMPE      O31            54.6790811944       27.2624144017      -16.4136320711  MEMB      366             0.0000000000
     45467       366  PMPE      C31            54.1630874731       27.1529441731      -15.2266921893  MEMB      366             0.0000000000
     45468       366  PMPE      O32            54.5650614276       26.6156460790      -14.2174820150  MEMB      366             0.0000000000
     45469       366  PMPE      C32            52.6874792711       27.6524801976      -15.2981327058  MEMB      366             0.0000000000
     45470       366  PMPE      H2X            52.2386557934       27.0354695123      -16.1057069887  MEMB      366             0.0000000000
     45471       366  PMPE      H2Y            52.6964250183       28.7338424731      -15.5528816758  MEMB      366             0.0000000000
     45472       366  PMPE      C23            55.8325573515       21.8423993416      -14.7123542679  MEMB      366             0.0000000000
     45473       366  PMPE      H3R            56.8902237943       21.7236538473      -15.0310427364  MEMB      366             0.0000000000
     45474       366  PMPE      H3S            55.5211399510       20.8894559026      -14.2335653912  MEMB      366             0.0000000000
     45475       366  PMPE      C24            55.8159475124       22.8322613161      -13.5775731202  MEMB      366             0.0000000000
     45476       366  PMPE      H4R            54.7535920548       23.0772550133      -13.3637978097  MEMB      366             0.0000000000
     45477       366  PMPE      H4S            56.4375979375       23.7291477532      -13.7860585881  MEMB      366             0.0000000000
     45478       366  PMPE      C25            56.6368655959       22.3660079358      -12.2889455426  MEMB      366             0.0000000000
     45479       366  PMPE      H5R            56.9168085770       23.1921670539      -11.6008947018  MEMB      366             0.0000000000
     45480       366  PMPE      H5S            57.6049170471       21.9694723790      -12.6630536983  MEMB      366             0.0000000000
     45481       366  PMPE      C26            55.9787047660       21.4445566913      -11.1925381630  MEMB      366             0.0000000000
     45482       366  PMPE      H6R            55.3227313643       20.6310175076      -11.5695971455  MEMB      366             0.0000000000
     45483       366  PMPE      H6S            55.4820545069       21.9840912410      -10.3579347568  MEMB      366             0.0000000000
     45484       366  PMPE      C27            57.0598889988       20.6588773930      -10.3918622992  MEMB      366             0.0000000000
     45485       366  PMPE      H7R            57.8212082925       21.4351936999      -10.1637245230  MEMB      366             0.0000000000
     45486       366  PMPE      H7S            57.4224565092       19.8891041229      -11.1062253193  MEMB      366             0.0000000000
     45487       366  PMPE      C28            56.6479771838       19.9554557768       -9.1061475120  MEMB      366             0.0000000000
     45488       366  PMPE      H8R            56.3248588594       20.7453252787       -8.3947959203  MEMB      366             0.0000000000
     45489       366  PMPE      H8S            57.4665584913       19.3798399975       -8.6235377027  MEMB      366             0.0000000000
     45490       366  PMPE      C29            55.5692924303       18.8859192283       -9.3117710391  MEMB      366             0.0000000000
     45491       366  PMPE      H9R            55.8975637541       18.0290424052       -9.9381261757  MEMB      366             0.0000000000
     45492       366  PMPE      C217           54.2101365394       19.4369999998       -9.5217859181  MEMB      366             0.0000000000
     45493       366  PMPE      H17R           53.7629886687       18.9134833689      -10.3577755397  MEMB      366             0.0000000000
     45494       366  PMPE      H17S           54.1270848800       20.4752814590       -9.2252001760  MEMB      366             0.0000000000
     45495       366  PMPE      C210           54.4545490772       18.5700385815       -8.3640417014  MEMB      366             0.0000000000
     45496       366  PMPE      H10R           54.1997550784       17.4887866605       -8.3812257764  MEMB      366             0.0000000000
     45497       366  PMPE      C211           54.3553976017       19.3367856868       -7.0023447497  MEMB      366             0.0000000000
     45498       366  PMPE      H11R           53.3064004416       19.3568419424       -6.6369352598  MEMB      366             0.0000000000
     45499       366  PMPE      H11S           54.6692768508       20.3905421354       -7.1617133027  MEMB      366             0.0000000000
     45500       366  PMPE      C212           55.3035028878       18.5872569733       -5.9567916719  MEMB      366             0.0000000000
     45501       366  PMPE      H12R           56.3282801934       18.9579847836       -6.1729240016  MEMB      366             0.0000000000
     45502       366  PMPE      H12S           55.2087034916       17.4860690189       -6.0695711398  MEMB      366             0.0000000000
     45503       366  PMPE      C213           54.8365906427       18.8259424117       -4.5025015661  MEMB      366             0.0000000000
     45504       366  PMPE      H13R           55.4328295878       18.2085828714       -3.7970315386  MEMB      366             0.0000000000
     45505       366  PMPE      H13S           53.7819103003       18.5174048499       -4.3388710738  MEMB      366             0.0000000000
     45506       366  PMPE      C214           55.0518590294       20.2448516775       -4.0248583976  MEMB      366             0.0000000000
     45507       366  PMPE      H14R           54.1170047039       20.8406955577       -3.9517942720  MEMB      366             0.0000000000
     45508       366  PMPE      H14S           55.7344027567       20.7318602122       -4.7537461097  MEMB      366             0.0000000000
     45509       366  PMPE      C215           55.7246969984       20.3604614558       -2.6800539427  MEMB      366             0.0000000000
     45510       366  PMPE      H15R           56.7367052671       19.9207877509       -2.8098530740  MEMB      366             0.0000000000
     45511       366  PMPE      H15S           55.1544845261       19.7779794012       -1.9251419824  MEMB      366             0.0000000000
     45512       366  PMPE      C216           55.6959289832       21.7234837861       -2.0133669183  MEMB      366             0.0000000000
     45513       366  PMPE      H16R           54.7152662394       22.2394500970       -1.9333652075  MEMB      366             0.0000000000
     45514       366  PMPE      H16S           56.0620296403       21.5058264502       -0.9872509733  MEMB      366             0.0000000000
     45515       366  PMPE      H16T           56.4644573880       22.3625049674       -2.4984833746  MEMB      366             0.0000000000
     45516       366  PMPE      C33            51.9201892297       27.5266013093      -13.9509379765  MEMB      366             0.0000000000
     45517       366  PMPE      H3X            51.1959255419       28.3688108637      -13.9298212508  MEMB      366             0.0000000000
     45518       366  PMPE      H3Y            52.5628673914       27.5965469800      -13.0473931452  MEMB      366             0.0000000000
     45519       366  PMPE      C34            51.1482203230       26.1925704988      -13.6220425071  MEMB      366             0.0000000000
     45520       366  PMPE      H4X            51.8033273384       25.4356143493      -14.1038858580  MEMB      366             0.0000000000
     45521       366  PMPE      H4Y            50.2091127719       26.1278881464      -14.2121392343  MEMB      366             0.0000000000
     45522       366  PMPE      C35            51.0613768169       25.8126933171      -12.1314528810  MEMB      366             0.0000000000
     45523       366  PMPE      H5X            50.7486719186       26.7195172625      -11.5709111419  MEMB      366             0.0000000000
     45524       366  PMPE      H5Y            52.0824820060       25.5049234504      -11.8200960378  MEMB      366             0.0000000000
     45525       366  PMPE      C36            49.9571453327       24.7959869819      -11.8182041949  MEMB      366             0.0000000000
     45526       366  PMPE      H6X            50.4283404179       23.9009762810      -12.2778259155  MEMB      366             0.0000000000
     45527       366  PMPE      H6Y            49.0105995075       24.9522038000      -12.3785331889  MEMB      366             0.0000000000
     45528       366  PMPE      C37            49.6808356873       24.3875636615      -10.4512483191  MEMB      366             0.0000000000
     45529       366  PMPE      H7X            48.8261267953       23.6836192962      -10.3603845125  MEMB      366             0.0000000000
     45530       366  PMPE      H7Y            49.2140658247       25.1492828508       -9.7907703879  MEMB      366             0.0000000000
     45531       366  PMPE      C38            50.8538988852       23.7778316321       -9.7564649544  MEMB      366             0.0000000000
     45532       366  PMPE      H8X            51.7169455173       24.4773720126       -9.7457557240  MEMB      366             0.0000000000
     45533       366  PMPE      H8Y            51.2015455449       22.8715735096      -10.2969826077  MEMB      366             0.0000000000
     45534       366  PMPE      C39            50.7765825083       23.3225905987       -8.2901451091  MEMB      366             0.0000000000
     45535       366  PMPE      H9X            51.7672312266       22.8880405107       -8.0369607035  MEMB      366             0.0000000000
     45536       366  PMPE      H9Y            50.0309285106       22.4991440384       -8.2741193093  MEMB      366             0.0000000000
     45537       366  PMPE      C310           50.5751512924       24.4978099441       -7.3028638233  MEMB      366             0.0000000000
     45538       366  PMPE      H10X           49.5536954412       24.8492984575       -7.5624885651  MEMB      366             0.0000000000
     45539       366  PMPE      H10Y           51.3241805345       25.3182535524       -7.3150500671  MEMB      366             0.0000000000
     45540       366  PMPE      C311           50.6267362950       23.9743350911       -5.8478547606  MEMB      366             0.0000000000
     45541       366  PMPE      H11X           51.5195122151       23.3132138373       -5.8616559452  MEMB      366             0.0000000000
     45542       366  PMPE      H11Y           49.6708616297       23.4092451588       -5.8118265585  MEMB      366             0.0000000000
     45543       366  PMPE      C312           50.6841900446       25.0297561080       -4.7265480280  MEMB      366             0.0000000000
     45544       366  PMPE      H12X           50.1301310427       24.5239869138       -3.9070736234  MEMB      366             0.0000000000
     45545       366  PMPE      H12Y           50.0607437058       25.8399887033       -5.1614723665  MEMB      366             0.0000000000
     45546       366  PMPE      C313           52.1495658712       25.4068305527       -4.3801817645  MEMB      366             0.0000000000
     45547       366  PMPE      H13X           52.5932106306       25.7054824166       -5.3539930389  MEMB      366             0.0000000000
     45548       366  PMPE      H13Y           52.7277127774       24.5255822436       -4.0288013115  MEMB      366             0.0000000000
     45549       366  PMPE      C314           52.2765467784       26.5751795455       -3.4125291800  MEMB      366             0.0000000000
     45550       366  PMPE      H14X           51.6273692580       27.4313743990       -3.6950548095  MEMB      366             0.0000000000
     45551       366  PMPE      H14Y           53.3476463219       26.8288400070       -3.2617872961  MEMB      366             0.0000000000
     45552       366  PMPE      C315           51.8361217337       25.9771023734       -1.9921519901  MEMB      366             0.0000000000
     45553       366  PMPE      H15X           50.7329256486       25.8479031400       -1.9679208272  MEMB      366             0.0000000000
     45554       366  PMPE      H15Y           52.0317837297       26.7798572937       -1.2494385807  MEMB      366             0.0000000000
     45555       366  PMPE      C316           52.4300755724       24.6233804271       -1.5435080921  MEMB      366             0.0000000000
     45556       366  PMPE      H16X           52.4009866269       24.4794999739       -0.4422483337  MEMB      366             0.0000000000
     45557       366  PMPE      H16Y           53.4867176440       24.6469500179       -1.8859595689  MEMB      366             0.0000000000
     45558       366  PMPE      H16Z           51.8295629093       23.8557171302       -2.0767989415  MEMB      366             0.0000000000
     45559       367  PMPE      N              18.9729748273       55.6075779853      -20.4072647069  MEMB      367             0.0000000000
     45560       367  PMPE      HN1            18.2639882227       55.5493821304      -19.6486138250  MEMB      367             0.0000000000
     45561       367  PMPE      HN2            19.7357468700       56.2449149710      -20.1013559651  MEMB      367             0.0000000000
     45562       367  PMPE      HN3            18.4209982130       56.0506631984      -21.1692341339  MEMB      367             0.0000000000
     45563       367  PMPE      C12            19.3547171831       54.2233744821      -20.7791559019  MEMB      367             0.0000000000
     45564       367  PMPE      H12A           20.1240668817       54.3657977352      -21.5679128657  MEMB      367             0.0000000000
     45565       367  PMPE      H12B           18.4215027994       53.7307127966      -21.1265984280  MEMB      367             0.0000000000
     45566       367  PMPE      C11            20.0126699323       53.4430731444      -19.6272926475  MEMB      367             0.0000000000
     45567       367  PMPE      H11A           19.9839400727       52.3882308545      -19.9748602219  MEMB      367             0.0000000000
     45568       367  PMPE      H11B           19.4154991443       53.5346091149      -18.6949144159  MEMB      367             0.0000000000
     45569       367  PMPE      P              22.0221000392       54.5660116290      -18.2253032147  MEMB      367             0.0000000000
     45570       367  PMPE      O13            20.9365158851       55.2311929523      -17.5617397727  MEMB      367             0.0000000000
     45571       367  PMPE      O14            23.2687793297       55.2905380962      -18.6003578341  MEMB      367             0.0000000000
     45572       367  PMPE      O11            22.3196468423       53.2660974918      -17.2772046060  MEMB      367             0.0000000000
     45573       367  PMPE      O12            21.3676719696       53.8921925965      -19.5216813162  MEMB      367             0.0000000000
     45574       367  PMPE      C1             22.6067752543       52.0096997426      -17.7776730968  MEMB      367             0.0000000000
     45575       367  PMPE      HA             23.2202101558       52.0709224274      -18.7019405185  MEMB      367             0.0000000000
     45576       367  PMPE      HB             21.7006837950       51.4680505097      -18.1239898636  MEMB      367             0.0000000000
     45577       367  PMPE      C2             23.2770094088       51.1160630311      -16.7195879505  MEMB      367             0.0000000000
     45578       367  PMPE      HS             23.3030825344       50.0162077307      -16.8743747720  MEMB      367             0.0000000000
     45579       367  PMPE      O21            22.6740316289       51.2420146634      -15.4320968112  MEMB      367             0.0000000000
     45580       367  PMPE      C21            22.8852030328       50.3131398143      -14.4961251921  MEMB      367             0.0000000000
     45581       367  PMPE      O22            23.5749567134       49.2845028408      -14.6234608469  MEMB      367             0.0000000000
     45582       367  PMPE      C22            22.2654031417       50.7998082206      -13.1543699199  MEMB      367             0.0000000000
     45583       367  PMPE      H2R            21.4329773274       50.1569078372      -12.7965045026  MEMB      367             0.0000000000
     45584       367  PMPE      H2S            21.9899292018       51.8660587967      -13.3011502703  MEMB      367             0.0000000000
     45585       367  PMPE      C3             24.8039269236       51.5589309791      -16.6371165787  MEMB      367             0.0000000000
     45586       367  PMPE      HX             25.2281767411       51.4969191427      -17.6620493565  MEMB      367             0.0000000000
     45587       367  PMPE      HY             25.2698613752       50.7649885896      -16.0151183536  MEMB      367             0.0000000000
     45588       367  PMPE      O31            24.7944185116       52.9251598887      -16.1827569188  MEMB      367             0.0000000000
     45589       367  PMPE      C31            25.3415835023       53.2142878756      -14.9922147241  MEMB      367             0.0000000000
     45590       367  PMPE      O32            26.0180184135       52.4852578835      -14.3229634804  MEMB      367             0.0000000000
     45591       367  PMPE      C32            24.8566966283       54.5832385406      -14.5290168872  MEMB      367             0.0000000000
     45592       367  PMPE      H2X            24.1302081239       54.9362884038      -15.2918351495  MEMB      367             0.0000000000
     45593       367  PMPE      H2Y            25.7059014382       55.2948356080      -14.4465416455  MEMB      367             0.0000000000
     45594       367  PMPE      C23            23.3255089153       50.8617490337      -12.1121872813  MEMB      367             0.0000000000
     45595       367  PMPE      H3R            23.9524471626       51.7759451604      -12.0379242222  MEMB      367             0.0000000000
     45596       367  PMPE      H3S            24.0341423365       50.0062148677      -12.0973167031  MEMB      367             0.0000000000
     45597       367  PMPE      C24            22.6640366534       50.7972190739      -10.6934300039  MEMB      367             0.0000000000
     45598       367  PMPE      H4R            23.5037505420       51.0084184568       -9.9973009084  MEMB      367             0.0000000000
     45599       367  PMPE      H4S            22.3951579835       49.7360092192      -10.5040643584  MEMB      367             0.0000000000
     45600       367  PMPE      C25            21.5016570628       51.7463404393      -10.4366864480  MEMB      367             0.0000000000
     45601       367  PMPE      H5R            20.6255994318       51.4635908539      -11.0586962586  MEMB      367             0.0000000000
     45602       367  PMPE      H5S            21.8700749309       52.7537594972      -10.7259882532  MEMB      367             0.0000000000
     45603       367  PMPE      C26            21.2054135634       51.7487255640       -8.8403696650  MEMB      367             0.0000000000
     45604       367  PMPE      H6R            20.6546787002       52.6661967028       -8.5416077258  MEMB      367             0.0000000000
     45605       367  PMPE      H6S            22.2202987602       51.7408787673       -8.3884099493  MEMB      367             0.0000000000
     45606       367  PMPE      C27            20.5092998793       50.4191537249       -8.3482981586  MEMB      367             0.0000000000
     45607       367  PMPE      H7R            21.2238532401       49.5684866356       -8.3383038805  MEMB      367             0.0000000000
     45608       367  PMPE      H7S            19.6168756878       50.3082090115       -9.0006714528  MEMB      367             0.0000000000
     45609       367  PMPE      C28            19.9817616014       50.4610922357       -6.8678438239  MEMB      367             0.0000000000
     45610       367  PMPE      H8R            19.3722715095       49.5748716950       -6.5895347269  MEMB      367             0.0000000000
     45611       367  PMPE      H8S            19.2877584766       51.3285693948       -6.8806631840  MEMB      367             0.0000000000
     45612       367  PMPE      C29            21.1564453407       50.6150318226       -5.9253583386  MEMB      367             0.0000000000
     45613       367  PMPE      H9R            21.9377058652       51.3616836640       -6.1831644827  MEMB      367             0.0000000000
     45614       367  PMPE      C217           21.7130506400       49.3622935870       -5.2614489168  MEMB      367             0.0000000000
     45615       367  PMPE      H17R           22.7890120856       49.3447467777       -5.1394323468  MEMB      367             0.0000000000
     45616       367  PMPE      H17S           20.9863679478       48.5600018597       -5.2275474272  MEMB      367             0.0000000000
     45617       367  PMPE      C210           21.0777907421       50.4845293197       -4.3955046147  MEMB      367             0.0000000000
     45618       367  PMPE      H10R           21.8751893638       51.0089739977       -3.8267921852  MEMB      367             0.0000000000
     45619       367  PMPE      C211           19.7406258157       50.1654001511       -3.6609316584  MEMB      367             0.0000000000
     45620       367  PMPE      H11R           19.9908332201       49.6183740425       -2.7268656037  MEMB      367             0.0000000000
     45621       367  PMPE      H11S           19.1092184561       49.5942845022       -4.3747050759  MEMB      367             0.0000000000
     45622       367  PMPE      C212           18.9926370658       51.4774720847       -3.4360658077  MEMB      367             0.0000000000
     45623       367  PMPE      H12R           18.7631244955       51.9893732412       -4.3950254940  MEMB      367             0.0000000000
     45624       367  PMPE      H12S           19.6601083094       52.2024849365       -2.9230752517  MEMB      367             0.0000000000
     45625       367  PMPE      C213           17.6400640172       51.4196503603       -2.6662657600  MEMB      367             0.0000000000
     45626       367  PMPE      H13R           16.7522566534       51.0390073799       -3.2151092783  MEMB      367             0.0000000000
     45627       367  PMPE      H13S           17.5245640638       52.4976715420       -2.4236731669  MEMB      367             0.0000000000
     45628       367  PMPE      C214           17.7164324485       50.6163551491       -1.3380136764  MEMB      367             0.0000000000
     45629       367  PMPE      H14R           18.2799248932       51.1592986029       -0.5493368882  MEMB      367             0.0000000000
     45630       367  PMPE      H14S           18.1909289885       49.6478509702       -1.6047978682  MEMB      367             0.0000000000
     45631       367  PMPE      C215           16.2880935464       50.3506661245       -0.8478482683  MEMB      367             0.0000000000
     45632       367  PMPE      H15R           16.4302602347       49.7594042521        0.0819456281  MEMB      367             0.0000000000
     45633       367  PMPE      H15S           15.7718002785       49.8229826393       -1.6780967596  MEMB      367             0.0000000000
     45634       367  PMPE      C216           15.3534259650       51.4815660358       -0.4102494297  MEMB      367             0.0000000000
     45635       367  PMPE      H16R           14.2946945549       51.1469719035       -0.3720970801  MEMB      367             0.0000000000
     45636       367  PMPE      H16S           15.6860447709       51.8776721922        0.5730026350  MEMB      367             0.0000000000
     45637       367  PMPE      H16T           15.3123983881       52.1842070629       -1.2698617829  MEMB      367             0.0000000000
     45638       367  PMPE      C33            24.1756843149       54.5029293082      -13.1921099326  MEMB      367             0.0000000000
     45639       367  PMPE      H3X            24.8521456987       54.1620219067      -12.3793960292  MEMB      367             0.0000000000
     45640       367  PMPE      H3Y            23.3305562093       53.7817704657      -13.1951743304  MEMB      367             0.0000000000
     45641       367  PMPE      C34            23.7053663683       55.9048878927      -12.6857255771  MEMB      367             0.0000000000
     45642       367  PMPE      H4X            23.0818604261       56.2805692104      -13.5250256461  MEMB      367             0.0000000000
     45643       367  PMPE      H4Y            24.5292470010       56.6179439564      -12.4687162676  MEMB      367             0.0000000000
     45644       367  PMPE      C35            22.8268459062       55.9458944762      -11.4760976331  MEMB      367             0.0000000000
     45645       367  PMPE      H5X            22.0270462735       55.1757076947      -11.5142273729  MEMB      367             0.0000000000
     45646       367  PMPE      H5Y            22.3923076910       56.9622027725      -11.3637814174  MEMB      367             0.0000000000
     45647       367  PMPE      C36            23.6704559450       55.8646038522      -10.1563131078  MEMB      367             0.0000000000
     45648       367  PMPE      H6X            24.3878250939       56.7030134615      -10.2858174291  MEMB      367             0.0000000000
     45649       367  PMPE      H6Y            24.2979593102       54.9497923496      -10.0956467158  MEMB      367             0.0000000000
     45650       367  PMPE      C37            22.8003472708       55.8394339567       -8.8149232473  MEMB      367             0.0000000000
     45651       367  PMPE      H7X            22.1045237546       54.9738987621       -8.8465394939  MEMB      367             0.0000000000
     45652       367  PMPE      H7Y            22.2571477648       56.7946498491       -8.9786842686  MEMB      367             0.0000000000
     45653       367  PMPE      C38            23.6924793524       55.7138018885       -7.5260095139  MEMB      367             0.0000000000
     45654       367  PMPE      H8X            24.2211114292       56.6849300565       -7.4174782265  MEMB      367             0.0000000000
     45655       367  PMPE      H8Y            24.3928810154       54.8543723252       -7.5977013440  MEMB      367             0.0000000000
     45656       367  PMPE      C39            22.8304565558       55.6341403390       -6.2750767906  MEMB      367             0.0000000000
     45657       367  PMPE      H9X            22.2271886541       54.7017533846       -6.2427744621  MEMB      367             0.0000000000
     45658       367  PMPE      H9Y            22.1573400826       56.5159200019       -6.3359030161  MEMB      367             0.0000000000
     45659       367  PMPE      C310           23.6608372225       55.6259431140       -4.9696581922  MEMB      367             0.0000000000
     45660       367  PMPE      H10X           24.2769419864       56.5451951456       -4.8711120472  MEMB      367             0.0000000000
     45661       367  PMPE      H10Y           24.3122506429       54.7283009546       -5.0346187095  MEMB      367             0.0000000000
     45662       367  PMPE      C311           22.8395794637       55.6994815866       -3.6648351037  MEMB      367             0.0000000000
     45663       367  PMPE      H11X           22.3497917819       56.6966668082       -3.6577052112  MEMB      367             0.0000000000
     45664       367  PMPE      H11Y           23.5288277022       55.7753390438       -2.7967897669  MEMB      367             0.0000000000
     45665       367  PMPE      C312           21.8532235967       54.5756261449       -3.4586388429  MEMB      367             0.0000000000
     45666       367  PMPE      H12X           22.4340457647       53.6496521826       -3.6574819435  MEMB      367             0.0000000000
     45667       367  PMPE      H12Y           21.0040836367       54.4721625332       -4.1675655872  MEMB      367             0.0000000000
     45668       367  PMPE      C313           21.2461806996       54.5011968908       -2.0343648247  MEMB      367             0.0000000000
     45669       367  PMPE      H13X           21.8539266113       53.9240620174       -1.3050630793  MEMB      367             0.0000000000
     45670       367  PMPE      H13Y           20.2718790431       53.9688230510       -2.0748052945  MEMB      367             0.0000000000
     45671       367  PMPE      C314           20.8928809482       55.8544026691       -1.5062872211  MEMB      367             0.0000000000
     45672       367  PMPE      H14X           20.3136234723       56.3116173121       -2.3367913775  MEMB      367             0.0000000000
     45673       367  PMPE      H14Y           21.8520541463       56.3960730279       -1.3617160361  MEMB      367             0.0000000000
     45674       367  PMPE      C315           20.0744364353       55.7435792884       -0.1291080340  MEMB      367             0.0000000000
     45675       367  PMPE      H15X           19.1056138914       55.2078461170       -0.2223505429  MEMB      367             0.0000000000
     45676       367  PMPE      H15Y           19.6671532873       56.7460472671        0.1228818430  MEMB      367             0.0000000000
     45677       367  PMPE      C316           20.6699049770       55.2664731363        1.1499540564  MEMB      367             0.0000000000
     45678       367  PMPE      H16X           21.5828613792       55.8652487560        1.3556214719  MEMB      367             0.0000000000
     45679       367  PMPE      H16Y           20.8678132836       54.1753815063        1.0816006619  MEMB      367             0.0000000000
     45680       367  PMPE      H16Z           20.1073046196       55.4783878290        2.0842416171  MEMB      367             0.0000000000
     45681       368  POPE      N              48.9079961894      -26.4946830812      -20.6888318121  MEMB      368             0.0000000000
     45682       368  POPE      HN1            47.9761973140      -26.5388514040      -20.2290494041  MEMB      368             0.0000000000
     45683       368  POPE      HN2            49.5734672011      -26.0076217491      -20.0551760410  MEMB      368             0.0000000000
     45684       368  POPE      HN3            48.8234594434      -26.0016305039      -21.6006172654  MEMB      368             0.0000000000
     45685       368  POPE      C12            49.6344213374      -27.7938701122      -20.9694790322  MEMB      368             0.0000000000
     45686       368  POPE      H12A           50.1144160449      -27.6616667947      -21.9626801135  MEMB      368             0.0000000000
     45687       368  POPE      H12B           48.8703810955      -28.5976496561      -21.0365775306  MEMB      368             0.0000000000
     45688       368  POPE      C11            50.6931220421      -28.1000164776      -19.8818432243  MEMB      368             0.0000000000
     45689       368  POPE      H11A           51.6559656778      -28.3293393328      -20.3864857785  MEMB      368             0.0000000000
     45690       368  POPE      H11B           50.3943209620      -29.0390591608      -19.3687760418  MEMB      368             0.0000000000
     45691       368  POPE      P              52.1449623302      -26.8336484434      -18.0989824711  MEMB      368             0.0000000000
     45692       368  POPE      O13            53.3146400183      -26.2457148017      -18.7729218584  MEMB      368             0.0000000000
     45693       368  POPE      O14            52.3353724704      -28.1845834353      -17.4468886620  MEMB      368             0.0000000000
     45694       368  POPE      O11            51.6625037877      -25.7756125397      -17.0437314254  MEMB      368             0.0000000000
     45695       368  POPE      O12            50.9018079493      -26.9328745838      -19.0973215143  MEMB      368             0.0000000000
     45696       368  POPE      C1             51.0625184735      -24.5359914429      -17.4065689430  MEMB      368             0.0000000000
     45697       368  POPE      HA             50.7373728705      -24.5603205165      -18.4686468018  MEMB      368             0.0000000000
     45698       368  POPE      HB             51.7920797404      -23.7348721511      -17.1610707937  MEMB      368             0.0000000000
     45699       368  POPE      C2             49.7813919570      -24.2547429000      -16.5126250954  MEMB      368             0.0000000000
     45700       368  POPE      HS             49.5106697346      -23.1883733868      -16.6671793274  MEMB      368             0.0000000000
     45701       368  POPE      O21            50.0504856835      -24.7048939987      -15.1867670858  MEMB      368             0.0000000000
     45702       368  POPE      C21            50.5518312305      -23.7760543178      -14.4190096568  MEMB      368             0.0000000000
     45703       368  POPE      O22            51.0583372590      -22.7272113074      -14.8065684554  MEMB      368             0.0000000000
     45704       368  POPE      C22            50.3301052455      -24.0882288029      -12.9873786786  MEMB      368             0.0000000000
     45705       368  POPE      H2R            50.8932996311      -25.0438212066      -12.9243222501  MEMB      368             0.0000000000
     45706       368  POPE      H2S            49.2474747618      -24.3252628809      -12.9096162683  MEMB      368             0.0000000000
     45707       368  POPE      C3             48.5499002896      -25.0994915702      -17.0857642338  MEMB      368             0.0000000000
     45708       368  POPE      HX             48.4368745514      -24.6439713957      -18.0927635281  MEMB      368             0.0000000000
     45709       368  POPE      HY             47.6330225482      -24.7191672791      -16.5867552856  MEMB      368             0.0000000000
     45710       368  POPE      O31            48.7601497980      -26.5076900763      -17.0990450260  MEMB      368             0.0000000000
     45711       368  POPE      C31            47.8283106658      -27.2664285349      -16.6982418856  MEMB      368             0.0000000000
     45712       368  POPE      O32            46.6375646667      -26.9346879107      -16.4205954995  MEMB      368             0.0000000000
     45713       368  POPE      C32            48.2441274600      -28.7109376011      -16.6217785859  MEMB      368             0.0000000000
     45714       368  POPE      H2X            48.9870608903      -29.0149620750      -17.3898540963  MEMB      368             0.0000000000
     45715       368  POPE      H2Y            47.2728107119      -29.2369082192      -16.7410239799  MEMB      368             0.0000000000
     45716       368  POPE      C23            50.8626777607      -22.9684774499      -12.1187361643  MEMB      368             0.0000000000
     45717       368  POPE      H3R            50.6075738150      -21.9590324052      -12.5063748604  MEMB      368             0.0000000000
     45718       368  POPE      H3S            51.9701030935      -23.0353379778      -12.1775566962  MEMB      368             0.0000000000
     45719       368  POPE      C24            50.4195188393      -23.0029500906      -10.6280891750  MEMB      368             0.0000000000
     45720       368  POPE      H4R            50.7419948480      -23.9611367616      -10.1674286572  MEMB      368             0.0000000000
     45721       368  POPE      H4S            49.3184744366      -22.8966896582      -10.5244982429  MEMB      368             0.0000000000
     45722       368  POPE      C25            51.0180725868      -21.7796094066       -9.7385391598  MEMB      368             0.0000000000
     45723       368  POPE      H5R            50.6885220331      -20.8044973765      -10.1567184386  MEMB      368             0.0000000000
     45724       368  POPE      H5S            52.1225431826      -21.8754191704       -9.8112479393  MEMB      368             0.0000000000
     45725       368  POPE      C26            50.7992037703      -21.8472553543       -8.2524146026  MEMB      368             0.0000000000
     45726       368  POPE      H6R            51.3278933747      -20.9589797971       -7.8452597886  MEMB      368             0.0000000000
     45727       368  POPE      H6S            51.3434942561      -22.7234142053       -7.8396015182  MEMB      368             0.0000000000
     45728       368  POPE      C27            49.2935478842      -21.7669062718       -7.7593404350  MEMB      368             0.0000000000
     45729       368  POPE      H7R            48.8756304951      -22.7035371910       -8.1864102718  MEMB      368             0.0000000000
     45730       368  POPE      H7S            48.7658852546      -20.9673646042       -8.3220360454  MEMB      368             0.0000000000
     45731       368  POPE      C28            49.1186069928      -21.6231302033       -6.3201751857  MEMB      368             0.0000000000
     45732       368  POPE      H8R            48.3868205354      -20.7989774349       -6.1802392169  MEMB      368             0.0000000000
     45733       368  POPE      H8S            50.1207489032      -21.3908548585       -5.9005554482  MEMB      368             0.0000000000
     45734       368  POPE      C29            48.4583903708      -22.7239073287       -5.6138510564  MEMB      368             0.0000000000
     45735       368  POPE      H91            47.3907939275      -22.5869091340       -5.3869832884  MEMB      368             0.0000000000
     45736       368  POPE      C210           49.0205737978      -23.9245152323       -5.1846992575  MEMB      368             0.0000000000
     45737       368  POPE      H101           48.3911189119      -24.7588699982       -4.8417141697  MEMB      368             0.0000000000
     45738       368  POPE      C211           50.5051719285      -24.3231389477       -5.3427735282  MEMB      368             0.0000000000
     45739       368  POPE      H11R           51.1365268768      -23.5774337514       -5.8715794479  MEMB      368             0.0000000000
     45740       368  POPE      H11S           50.6258448189      -25.2153563719       -5.9937013471  MEMB      368             0.0000000000
     45741       368  POPE      C212           51.1259660930      -24.4270675653       -4.0196623012  MEMB      368             0.0000000000
     45742       368  POPE      H12R           50.6069679519      -25.0741886010       -3.2806113046  MEMB      368             0.0000000000
     45743       368  POPE      H12S           51.0881493060      -23.4430874674       -3.5051968644  MEMB      368             0.0000000000
     45744       368  POPE      C213           52.6054452862      -24.8765141078       -4.0697352507  MEMB      368             0.0000000000
     45745       368  POPE      H13R           53.2116476175      -24.2054523077       -4.7151157050  MEMB      368             0.0000000000
     45746       368  POPE      H13S           52.6271141373      -25.8884870290       -4.5277340471  MEMB      368             0.0000000000
     45747       368  POPE      C214           53.2441151027      -24.7815763857       -2.6940424764  MEMB      368             0.0000000000
     45748       368  POPE      H14R           52.9319538520      -25.5013527048       -1.9074050010  MEMB      368             0.0000000000
     45749       368  POPE      H14S           52.9686691344      -23.7825677920       -2.2935006394  MEMB      368             0.0000000000
     45750       368  POPE      C215           54.7799657124      -24.7139053263       -2.7193356947  MEMB      368             0.0000000000
     45751       368  POPE      H15R           55.0960750069      -24.6377067052       -1.6569856197  MEMB      368             0.0000000000
     45752       368  POPE      H15S           55.0782941060      -23.8154083910       -3.3007345503  MEMB      368             0.0000000000
     45753       368  POPE      C216           55.4593745978      -25.8623740091       -3.4207519097  MEMB      368             0.0000000000
     45754       368  POPE      H16R           56.5445819952      -25.6652282338       -3.5540906877  MEMB      368             0.0000000000
     45755       368  POPE      H16S           55.1170561084      -25.9158187036       -4.4763479237  MEMB      368             0.0000000000
     45756       368  POPE      C217           55.2016065122      -27.2906691983       -2.9167546859  MEMB      368             0.0000000000
     45757       368  POPE      H17R           55.5125541408      -27.9408721822       -3.7622545628  MEMB      368             0.0000000000
     45758       368  POPE      H17S           54.1055762448      -27.3912119345       -2.7653288305  MEMB      368             0.0000000000
     45759       368  POPE      C218           55.8991567668      -27.6308168679       -1.5818873950  MEMB      368             0.0000000000
     45760       368  POPE      H18R           55.3335083147      -27.1221447287       -0.7721862201  MEMB      368             0.0000000000
     45761       368  POPE      H18S           56.9257137410      -27.2198313255       -1.6895555043  MEMB      368             0.0000000000
     45762       368  POPE      H18T           56.0013442817      -28.6954551966       -1.2811821201  MEMB      368             0.0000000000
     45763       368  POPE      C33            48.8454133325      -29.0841457357      -15.3057285148  MEMB      368             0.0000000000
     45764       368  POPE      H3X            48.9610814507      -30.1868230197      -15.2347031958  MEMB      368             0.0000000000
     45765       368  POPE      H3Y            48.1193146748      -28.9192507021      -14.4811610072  MEMB      368             0.0000000000
     45766       368  POPE      C34            50.2721863482      -28.5810152151      -15.0343587749  MEMB      368             0.0000000000
     45767       368  POPE      H4X            50.3158341490      -27.4947888346      -15.2635488857  MEMB      368             0.0000000000
     45768       368  POPE      H4Y            50.9032802632      -29.1720068465      -15.7320480875  MEMB      368             0.0000000000
     45769       368  POPE      C35            50.6420495829      -28.6747244340      -13.5287276209  MEMB      368             0.0000000000
     45770       368  POPE      H5X            51.7486625439      -28.6263431948      -13.4427747909  MEMB      368             0.0000000000
     45771       368  POPE      H5Y            50.2280784009      -29.6741322845      -13.2754825419  MEMB      368             0.0000000000
     45772       368  POPE      C36            49.9496104146      -27.6289080722      -12.6276557914  MEMB      368             0.0000000000
     45773       368  POPE      H6X            49.3302725540      -26.9730097899      -13.2761454617  MEMB      368             0.0000000000
     45774       368  POPE      H6Y            50.7903741126      -27.0076144659      -12.2515818412  MEMB      368             0.0000000000
     45775       368  POPE      C37            49.1333915881      -28.1856369861      -11.4292791366  MEMB      368             0.0000000000
     45776       368  POPE      H7X            48.4456701439      -28.9617370320      -11.8280630165  MEMB      368             0.0000000000
     45777       368  POPE      H7Y            48.4243405878      -27.4542198415      -10.9858870290  MEMB      368             0.0000000000
     45778       368  POPE      C38            49.9043880016      -28.7136253802      -10.2463318024  MEMB      368             0.0000000000
     45779       368  POPE      H8X            50.7039111389      -27.9761409645      -10.0200570687  MEMB      368             0.0000000000
     45780       368  POPE      H8Y            50.5099305363      -29.6092303459      -10.5023229996  MEMB      368             0.0000000000
     45781       368  POPE      C39            49.0844052416      -28.9711814755       -8.9648102246  MEMB      368             0.0000000000
     45782       368  POPE      H9X            48.5334109882      -29.9003096821       -9.2245153422  MEMB      368             0.0000000000
     45783       368  POPE      H9Y            48.3884130031      -28.1198096914       -8.8064377481  MEMB      368             0.0000000000
     45784       368  POPE      C310           49.8041298804      -29.0225963050       -7.6305887149  MEMB      368             0.0000000000
     45785       368  POPE      H10X           48.9977063899      -29.3541343562       -6.9420505245  MEMB      368             0.0000000000
     45786       368  POPE      H10Y           50.2295020053      -27.9999158578       -7.5439630709  MEMB      368             0.0000000000
     45787       368  POPE      C311           51.0184880004      -29.9526100978       -7.5449566035  MEMB      368             0.0000000000
     45788       368  POPE      H11X           51.7158446079      -29.4926755304       -8.2774007585  MEMB      368             0.0000000000
     45789       368  POPE      H11Y           50.6424244178      -30.9499598287       -7.8583104789  MEMB      368             0.0000000000
     45790       368  POPE      C312           51.6468176576      -29.9968610775       -6.0774975156  MEMB      368             0.0000000000
     45791       368  POPE      H12X           52.1276526990      -29.0172689696       -5.8688881601  MEMB      368             0.0000000000
     45792       368  POPE      H12Y           52.5517380246      -30.6411595825       -6.0953870878  MEMB      368             0.0000000000
     45793       368  POPE      C313           50.7540269589      -30.5107968759       -4.9882934896  MEMB      368             0.0000000000
     45794       368  POPE      H13X           50.4345952862      -31.5679362314       -5.1097031461  MEMB      368             0.0000000000
     45795       368  POPE      H13Y           49.8543431488      -29.8632962144       -5.0633495940  MEMB      368             0.0000000000
     45796       368  POPE      C314           51.4494900306      -30.4464302280       -3.5634779156  MEMB      368             0.0000000000
     45797       368  POPE      H14X           52.3839051238      -31.0431836491       -3.4922407230  MEMB      368             0.0000000000
     45798       368  POPE      H14Y           50.7331500770      -30.8763534822       -2.8311231242  MEMB      368             0.0000000000
     45799       368  POPE      C315           51.6788245684      -29.0473996123       -3.0522683913  MEMB      368             0.0000000000
     45800       368  POPE      H15X           50.7289680790      -28.4774028873       -3.1371078772  MEMB      368             0.0000000000
     45801       368  POPE      H15Y           52.4248401772      -28.5019967535       -3.6689670651  MEMB      368             0.0000000000
     45802       368  POPE      C316           52.0736992879      -29.0802772559       -1.6060881408  MEMB      368             0.0000000000
     45803       368  POPE      H16X           51.3834542668      -29.7017783687       -0.9964838020  MEMB      368             0.0000000000
     45804       368  POPE      H16Y           52.0857814087      -28.0564076906       -1.1749677778  MEMB      368             0.0000000000
     45805       368  POPE      H16Z           53.0962152437      -29.4646070838       -1.4034254157  MEMB      368             0.0000000000
     45806       369  PMPE      N              55.8621715501      -23.2143700277      -19.8028857092  MEMB      369             0.0000000000
     45807       369  PMPE      HN1            55.7003558260      -24.1687391020      -20.1831426650  MEMB      369             0.0000000000
     45808       369  PMPE      HN2            55.5506711023      -22.5164201597      -20.5081752666  MEMB      369             0.0000000000
     45809       369  PMPE      HN3            56.8504145168      -23.0118609162      -19.5499708670  MEMB      369             0.0000000000
     45810       369  PMPE      C12            54.9942069346      -23.1652387430      -18.5777183526  MEMB      369             0.0000000000
     45811       369  PMPE      H12A           55.4084658775      -23.8902090225      -17.8448276745  MEMB      369             0.0000000000
     45812       369  PMPE      H12B           53.9621449290      -23.3734097865      -18.9324490137  MEMB      369             0.0000000000
     45813       369  PMPE      C11            55.1636771061      -21.7768213612      -17.9687918894  MEMB      369             0.0000000000
     45814       369  PMPE      H11A           56.2369302454      -21.5135423907      -17.8541935096  MEMB      369             0.0000000000
     45815       369  PMPE      H11B           54.8942623599      -21.8497724513      -16.8934247202  MEMB      369             0.0000000000
     45816       369  PMPE      P              54.8983523562      -19.6090645340      -19.2194725424  MEMB      369             0.0000000000
     45817       369  PMPE      O13            53.8033950443      -18.5912424041      -19.3617733750  MEMB      369             0.0000000000
     45818       369  PMPE      O14            55.7389757288      -19.9059449827      -20.4060732954  MEMB      369             0.0000000000
     45819       369  PMPE      O11            55.8788905478      -19.1017230954      -18.0207486217  MEMB      369             0.0000000000
     45820       369  PMPE      O12            54.2939403595      -20.8917212706      -18.6425362141  MEMB      369             0.0000000000
     45821       369  PMPE      C1             55.1969491653      -18.5122694586      -16.8722100039  MEMB      369             0.0000000000
     45822       369  PMPE      HA             54.5335328162      -19.2799344913      -16.4195622010  MEMB      369             0.0000000000
     45823       369  PMPE      HB             54.6316051794      -17.5652015322      -17.0055129141  MEMB      369             0.0000000000
     45824       369  PMPE      C2             56.2635465553      -18.2607669585      -15.7992856551  MEMB      369             0.0000000000
     45825       369  PMPE      HS             56.8543516400      -17.3639552576      -16.0838887662  MEMB      369             0.0000000000
     45826       369  PMPE      O21            57.2280376808      -19.3101573257      -15.8655073709  MEMB      369             0.0000000000
     45827       369  PMPE      C21            58.4408832996      -19.2160367021      -15.1750441596  MEMB      369             0.0000000000
     45828       369  PMPE      O22            58.8527973101      -18.1591956153      -14.6432755054  MEMB      369             0.0000000000
     45829       369  PMPE      C22            59.1776812820      -20.5067446296      -15.0835954023  MEMB      369             0.0000000000
     45830       369  PMPE      H2R            60.1427731021      -20.4024049949      -15.6239951828  MEMB      369             0.0000000000
     45831       369  PMPE      H2S            58.6124034827      -21.3165083214      -15.5925796566  MEMB      369             0.0000000000
     45832       369  PMPE      C3             55.7158296669      -18.0984071173      -14.3721856704  MEMB      369             0.0000000000
     45833       369  PMPE      HX             54.7430245659      -17.5627659869      -14.4047414328  MEMB      369             0.0000000000
     45834       369  PMPE      HY             56.4232252027      -17.5085703127      -13.7508926797  MEMB      369             0.0000000000
     45835       369  PMPE      O31            55.4589546056      -19.4083132078      -13.8144363771  MEMB      369             0.0000000000
     45836       369  PMPE      C31            55.5784019458      -19.4771212172      -12.5025009876  MEMB      369             0.0000000000
     45837       369  PMPE      O32            55.9811140963      -18.5250700619      -11.8250932955  MEMB      369             0.0000000000
     45838       369  PMPE      C32            55.0711544780      -20.8146097513      -11.9936213364  MEMB      369             0.0000000000
     45839       369  PMPE      H2X            55.9389322600      -21.4832404174      -11.8086461420  MEMB      369             0.0000000000
     45840       369  PMPE      H2Y            54.3680927533      -21.2962793393      -12.7063761654  MEMB      369             0.0000000000
     45841       369  PMPE      C23            59.4084262334      -20.9436591264      -13.5856361273  MEMB      369             0.0000000000
     45842       369  PMPE      H3R            58.3832112241      -20.8429618614      -13.1695642371  MEMB      369             0.0000000000
     45843       369  PMPE      H3S            60.1129155468      -20.3125146810      -13.0028218102  MEMB      369             0.0000000000
     45844       369  PMPE      C24            59.9674298962      -22.3488375309      -13.3480702553  MEMB      369             0.0000000000
     45845       369  PMPE      H4R            61.0277262624      -22.4642926402      -13.6591366297  MEMB      369             0.0000000000
     45846       369  PMPE      H4S            59.3255349042      -22.9010894424      -14.0673129022  MEMB      369             0.0000000000
     45847       369  PMPE      C25            59.6291123865      -22.9606953426      -11.9669048430  MEMB      369             0.0000000000
     45848       369  PMPE      H5R            60.1093052425      -23.9526141971      -11.8260737631  MEMB      369             0.0000000000
     45849       369  PMPE      H5S            58.5246319246      -23.0775784384      -11.9948699916  MEMB      369             0.0000000000
     45850       369  PMPE      C26            59.9958750885      -22.0444637764      -10.8345178234  MEMB      369             0.0000000000
     45851       369  PMPE      H6R            59.3171439522      -21.1758530239      -10.9729382783  MEMB      369             0.0000000000
     45852       369  PMPE      H6S            61.0209273828      -21.6618856905      -11.0274493299  MEMB      369             0.0000000000
     45853       369  PMPE      C27            59.9554297338      -22.6262837175       -9.3525105065  MEMB      369             0.0000000000
     45854       369  PMPE      H7R            60.6869192484      -23.4609767549       -9.4028217679  MEMB      369             0.0000000000
     45855       369  PMPE      H7S            58.9386910861      -23.0699543708       -9.2915216704  MEMB      369             0.0000000000
     45856       369  PMPE      C28            60.3297117562      -21.5395137528       -8.3765105829  MEMB      369             0.0000000000
     45857       369  PMPE      H8R            61.2313811072      -20.9978216052       -8.7341173445  MEMB      369             0.0000000000
     45858       369  PMPE      H8S            60.5496347572      -22.0240111811       -7.4012068211  MEMB      369             0.0000000000
     45859       369  PMPE      C29            59.0967756643      -20.6421153597       -8.1732086282  MEMB      369             0.0000000000
     45860       369  PMPE      H9R            58.6069205947      -20.3606094687       -9.1298270258  MEMB      369             0.0000000000
     45861       369  PMPE      C217           59.3691152718      -19.5037987958       -7.1606305236  MEMB      369             0.0000000000
     45862       369  PMPE      H17R           58.9270321326      -18.5710741387       -7.4884654825  MEMB      369             0.0000000000
     45863       369  PMPE      H17S           60.3498679848      -19.6673751883       -6.7313803781  MEMB      369             0.0000000000
     45864       369  PMPE      C210           58.3080280665      -20.5729400154       -6.8909459037  MEMB      369             0.0000000000
     45865       369  PMPE      H10R           57.2625539473      -20.2203457581       -7.0212617974  MEMB      369             0.0000000000
     45866       369  PMPE      C211           58.6061513696      -21.4215237705       -5.6829181507  MEMB      369             0.0000000000
     45867       369  PMPE      H11R           58.2197692457      -21.0451797517       -4.7116330356  MEMB      369             0.0000000000
     45868       369  PMPE      H11S           59.7008798661      -21.4542265623       -5.4963144445  MEMB      369             0.0000000000
     45869       369  PMPE      C212           58.0347965202      -22.8436859582       -5.8412018806  MEMB      369             0.0000000000
     45870       369  PMPE      H12R           58.6459489588      -23.4648968628       -6.5303393953  MEMB      369             0.0000000000
     45871       369  PMPE      H12S           57.0487102387      -22.7876973192       -6.3499460212  MEMB      369             0.0000000000
     45872       369  PMPE      C213           57.9899020729      -23.7054698085       -4.5790269988  MEMB      369             0.0000000000
     45873       369  PMPE      H13R           58.0729999921      -24.7770491412       -4.8603335240  MEMB      369             0.0000000000
     45874       369  PMPE      H13S           57.0743343947      -23.4812566562       -3.9909915444  MEMB      369             0.0000000000
     45875       369  PMPE      C214           59.0700974298      -23.4136793362       -3.5637532550  MEMB      369             0.0000000000
     45876       369  PMPE      H14R           59.0579009122      -22.3544564711       -3.2287616553  MEMB      369             0.0000000000
     45877       369  PMPE      H14S           59.9812329633      -23.7126767296       -4.1247818749  MEMB      369             0.0000000000
     45878       369  PMPE      C215           58.8497451647      -24.2704053184       -2.3433205937  MEMB      369             0.0000000000
     45879       369  PMPE      H15R           59.7714554203      -24.2469579264       -1.7234651292  MEMB      369             0.0000000000
     45880       369  PMPE      H15S           58.8634247638      -25.3083399052       -2.7393328009  MEMB      369             0.0000000000
     45881       369  PMPE      C216           57.5694173794      -24.2418747076       -1.5569464379  MEMB      369             0.0000000000
     45882       369  PMPE      H16R           57.2479534749      -23.3082346306       -1.0477336898  MEMB      369             0.0000000000
     45883       369  PMPE      H16S           56.6765879179      -24.5350998994       -2.1495650175  MEMB      369             0.0000000000
     45884       369  PMPE      H16T           57.7432623753      -25.0104193024       -0.7737232573  MEMB      369             0.0000000000
     45885       369  PMPE      C33            54.2424605714      -20.5042722702      -10.7485730015  MEMB      369             0.0000000000
     45886       369  PMPE      H3X            53.3859063458      -19.9025285897      -11.1207833477  MEMB      369             0.0000000000
     45887       369  PMPE      H3Y            54.9098192571      -19.9515587471      -10.0532590701  MEMB      369             0.0000000000
     45888       369  PMPE      C34            53.7190289292      -21.7428868474      -10.0532987400  MEMB      369             0.0000000000
     45889       369  PMPE      H4X            54.6222982180      -22.1994557559       -9.5950735030  MEMB      369             0.0000000000
     45890       369  PMPE      H4Y            53.2642555824      -22.4469412171      -10.7825518738  MEMB      369             0.0000000000
     45891       369  PMPE      C35            52.6933756636      -21.4515222059       -8.9685906025  MEMB      369             0.0000000000
     45892       369  PMPE      H5X            51.9389628863      -20.8186375898       -9.4830212348  MEMB      369             0.0000000000
     45893       369  PMPE      H5Y            53.0657524097      -20.7473447208       -8.1941290506  MEMB      369             0.0000000000
     45894       369  PMPE      C36            52.1088303909      -22.6973782721       -8.3223165079  MEMB      369             0.0000000000
     45895       369  PMPE      H6X            52.9582933809      -23.2747264805       -7.8987576749  MEMB      369             0.0000000000
     45896       369  PMPE      H6Y            51.5426055289      -23.2509424235       -9.1015970022  MEMB      369             0.0000000000
     45897       369  PMPE      C37            51.3042228490      -22.5472534501       -7.0438367031  MEMB      369             0.0000000000
     45898       369  PMPE      H7X            51.1298892310      -23.5215073150       -6.5391008792  MEMB      369             0.0000000000
     45899       369  PMPE      H7Y            50.2630038590      -22.2846366753       -7.3288230571  MEMB      369             0.0000000000
     45900       369  PMPE      C38            51.7458930403      -21.4389234749       -6.0674578077  MEMB      369             0.0000000000
     45901       369  PMPE      H8X            51.0857016019      -21.5162835054       -5.1772422216  MEMB      369             0.0000000000
     45902       369  PMPE      H8Y            51.6665697033      -20.4181021094       -6.4986800112  MEMB      369             0.0000000000
     45903       369  PMPE      C39            53.2087993927      -21.5329322067       -5.4741490012  MEMB      369             0.0000000000
     45904       369  PMPE      H9X            53.9246933282      -22.0569637030       -6.1428850919  MEMB      369             0.0000000000
     45905       369  PMPE      H9Y            53.0890815063      -22.1797541912       -4.5788224565  MEMB      369             0.0000000000
     45906       369  PMPE      C310           53.8151866602      -20.1725387400       -5.0013262221  MEMB      369             0.0000000000
     45907       369  PMPE      H10X           52.9870942011      -19.6084116679       -4.5213836001  MEMB      369             0.0000000000
     45908       369  PMPE      H10Y           54.2629684546      -19.6934481396       -5.8981456513  MEMB      369             0.0000000000
     45909       369  PMPE      C311           54.9751953651      -20.1915004551       -3.9770718562  MEMB      369             0.0000000000
     45910       369  PMPE      H11X           55.5396801264      -19.2367249136       -3.9131816709  MEMB      369             0.0000000000
     45911       369  PMPE      H11Y           55.8022028656      -20.8516678131       -4.3155370397  MEMB      369             0.0000000000
     45912       369  PMPE      C312           54.4382177694      -20.6662067866       -2.5978551632  MEMB      369             0.0000000000
     45913       369  PMPE      H12X           53.6714831889      -21.4701525275       -2.5873448355  MEMB      369             0.0000000000
     45914       369  PMPE      H12Y           53.8228319998      -19.7894710122       -2.3029723011  MEMB      369             0.0000000000
     45915       369  PMPE      C313           55.4869931760      -20.8487813772       -1.5490228019  MEMB      369             0.0000000000
     45916       369  PMPE      H13X           56.2337467952      -20.0264655364       -1.5708587856  MEMB      369             0.0000000000
     45917       369  PMPE      H13Y           56.0812125523      -21.7716574776       -1.7208480218  MEMB      369             0.0000000000
     45918       369  PMPE      C314           54.9314273046      -20.8724332274       -0.1215730106  MEMB      369             0.0000000000
     45919       369  PMPE      H14X           55.6952861623      -21.3259212705        0.5456520410  MEMB      369             0.0000000000
     45920       369  PMPE      H14Y           54.0514190428      -21.5399982098       -0.0021429921  MEMB      369             0.0000000000
     45921       369  PMPE      C315           54.5555472504      -19.4587002494        0.3466203189  MEMB      369             0.0000000000
     45922       369  PMPE      H15X           53.7388621048      -18.8493072198       -0.0960837695  MEMB      369             0.0000000000
     45923       369  PMPE      H15Y           55.4820479676      -18.8592912511        0.2176778383  MEMB      369             0.0000000000
     45924       369  PMPE      C316           54.5607968615      -19.4307333907        1.9221843418  MEMB      369             0.0000000000
     45925       369  PMPE      H16X           55.3808107968      -20.0746159090        2.3059984204  MEMB      369             0.0000000000
     45926       369  PMPE      H16Y           53.6002881579      -19.8684247633        2.2688402568  MEMB      369             0.0000000000
     45927       369  PMPE      H16Z           54.6373786837      -18.3623725451        2.2172465737  MEMB      369             0.0000000000
     45928       370  PMPE      N             -50.4224381543      -32.6069514658      -19.7950270344  MEMB      370             0.0000000000
     45929       370  PMPE      HN1           -49.9330411869      -31.7308907856      -20.0681726216  MEMB      370             0.0000000000
     45930       370  PMPE      HN2           -51.4136026070      -32.5338468227      -20.1013745706  MEMB      370             0.0000000000
     45931       370  PMPE      HN3           -50.3084936851      -32.8059239654      -18.7806175286  MEMB      370             0.0000000000
     45932       370  PMPE      C12           -49.8100937158      -33.7489555071      -20.6304925785  MEMB      370             0.0000000000
     45933       370  PMPE      H12A          -49.9500169414      -33.4316150267      -21.6859723408  MEMB      370             0.0000000000
     45934       370  PMPE      H12B          -50.5588338292      -34.5647939434      -20.5403986220  MEMB      370             0.0000000000
     45935       370  PMPE      C11           -48.3646123599      -34.0581053404      -20.1362359911  MEMB      370             0.0000000000
     45936       370  PMPE      H11A          -47.7268027008      -33.1539000577      -20.0365731586  MEMB      370             0.0000000000
     45937       370  PMPE      H11B          -47.9318652098      -34.6946100677      -20.9374305566  MEMB      370             0.0000000000
     45938       370  PMPE      P             -47.2638057903      -35.4052246377      -18.3387521786  MEMB      370             0.0000000000
     45939       370  PMPE      O13           -46.0089982479      -34.5702817565      -18.3410461523  MEMB      370             0.0000000000
     45940       370  PMPE      O14           -47.2123708224      -36.7394714111      -19.0442468155  MEMB      370             0.0000000000
     45941       370  PMPE      O11           -47.6108159346      -35.7523162685      -16.8406271426  MEMB      370             0.0000000000
     45942       370  PMPE      O12           -48.5005233746      -34.5390784123      -18.8735721102  MEMB      370             0.0000000000
     45943       370  PMPE      C1            -48.7800632266      -35.1837278016      -16.2239673236  MEMB      370             0.0000000000
     45944       370  PMPE      HA            -49.0443114254      -35.8317556156      -15.3610919781  MEMB      370             0.0000000000
     45945       370  PMPE      HB            -49.7330265898      -35.1579278424      -16.7945075013  MEMB      370             0.0000000000
     45946       370  PMPE      C2            -48.5411166804      -33.8334943040      -15.5977013203  MEMB      370             0.0000000000
     45947       370  PMPE      HS            -48.1095686059      -33.1760490973      -16.3824643530  MEMB      370             0.0000000000
     45948       370  PMPE      O21           -47.5049880776      -34.1119305620      -14.6407145528  MEMB      370             0.0000000000
     45949       370  PMPE      C21           -46.8777358596      -33.1188852653      -14.0059439944  MEMB      370             0.0000000000
     45950       370  PMPE      O22           -47.1433872114      -31.9416790418      -14.1418560910  MEMB      370             0.0000000000
     45951       370  PMPE      C22           -45.7908687912      -33.7827270939      -13.1682454605  MEMB      370             0.0000000000
     45952       370  PMPE      H2R           -45.0307897455      -34.1708672569      -13.8795459421  MEMB      370             0.0000000000
     45953       370  PMPE      H2S           -46.2177350109      -34.6872912074      -12.6846442597  MEMB      370             0.0000000000
     45954       370  PMPE      C3            -49.8503646402      -33.1952768589      -15.0047605099  MEMB      370             0.0000000000
     45955       370  PMPE      HX            -50.5503893890      -33.0000462438      -15.8451007046  MEMB      370             0.0000000000
     45956       370  PMPE      HY            -49.6027340164      -32.2033886598      -14.5698379619  MEMB      370             0.0000000000
     45957       370  PMPE      O31           -50.3956425600      -34.1624366131      -14.1165034046  MEMB      370             0.0000000000
     45958       370  PMPE      C31           -50.0762768117      -34.1025560601      -12.7758720935  MEMB      370             0.0000000000
     45959       370  PMPE      O32           -49.4645804293      -33.1498522840      -12.2558371804  MEMB      370             0.0000000000
     45960       370  PMPE      C32           -50.6458737731      -35.4146237451      -11.9863983972  MEMB      370             0.0000000000
     45961       370  PMPE      H2X           -50.3859845018      -36.3026935274      -12.6013055224  MEMB      370             0.0000000000
     45962       370  PMPE      H2Y           -51.7541463067      -35.3372335216      -11.9944064128  MEMB      370             0.0000000000
     45963       370  PMPE      C23           -45.2235935061      -32.7494656450      -12.1578930395  MEMB      370             0.0000000000
     45964       370  PMPE      H3R           -45.2378286557      -31.7908356945      -12.7192726840  MEMB      370             0.0000000000
     45965       370  PMPE      H3S           -44.1704755474      -32.9988350434      -11.9067382180  MEMB      370             0.0000000000
     45966       370  PMPE      C24           -46.0703947192      -32.7480355805      -10.9146355938  MEMB      370             0.0000000000
     45967       370  PMPE      H4R           -45.8295154007      -33.5785771278      -10.2171404102  MEMB      370             0.0000000000
     45968       370  PMPE      H4S           -47.0760848885      -32.9752127270      -11.3285183346  MEMB      370             0.0000000000
     45969       370  PMPE      C25           -46.1442146988      -31.4291784720      -10.2553893414  MEMB      370             0.0000000000
     45970       370  PMPE      H5R           -46.4065865781      -30.7464302103      -11.0916526600  MEMB      370             0.0000000000
     45971       370  PMPE      H5S           -45.1338825367      -31.2231428026       -9.8417473783  MEMB      370             0.0000000000
     45972       370  PMPE      C26           -47.2749194746      -31.3713100629       -9.1939115115  MEMB      370             0.0000000000
     45973       370  PMPE      H6R           -47.3183341973      -30.3059742681       -8.8816675106  MEMB      370             0.0000000000
     45974       370  PMPE      H6S           -47.0100819648      -31.9317823914       -8.2719285822  MEMB      370             0.0000000000
     45975       370  PMPE      C27           -48.6832693227      -31.6727062187       -9.7253093348  MEMB      370             0.0000000000
     45976       370  PMPE      H7R           -48.8078534396      -32.7747631923       -9.7906543813  MEMB      370             0.0000000000
     45977       370  PMPE      H7S           -48.7045120966      -31.2348785453      -10.7461799253  MEMB      370             0.0000000000
     45978       370  PMPE      C28           -49.8573616968      -31.0788362984       -8.8856996053  MEMB      370             0.0000000000
     45979       370  PMPE      H8R           -49.9001010481      -30.0864578959       -9.3833733856  MEMB      370             0.0000000000
     45980       370  PMPE      H8S           -49.4369867353      -30.8192354613       -7.8906050986  MEMB      370             0.0000000000
     45981       370  PMPE      C29           -51.1282379151      -31.7864574622       -9.1171980782  MEMB      370             0.0000000000
     45982       370  PMPE      H9R           -51.4999685168      -32.0295648553      -10.1355477110  MEMB      370             0.0000000000
     45983       370  PMPE      C217          -52.2078094210      -31.0654083727       -8.2530608413  MEMB      370             0.0000000000
     45984       370  PMPE      H17R          -53.1526216556      -30.9692630405       -8.7736139922  MEMB      370             0.0000000000
     45985       370  PMPE      H17S          -51.8252209915      -30.2563002268       -7.6432579591  MEMB      370             0.0000000000
     45986       370  PMPE      C210          -51.7491269938      -32.4966847810       -7.9113087414  MEMB      370             0.0000000000
     45987       370  PMPE      H10R          -52.4131926573      -33.3259701115       -8.2363062819  MEMB      370             0.0000000000
     45988       370  PMPE      C211          -51.0639001582      -32.7276068844       -6.5588400114  MEMB      370             0.0000000000
     45989       370  PMPE      H11R          -51.7167150171      -33.0342862550       -5.7137947429  MEMB      370             0.0000000000
     45990       370  PMPE      H11S          -50.7802721406      -31.6960211402       -6.2593298475  MEMB      370             0.0000000000
     45991       370  PMPE      C212          -49.7450087283      -33.5332473168       -6.5916812544  MEMB      370             0.0000000000
     45992       370  PMPE      H12R          -49.0765686128      -33.3010661545       -7.4481866573  MEMB      370             0.0000000000
     45993       370  PMPE      H12S          -49.9685122883      -34.6184002645       -6.6742060471  MEMB      370             0.0000000000
     45994       370  PMPE      C213          -48.8416634797      -33.3209811928       -5.3416308863  MEMB      370             0.0000000000
     45995       370  PMPE      H13R          -47.9666516802      -33.9764692672       -5.5391423744  MEMB      370             0.0000000000
     45996       370  PMPE      H13S          -49.2781378501      -33.8201200140       -4.4501877541  MEMB      370             0.0000000000
     45997       370  PMPE      C214          -48.3833162290      -31.8860978686       -5.0648397525  MEMB      370             0.0000000000
     45998       370  PMPE      H14R          -49.2383404450      -31.2264792412       -4.8037693944  MEMB      370             0.0000000000
     45999       370  PMPE      H14S          -47.8709060625      -31.5255604653       -5.9823199189  MEMB      370             0.0000000000
     46000       370  PMPE      C215          -47.4792536619      -31.6319514862       -3.8371299549  MEMB      370             0.0000000000
     46001       370  PMPE      H15R          -47.0822090455      -30.5945064591       -3.8567342316  MEMB      370             0.0000000000
     46002       370  PMPE      H15S          -46.5347594054      -32.1989635985       -3.9811747518  MEMB      370             0.0000000000
     46003       370  PMPE      C216          -48.0880269652      -31.9708860704       -2.4946071008  MEMB      370             0.0000000000
     46004       370  PMPE      H16R          -49.0024499057      -31.3442702782       -2.4204158598  MEMB      370             0.0000000000
     46005       370  PMPE      H16S          -48.2986597534      -33.0606023304       -2.4448739233  MEMB      370             0.0000000000
     46006       370  PMPE      H16T          -47.2709638569      -31.5634341110       -1.8615891254  MEMB      370             0.0000000000
     46007       370  PMPE      C33           -50.0588334106      -35.5346411033      -10.6263881878  MEMB      370             0.0000000000
     46008       370  PMPE      H3X           -50.3505123933      -34.7495004190       -9.8964571417  MEMB      370             0.0000000000
     46009       370  PMPE      H3Y           -48.9692564534      -35.3815823540      -10.7803879115  MEMB      370             0.0000000000
     46010       370  PMPE      C34           -50.4276445958      -36.9468918610      -10.0501089325  MEMB      370             0.0000000000
     46011       370  PMPE      H4X           -50.2881668102      -37.6687984058      -10.8830063598  MEMB      370             0.0000000000
     46012       370  PMPE      H4Y           -51.4681886346      -37.1731799446       -9.7332766208  MEMB      370             0.0000000000
     46013       370  PMPE      C35           -49.4541990983      -37.3161446601       -8.8849103532  MEMB      370             0.0000000000
     46014       370  PMPE      H5X           -49.8854063991      -38.2586692251       -8.4848739520  MEMB      370             0.0000000000
     46015       370  PMPE      H5Y           -49.7898784313      -36.6638197906       -8.0505757396  MEMB      370             0.0000000000
     46016       370  PMPE      C36           -47.9649863133      -37.3763809946       -9.2694969441  MEMB      370             0.0000000000
     46017       370  PMPE      H6X           -47.9690140551      -37.1316854587      -10.3532071425  MEMB      370             0.0000000000
     46018       370  PMPE      H6Y           -47.5968871568      -38.4214015406       -9.1873017127  MEMB      370             0.0000000000
     46019       370  PMPE      C37           -46.9711873305      -36.3194534303       -8.6165150444  MEMB      370             0.0000000000
     46020       370  PMPE      H7X           -47.5098255504      -35.3671927785       -8.8098783902  MEMB      370             0.0000000000
     46021       370  PMPE      H7Y           -46.0111124554      -36.3448865957       -9.1750226864  MEMB      370             0.0000000000
     46022       370  PMPE      C38           -46.8188268144      -36.5778889375       -7.0941780736  MEMB      370             0.0000000000
     46023       370  PMPE      H8X           -46.5453234828      -37.6318773377       -6.8736663367  MEMB      370             0.0000000000
     46024       370  PMPE      H8Y           -47.7231973491      -36.2752686573       -6.5242160343  MEMB      370             0.0000000000
     46025       370  PMPE      C39           -45.7031931777      -35.5652315848       -6.5464025758  MEMB      370             0.0000000000
     46026       370  PMPE      H9X           -46.0180363954      -34.5001625538       -6.5750832942  MEMB      370             0.0000000000
     46027       370  PMPE      H9Y           -44.8013835930      -35.6968854121       -7.1817978474  MEMB      370             0.0000000000
     46028       370  PMPE      C310          -45.4750240949      -35.7895457611       -5.0478533610  MEMB      370             0.0000000000
     46029       370  PMPE      H10X          -45.1984144945      -36.8090976262       -4.7038734194  MEMB      370             0.0000000000
     46030       370  PMPE      H10Y          -46.3620414618      -35.4362385786       -4.4797903414  MEMB      370             0.0000000000
     46031       370  PMPE      C311          -44.2652391602      -34.9324423858       -4.6414042873  MEMB      370             0.0000000000
     46032       370  PMPE      H11X          -44.4908598921      -33.8452220323       -4.6044174647  MEMB      370             0.0000000000
     46033       370  PMPE      H11Y          -43.6743528155      -35.0640168851       -5.5729953961  MEMB      370             0.0000000000
     46034       370  PMPE      C312          -43.5507523044      -35.4406096714       -3.3786308887  MEMB      370             0.0000000000
     46035       370  PMPE      H12X          -42.7084221815      -34.7308987930       -3.2333339707  MEMB      370             0.0000000000
     46036       370  PMPE      H12Y          -43.1101931220      -36.4365856025       -3.5983134021  MEMB      370             0.0000000000
     46037       370  PMPE      C313          -44.5080408008      -35.5357547388       -2.2291654390  MEMB      370             0.0000000000
     46038       370  PMPE      H13X          -44.0863948248      -36.0119691173       -1.3182565962  MEMB      370             0.0000000000
     46039       370  PMPE      H13Y          -45.4122239354      -36.0877777931       -2.5638956317  MEMB      370             0.0000000000
     46040       370  PMPE      C314          -44.9979768809      -34.1476751210       -1.7177551730  MEMB      370             0.0000000000
     46041       370  PMPE      H14X          -45.7512186886      -34.3217976778       -0.9198641464  MEMB      370             0.0000000000
     46042       370  PMPE      H14Y          -45.4563715733      -33.5983163198       -2.5676954015  MEMB      370             0.0000000000
     46043       370  PMPE      C315          -43.8820463386      -33.3191476187       -1.0550557874  MEMB      370             0.0000000000
     46044       370  PMPE      H15X          -43.2565405275      -32.9642585154       -1.9018833922  MEMB      370             0.0000000000
     46045       370  PMPE      H15Y          -43.2632249006      -33.9356631772       -0.3685516371  MEMB      370             0.0000000000
     46046       370  PMPE      C316          -44.4966789415      -32.1375716323       -0.3423774905  MEMB      370             0.0000000000
     46047       370  PMPE      H16X          -43.6996540135      -31.5109834397        0.1120021783  MEMB      370             0.0000000000
     46048       370  PMPE      H16Y          -45.0623877165      -32.5806159638        0.5049759128  MEMB      370             0.0000000000
     46049       370  PMPE      H16Z          -45.0514729510      -31.5939212233       -1.1367113488  MEMB      370             0.0000000000
     46050       371  POPE      N              47.0077193670      -39.0745509650      -18.3269645260  MEMB      371             0.0000000000
     46051       371  POPE      HN1            46.9569855893      -39.9807501622      -17.8191961378  MEMB      371             0.0000000000
     46052       371  POPE      HN2            46.3025438114      -39.0714492241      -19.0913712995  MEMB      371             0.0000000000
     46053       371  POPE      HN3            47.9050499088      -39.0158467621      -18.8494123575  MEMB      371             0.0000000000
     46054       371  POPE      C12            46.9169644782      -37.8340321058      -17.3782846826  MEMB      371             0.0000000000
     46055       371  POPE      H12A           47.8139205419      -37.8561893946      -16.7230748729  MEMB      371             0.0000000000
     46056       371  POPE      H12B           46.0209066221      -37.9300383672      -16.7285277717  MEMB      371             0.0000000000
     46057       371  POPE      C11            46.6212946614      -36.6219857784      -18.2665891897  MEMB      371             0.0000000000
     46058       371  POPE      H11A           46.3831016042      -35.8049106142      -17.5524650278  MEMB      371             0.0000000000
     46059       371  POPE      H11B           45.6831578334      -36.8112835362      -18.8308467709  MEMB      371             0.0000000000
     46060       371  POPE      P              47.8754921782      -34.8666035773      -19.6796721078  MEMB      371             0.0000000000
     46061       371  POPE      O13            46.5456953736      -34.3503048907      -20.1109810156  MEMB      371             0.0000000000
     46062       371  POPE      O14            48.9475122079      -35.0029581524      -20.6878202703  MEMB      371             0.0000000000
     46063       371  POPE      O11            48.5795134558      -33.9639045793      -18.5240293307  MEMB      371             0.0000000000
     46064       371  POPE      O12            47.7772042771      -36.3085663511      -19.0256588802  MEMB      371             0.0000000000
     46065       371  POPE      C1             47.8713500845      -32.8613957102      -17.9110105139  MEMB      371             0.0000000000
     46066       371  POPE      HA             46.8435355141      -33.1061496374      -17.5674792896  MEMB      371             0.0000000000
     46067       371  POPE      HB             47.8457874069      -31.9869011439      -18.5957927753  MEMB      371             0.0000000000
     46068       371  POPE      C2             48.5613021970      -32.3562069131      -16.5996740566  MEMB      371             0.0000000000
     46069       371  POPE      HS             49.2778655411      -31.5371855815      -16.8234201816  MEMB      371             0.0000000000
     46070       371  POPE      O21            49.2329020826      -33.4619453171      -15.9633711821  MEMB      371             0.0000000000
     46071       371  POPE      C21            50.5403067745      -33.6109833008      -16.2591375169  MEMB      371             0.0000000000
     46072       371  POPE      O22            51.1329841098      -32.9047578791      -17.0532934933  MEMB      371             0.0000000000
     46073       371  POPE      C22            51.0948908891      -34.9336398297      -15.6254395333  MEMB      371             0.0000000000
     46074       371  POPE      H2R            52.0562910804      -34.7147159960      -15.1134793549  MEMB      371             0.0000000000
     46075       371  POPE      H2S            51.2504229052      -35.6281232346      -16.4785651209  MEMB      371             0.0000000000
     46076       371  POPE      C3             47.5576768813      -31.8636546446      -15.5735783834  MEMB      371             0.0000000000
     46077       371  POPE      HX             46.9175727819      -31.1049601667      -16.0725478566  MEMB      371             0.0000000000
     46078       371  POPE      HY             48.0879642442      -31.3043595311      -14.7733874599  MEMB      371             0.0000000000
     46079       371  POPE      O31            46.7091776168      -32.8690373977      -14.9677100846  MEMB      371             0.0000000000
     46080       371  POPE      C31            45.5337831114      -33.1900395709      -15.4237906717  MEMB      371             0.0000000000
     46081       371  POPE      O32            44.7923687854      -32.5847487076      -16.2548029004  MEMB      371             0.0000000000
     46082       371  POPE      C32            45.1389950870      -34.5596972026      -14.9566942628  MEMB      371             0.0000000000
     46083       371  POPE      H2X            44.9061003345      -35.1055590576      -15.8959044347  MEMB      371             0.0000000000
     46084       371  POPE      H2Y            44.2715587356      -34.5649191912      -14.2625414594  MEMB      371             0.0000000000
     46085       371  POPE      C23            50.1743090630      -35.6452059160      -14.6922061735  MEMB      371             0.0000000000
     46086       371  POPE      H3R            49.4168467521      -36.2048528489      -15.2815848358  MEMB      371             0.0000000000
     46087       371  POPE      H3S            49.6062253330      -34.9554496021      -14.0320260722  MEMB      371             0.0000000000
     46088       371  POPE      C24            50.9478377954      -36.7636488678      -13.9333454460  MEMB      371             0.0000000000
     46089       371  POPE      H4R            51.7369934098      -36.1867351605      -13.4054011921  MEMB      371             0.0000000000
     46090       371  POPE      H4S            51.3256053457      -37.4577117714      -14.7142995030  MEMB      371             0.0000000000
     46091       371  POPE      C25            50.0539624229      -37.4683773533      -12.8503326282  MEMB      371             0.0000000000
     46092       371  POPE      H5R            49.5375698098      -38.2765131859      -13.4112031987  MEMB      371             0.0000000000
     46093       371  POPE      H5S            49.2852056791      -36.7187500332      -12.5650379495  MEMB      371             0.0000000000
     46094       371  POPE      C26            50.8194023089      -38.0746547695      -11.6298750375  MEMB      371             0.0000000000
     46095       371  POPE      H6R            51.5024794606      -37.3151727971      -11.1929379514  MEMB      371             0.0000000000
     46096       371  POPE      H6S            51.6316382570      -38.7454894635      -11.9828263228  MEMB      371             0.0000000000
     46097       371  POPE      C27            49.9119926283      -38.8389320603      -10.5775560859  MEMB      371             0.0000000000
     46098       371  POPE      H7R            50.6050979501      -39.5630331195      -10.0983861118  MEMB      371             0.0000000000
     46099       371  POPE      H7S            49.2050770718      -39.3653092653      -11.2539570636  MEMB      371             0.0000000000
     46100       371  POPE      C28            49.2922111935      -38.0125022871       -9.4526572407  MEMB      371             0.0000000000
     46101       371  POPE      H8R            48.9187527584      -37.1176007471       -9.9948762581  MEMB      371             0.0000000000
     46102       371  POPE      H8S            50.0568994382      -37.5291211260       -8.8077425016  MEMB      371             0.0000000000
     46103       371  POPE      C29            48.3188293710      -38.7384047532       -8.5674607969  MEMB      371             0.0000000000
     46104       371  POPE      H91            47.4284349691      -39.1622994379       -9.0548125641  MEMB      371             0.0000000000
     46105       371  POPE      C210           48.4178631923      -38.9049220243       -7.1968278760  MEMB      371             0.0000000000
     46106       371  POPE      H101           47.6183353926      -39.4457803865       -6.6693552056  MEMB      371             0.0000000000
     46107       371  POPE      C211           49.5707798870      -38.4022821124       -6.3747718389  MEMB      371             0.0000000000
     46108       371  POPE      H11R           50.4952617913      -38.3888834876       -6.9907877463  MEMB      371             0.0000000000
     46109       371  POPE      H11S           49.7579143552      -39.0730298619       -5.5090932806  MEMB      371             0.0000000000
     46110       371  POPE      C212           49.4149069630      -36.9737767802       -5.8923592048  MEMB      371             0.0000000000
     46111       371  POPE      H12R           49.3422806211      -36.1273145752       -6.6082833740  MEMB      371             0.0000000000
     46112       371  POPE      H12S           50.4265081490      -36.8250022756       -5.4577903363  MEMB      371             0.0000000000
     46113       371  POPE      C213           48.3544117952      -36.7826459230       -4.8199119579  MEMB      371             0.0000000000
     46114       371  POPE      H13R           48.6337508716      -37.3273017409       -3.8927443295  MEMB      371             0.0000000000
     46115       371  POPE      H13S           47.3409192383      -37.1407706321       -5.1008045576  MEMB      371             0.0000000000
     46116       371  POPE      C214           48.2787231745      -35.3053009224       -4.3499928414  MEMB      371             0.0000000000
     46117       371  POPE      H14R           48.0254462065      -34.6785317737       -5.2316574716  MEMB      371             0.0000000000
     46118       371  POPE      H14S           49.1937207299      -34.9691803676       -3.8169610602  MEMB      371             0.0000000000
     46119       371  POPE      C215           47.1171179503      -35.1706953089       -3.2486165123  MEMB      371             0.0000000000
     46120       371  POPE      H15R           47.3456193237      -35.9575194178       -2.4982723912  MEMB      371             0.0000000000
     46121       371  POPE      H15S           46.0378282059      -35.2219514657       -3.5071265177  MEMB      371             0.0000000000
     46122       371  POPE      C216           47.2255572261      -33.9100745886       -2.4755606720  MEMB      371             0.0000000000
     46123       371  POPE      H16R           46.2519420966      -33.6461253689       -2.0100232933  MEMB      371             0.0000000000
     46124       371  POPE      H16S           47.6879487793      -33.1166327357       -3.1008333703  MEMB      371             0.0000000000
     46125       371  POPE      C217           48.1463758718      -34.1141529089       -1.2406723510  MEMB      371             0.0000000000
     46126       371  POPE      H17R           49.0639105850      -34.6015269656       -1.6342677184  MEMB      371             0.0000000000
     46127       371  POPE      H17S           47.5887889215      -34.7135706047       -0.4895952677  MEMB      371             0.0000000000
     46128       371  POPE      C218           48.6361805230      -32.8731456847       -0.5372222810  MEMB      371             0.0000000000
     46129       371  POPE      H18R           49.1151632941      -32.1266827743       -1.2063184278  MEMB      371             0.0000000000
     46130       371  POPE      H18S           49.3774512416      -33.1650102913        0.2371521213  MEMB      371             0.0000000000
     46131       371  POPE      H18T           47.8145600852      -32.3520809144       -0.0007962024  MEMB      371             0.0000000000
     46132       371  POPE      C33            46.3728183962      -35.2621054189      -14.2458757012  MEMB      371             0.0000000000
     46133       371  POPE      H3X            46.5925286569      -34.6263702132      -13.3616308399  MEMB      371             0.0000000000
     46134       371  POPE      H3Y            47.2432739168      -35.2567775993      -14.9362377223  MEMB      371             0.0000000000
     46135       371  POPE      C34            46.2782704340      -36.7125426392      -13.6736875622  MEMB      371             0.0000000000
     46136       371  POPE      H4X            47.2688901100      -37.1141422457      -13.3708486842  MEMB      371             0.0000000000
     46137       371  POPE      H4Y            46.1644539522      -37.3558236006      -14.5723288174  MEMB      371             0.0000000000
     46138       371  POPE      C35            45.3365976046      -36.8952284860      -12.5215038787  MEMB      371             0.0000000000
     46139       371  POPE      H5X            45.3821064587      -37.9757707555      -12.2671846419  MEMB      371             0.0000000000
     46140       371  POPE      H5Y            44.3010660430      -36.6562874885      -12.8453909828  MEMB      371             0.0000000000
     46141       371  POPE      C36            45.7306940840      -36.1648676243      -11.2255280058  MEMB      371             0.0000000000
     46142       371  POPE      H6X            45.9398195867      -35.1019939565      -11.4722813897  MEMB      371             0.0000000000
     46143       371  POPE      H6Y            46.6929819743      -36.6142319150      -10.8993461713  MEMB      371             0.0000000000
     46144       371  POPE      C37            44.7543634371      -36.2783593166      -10.0516201417  MEMB      371             0.0000000000
     46145       371  POPE      H7X            44.7943289564      -37.3418394527       -9.7326626884  MEMB      371             0.0000000000
     46146       371  POPE      H7Y            43.7083027184      -36.1012452277      -10.3813300737  MEMB      371             0.0000000000
     46147       371  POPE      C38            45.2993173421      -35.4915788121       -8.9014588073  MEMB      371             0.0000000000
     46148       371  POPE      H8X            45.4430432833      -34.4243264141       -9.1746540498  MEMB      371             0.0000000000
     46149       371  POPE      H8Y            46.2860310862      -35.9342076908       -8.6469057283  MEMB      371             0.0000000000
     46150       371  POPE      C39            44.4514150680      -35.4356792203       -7.5914109380  MEMB      371             0.0000000000
     46151       371  POPE      H9X            43.6106040711      -34.7744519489       -7.8916391921  MEMB      371             0.0000000000
     46152       371  POPE      H9Y            45.0144439861      -34.8854891731       -6.8074401540  MEMB      371             0.0000000000
     46153       371  POPE      C310           43.8463777576      -36.7597568489       -7.1028123684  MEMB      371             0.0000000000
     46154       371  POPE      H10X           43.3382424949      -37.3511566804       -7.8942452016  MEMB      371             0.0000000000
     46155       371  POPE      H10Y           43.0992467954      -36.5714296581       -6.3024063494  MEMB      371             0.0000000000
     46156       371  POPE      C311           44.7477609597      -37.7190456861       -6.3774758221  MEMB      371             0.0000000000
     46157       371  POPE      H11X           45.1688459874      -37.2263439695       -5.4751158600  MEMB      371             0.0000000000
     46158       371  POPE      H11Y           45.5465092939      -38.0119498673       -7.0919883413  MEMB      371             0.0000000000
     46159       371  POPE      C312           43.9762842953      -38.9189710038       -5.7376669284  MEMB      371             0.0000000000
     46160       371  POPE      H12X           43.5257491672      -39.4670465934       -6.5926244837  MEMB      371             0.0000000000
     46161       371  POPE      H12Y           43.1160575680      -38.5793202949       -5.1220630382  MEMB      371             0.0000000000
     46162       371  POPE      C313           44.8710241812      -39.9210935455       -5.0185770321  MEMB      371             0.0000000000
     46163       371  POPE      H13X           45.6769421027      -40.2857153034       -5.6907888774  MEMB      371             0.0000000000
     46164       371  POPE      H13Y           44.2758735875      -40.8512130117       -4.8961253676  MEMB      371             0.0000000000
     46165       371  POPE      C314           45.3440095083      -39.5016710337       -3.6236324616  MEMB      371             0.0000000000
     46166       371  POPE      H14X           44.4944303229      -39.2626374152       -2.9488002321  MEMB      371             0.0000000000
     46167       371  POPE      H14Y           45.9685588649      -38.5833003107       -3.6528590599  MEMB      371             0.0000000000
     46168       371  POPE      C315           46.1932653046      -40.5605365689       -2.9804850178  MEMB      371             0.0000000000
     46169       371  POPE      H15X           46.9932072569      -40.9929285479       -3.6188044926  MEMB      371             0.0000000000
     46170       371  POPE      H15Y           45.4751832003      -41.3539509483       -2.6818691288  MEMB      371             0.0000000000
     46171       371  POPE      C316           46.7759022732      -40.1596519625       -1.6436206892  MEMB      371             0.0000000000
     46172       371  POPE      H16X           47.4837102086      -39.3139161411       -1.7780087810  MEMB      371             0.0000000000
     46173       371  POPE      H16Y           47.2177767242      -41.0127880871       -1.0857444947  MEMB      371             0.0000000000
     46174       371  POPE      H16Z           45.9992941647      -39.7079175497       -0.9900652417  MEMB      371             0.0000000000
     46175       372  PMPE      N             -55.1528622480      -28.7116157272      -21.6955799897  MEMB      372             0.0000000000
     46176       372  PMPE      HN1           -56.0495304678      -28.9068725110      -22.1849275412  MEMB      372             0.0000000000
     46177       372  PMPE      HN2           -55.1456201446      -27.7770521769      -21.2393582263  MEMB      372             0.0000000000
     46178       372  PMPE      HN3           -54.4622314560      -28.6254168422      -22.4683665077  MEMB      372             0.0000000000
     46179       372  PMPE      C12           -54.6698919339      -29.7500961435      -20.6946605233  MEMB      372             0.0000000000
     46180       372  PMPE      H12A          -54.2399548263      -30.6049822394      -21.2591466537  MEMB      372             0.0000000000
     46181       372  PMPE      H12B          -55.5453916939      -30.0589933773      -20.0844118385  MEMB      372             0.0000000000
     46182       372  PMPE      C11           -53.5745435901      -29.2589620437      -19.7428408947  MEMB      372             0.0000000000
     46183       372  PMPE      H11A          -52.6339207940      -29.1245981398      -20.3185978035  MEMB      372             0.0000000000
     46184       372  PMPE      H11B          -53.5269010959      -30.0383111399      -18.9524825887  MEMB      372             0.0000000000
     46185       372  PMPE      P             -53.2432441470      -27.3565704361      -17.9469935284  MEMB      372             0.0000000000
     46186       372  PMPE      O13           -53.8268504452      -25.9979702248      -17.8289143389  MEMB      372             0.0000000000
     46187       372  PMPE      O14           -51.8198952815      -27.4860842721      -18.1588440930  MEMB      372             0.0000000000
     46188       372  PMPE      O11           -53.7323152650      -28.1610028898      -16.7034551983  MEMB      372             0.0000000000
     46189       372  PMPE      O12           -54.0137678071      -28.0125062459      -19.2287114360  MEMB      372             0.0000000000
     46190       372  PMPE      C1            -54.8741003430      -28.9294546430      -16.6557266696  MEMB      372             0.0000000000
     46191       372  PMPE      HA            -54.5563014188      -29.9574231219      -16.9325038773  MEMB      372             0.0000000000
     46192       372  PMPE      HB            -55.5722352722      -28.5696935281      -17.4415386718  MEMB      372             0.0000000000
     46193       372  PMPE      C2            -55.5554234481      -28.8649885308      -15.2139701363  MEMB      372             0.0000000000
     46194       372  PMPE      HS            -56.6244611010      -29.1088804391      -15.3928447693  MEMB      372             0.0000000000
     46195       372  PMPE      O21           -55.4673876612      -27.5700742147      -14.5399710706  MEMB      372             0.0000000000
     46196       372  PMPE      C21           -56.0566717736      -26.5680605038      -15.1446769284  MEMB      372             0.0000000000
     46197       372  PMPE      O22           -56.7843707486      -26.5534379808      -16.1412929297  MEMB      372             0.0000000000
     46198       372  PMPE      C22           -55.7104173486      -25.2565555268      -14.3712261982  MEMB      372             0.0000000000
     46199       372  PMPE      H2R           -55.6913715594      -24.3982454370      -15.0763939980  MEMB      372             0.0000000000
     46200       372  PMPE      H2S           -54.7404394851      -25.2579913076      -13.8295047595  MEMB      372             0.0000000000
     46201       372  PMPE      C3            -54.9343146843      -29.8781539908      -14.2696626680  MEMB      372             0.0000000000
     46202       372  PMPE      HX            -55.1427515136      -30.9097822902      -14.6254973746  MEMB      372             0.0000000000
     46203       372  PMPE      HY            -55.3780398339      -29.8381009970      -13.2519079576  MEMB      372             0.0000000000
     46204       372  PMPE      O31           -53.4864034975      -29.8744340477      -14.1388920479  MEMB      372             0.0000000000
     46205       372  PMPE      C31           -53.0018005145      -29.2140108578      -13.0965695241  MEMB      372             0.0000000000
     46206       372  PMPE      O32           -53.7024161040      -28.6222723030      -12.3042623277  MEMB      372             0.0000000000
     46207       372  PMPE      C32           -51.5283313415      -29.2305403587      -12.9699149224  MEMB      372             0.0000000000
     46208       372  PMPE      H2X           -51.1151470521      -28.4703943254      -13.6668927490  MEMB      372             0.0000000000
     46209       372  PMPE      H2Y           -51.1390178370      -30.2060685578      -13.3319936560  MEMB      372             0.0000000000
     46210       372  PMPE      C23           -56.9282191036      -24.7381386019      -13.5241695256  MEMB      372             0.0000000000
     46211       372  PMPE      H3R           -57.8810926589      -24.9732122715      -14.0448358888  MEMB      372             0.0000000000
     46212       372  PMPE      H3S           -57.0546472670      -23.6416449105      -13.3975265530  MEMB      372             0.0000000000
     46213       372  PMPE      C24           -56.9404676058      -25.3750612972      -12.1088376766  MEMB      372             0.0000000000
     46214       372  PMPE      H4R           -57.5767489743      -24.6546057425      -11.5516929907  MEMB      372             0.0000000000
     46215       372  PMPE      H4S           -55.8959712302      -25.3843593006      -11.7303381404  MEMB      372             0.0000000000
     46216       372  PMPE      C25           -57.6195312185      -26.7216522739      -11.9728101017  MEMB      372             0.0000000000
     46217       372  PMPE      H5R           -56.9502446500      -27.4297308446      -12.5066651140  MEMB      372             0.0000000000
     46218       372  PMPE      H5S           -58.6223241121      -26.6577946044      -12.4467821551  MEMB      372             0.0000000000
     46219       372  PMPE      C26           -57.7251874417      -27.3250317754      -10.5503240526  MEMB      372             0.0000000000
     46220       372  PMPE      H6R           -56.7568624162      -27.7259413512      -10.1816240756  MEMB      372             0.0000000000
     46221       372  PMPE      H6S           -58.4328227832      -28.1800141616      -10.6011012142  MEMB      372             0.0000000000
     46222       372  PMPE      C27           -58.3846652996      -26.3580528842       -9.6058350994  MEMB      372             0.0000000000
     46223       372  PMPE      H7R           -59.4099414315      -26.1580609294       -9.9841647539  MEMB      372             0.0000000000
     46224       372  PMPE      H7S           -57.7260299257      -25.4689456661       -9.5057903684  MEMB      372             0.0000000000
     46225       372  PMPE      C28           -58.6300391415      -26.9363844070       -8.2112096610  MEMB      372             0.0000000000
     46226       372  PMPE      H8R           -59.2269318518      -27.8673395499       -8.3178055816  MEMB      372             0.0000000000
     46227       372  PMPE      H8S           -59.3576560455      -26.2779570383       -7.6902799354  MEMB      372             0.0000000000
     46228       372  PMPE      C29           -57.3501439244      -27.2537103347       -7.4237902260  MEMB      372             0.0000000000
     46229       372  PMPE      H9R           -56.4170672017      -26.7081424266       -7.6807804235  MEMB      372             0.0000000000
     46230       372  PMPE      C217          -57.1609553853      -28.6499775780       -7.2576094442  MEMB      372             0.0000000000
     46231       372  PMPE      H17R          -56.1806764883      -29.0449782755       -7.4940761723  MEMB      372             0.0000000000
     46232       372  PMPE      H17S          -57.9663708121      -29.3387211701       -7.4808298888  MEMB      372             0.0000000000
     46233       372  PMPE      C210          -57.4770571791      -27.7998804746       -6.0431070060  MEMB      372             0.0000000000
     46234       372  PMPE      H10R          -56.5871128099      -27.6528152005       -5.3944998568  MEMB      372             0.0000000000
     46235       372  PMPE      C211          -58.9089615371      -28.1337950161       -5.4383123064  MEMB      372             0.0000000000
     46236       372  PMPE      H11R          -58.8503577566      -28.8476448387       -4.5890158949  MEMB      372             0.0000000000
     46237       372  PMPE      H11S          -59.6447889983      -28.5074930086       -6.1821055084  MEMB      372             0.0000000000
     46238       372  PMPE      C212          -59.4154614932      -26.8317298078       -4.7989865678  MEMB      372             0.0000000000
     46239       372  PMPE      H12R          -60.3437480254      -27.0569152247       -4.2316278931  MEMB      372             0.0000000000
     46240       372  PMPE      H12S          -59.6467550690      -26.0836444891       -5.5871442024  MEMB      372             0.0000000000
     46241       372  PMPE      C213          -58.5252108152      -26.2077032911       -3.7292893788  MEMB      372             0.0000000000
     46242       372  PMPE      H13R          -58.8237308910      -25.1378782643       -3.7553853281  MEMB      372             0.0000000000
     46243       372  PMPE      H13S          -57.4233996051      -26.2122636712       -3.8718107591  MEMB      372             0.0000000000
     46244       372  PMPE      C214          -58.6623303798      -26.7161143177       -2.3047736246  MEMB      372             0.0000000000
     46245       372  PMPE      H14R          -58.5689196191      -27.8214659109       -2.2431833326  MEMB      372             0.0000000000
     46246       372  PMPE      H14S          -59.6615746962      -26.4590290025       -1.8927791526  MEMB      372             0.0000000000
     46247       372  PMPE      C215          -57.6005340958      -26.0941488316       -1.4473634701  MEMB      372             0.0000000000
     46248       372  PMPE      H15R          -57.9693255767      -25.0893327088       -1.1496095258  MEMB      372             0.0000000000
     46249       372  PMPE      H15S          -56.6431310787      -25.9550984988       -1.9935941987  MEMB      372             0.0000000000
     46250       372  PMPE      C216          -57.5153397936      -26.8357808923       -0.0876166693  MEMB      372             0.0000000000
     46251       372  PMPE      H16R          -57.0420302138      -27.8360518558       -0.1863941267  MEMB      372             0.0000000000
     46252       372  PMPE      H16S          -56.8778359962      -26.3384475572        0.6743335122  MEMB      372             0.0000000000
     46253       372  PMPE      H16T          -58.5096312226      -26.8576756628        0.4075858523  MEMB      372             0.0000000000
     46254       372  PMPE      C33           -50.9518677433      -29.1013420285      -11.5289929319  MEMB      372             0.0000000000
     46255       372  PMPE      H3X           -49.8822282930      -29.4015798958      -11.5219366978  MEMB      372             0.0000000000
     46256       372  PMPE      H3Y           -51.4991785260      -29.7934629046      -10.8539078435  MEMB      372             0.0000000000
     46257       372  PMPE      C34           -50.8335801346      -27.6646454543      -10.9171001756  MEMB      372             0.0000000000
     46258       372  PMPE      H4X           -49.9678290987      -27.1832458319      -11.4201414182  MEMB      372             0.0000000000
     46259       372  PMPE      H4Y           -50.6261532396      -27.6904717029       -9.8259414707  MEMB      372             0.0000000000
     46260       372  PMPE      C35           -52.0288566764      -26.7296600394      -11.0295226942  MEMB      372             0.0000000000
     46261       372  PMPE      H5X           -53.0143102511      -27.1761194924      -10.7767843920  MEMB      372             0.0000000000
     46262       372  PMPE      H5Y           -52.1191732435      -26.4763196399      -12.1074755111  MEMB      372             0.0000000000
     46263       372  PMPE      C36           -51.9700562375      -25.3046817953      -10.3925039249  MEMB      372             0.0000000000
     46264       372  PMPE      H6X           -52.6539837163      -24.6203606438      -10.9386438869  MEMB      372             0.0000000000
     46265       372  PMPE      H6Y           -50.9306790724      -24.9468918513      -10.5537555674  MEMB      372             0.0000000000
     46266       372  PMPE      C37           -52.3501299316      -25.3248568767       -8.9043336384  MEMB      372             0.0000000000
     46267       372  PMPE      H7X           -51.6629743598      -24.7063542401       -8.2882227401  MEMB      372             0.0000000000
     46268       372  PMPE      H7Y           -52.3612128255      -26.4045716744       -8.6427712819  MEMB      372             0.0000000000
     46269       372  PMPE      C38           -53.7021363182      -24.6572706715       -8.4830142797  MEMB      372             0.0000000000
     46270       372  PMPE      H8X           -54.5125748607      -24.9461100984       -9.1859239702  MEMB      372             0.0000000000
     46271       372  PMPE      H8Y           -53.5131606997      -23.5625747676       -8.4672020990  MEMB      372             0.0000000000
     46272       372  PMPE      C39           -54.3412061977      -24.9920799644       -7.1264508157  MEMB      372             0.0000000000
     46273       372  PMPE      H9X           -54.2166867667      -26.0645810773       -6.8646166643  MEMB      372             0.0000000000
     46274       372  PMPE      H9Y           -55.4204965254      -24.7287134920       -7.1360163284  MEMB      372             0.0000000000
     46275       372  PMPE      C310          -53.7863461338      -24.1065548774       -6.0074599852  MEMB      372             0.0000000000
     46276       372  PMPE      H10X          -54.2176185978      -23.0878388622       -6.1101393789  MEMB      372             0.0000000000
     46277       372  PMPE      H10Y          -52.6943850723      -23.9852670954       -6.1724776175  MEMB      372             0.0000000000
     46278       372  PMPE      C311          -53.9423319564      -24.7190127112       -4.6082101024  MEMB      372             0.0000000000
     46279       372  PMPE      H11X          -55.0332662564      -24.8584680028       -4.4509365032  MEMB      372             0.0000000000
     46280       372  PMPE      H11Y          -53.6193856999      -24.0217662936       -3.8057925327  MEMB      372             0.0000000000
     46281       372  PMPE      C312          -53.1725102995      -26.0494828832       -4.3436902572  MEMB      372             0.0000000000
     46282       372  PMPE      H12X          -52.0864186116      -26.0649840290       -4.5771105859  MEMB      372             0.0000000000
     46283       372  PMPE      H12Y          -53.7143943274      -26.9160555913       -4.7792758070  MEMB      372             0.0000000000
     46284       372  PMPE      C313          -53.2897996406      -26.4941589774       -2.8693662734  MEMB      372             0.0000000000
     46285       372  PMPE      H13X          -54.3586554865      -26.6767979071       -2.6274737745  MEMB      372             0.0000000000
     46286       372  PMPE      H13Y          -52.9768670520      -25.7225069979       -2.1338742383  MEMB      372             0.0000000000
     46287       372  PMPE      C314          -52.5462556599      -27.8210610807       -2.5992055803  MEMB      372             0.0000000000
     46288       372  PMPE      H14X          -51.4401592326      -27.7341423714       -2.6567969089  MEMB      372             0.0000000000
     46289       372  PMPE      H14Y          -52.8844924633      -28.5442603581       -3.3717990441  MEMB      372             0.0000000000
     46290       372  PMPE      C315          -52.6949889516      -28.4607287030       -1.2032478511  MEMB      372             0.0000000000
     46291       372  PMPE      H15X          -53.7692466864      -28.5937462962       -0.9530515710  MEMB      372             0.0000000000
     46292       372  PMPE      H15Y          -52.2706016136      -27.7682339754       -0.4451793487  MEMB      372             0.0000000000
     46293       372  PMPE      C316          -51.8656167517      -29.8096527862       -1.1891485320  MEMB      372             0.0000000000
     46294       372  PMPE      H16X          -52.2848853988      -30.3961305277       -2.0344773255  MEMB      372             0.0000000000
     46295       372  PMPE      H16Y          -52.0190961176      -30.3225569259       -0.2156522031  MEMB      372             0.0000000000
     46296       372  PMPE      H16Z          -50.7655793217      -29.7437304116       -1.3301926022  MEMB      372             0.0000000000
     46297       373  PYPG      C13           -44.9021834319      -41.4003824913      -20.5478213364  MEMB      373             0.0000000000
     46298       373  PYPG      H13A          -44.0554539418      -41.7641612843      -21.1683333549  MEMB      373             0.0000000000
     46299       373  PYPG      H13B          -45.9029130423      -41.5040271147      -21.0191162040  MEMB      373             0.0000000000
     46300       373  PYPG      OC3           -44.6931150843      -40.0227196300      -20.2241583997  MEMB      373             0.0000000000
     46301       373  PYPG      HO3           -43.9081880783      -40.0394489652      -19.6717006420  MEMB      373             0.0000000000
     46302       373  PYPG      C12           -44.9289914378      -42.2592897946      -19.2383567330  MEMB      373             0.0000000000
     46303       373  PYPG      H12A          -45.0676305131      -43.3227530936      -19.5426658823  MEMB      373             0.0000000000
     46304       373  PYPG      OC2           -46.0428747670      -41.8843615125      -18.4267326806  MEMB      373             0.0000000000
     46305       373  PYPG      HO2           -45.8839960821      -42.3772759630      -17.5921610851  MEMB      373             0.0000000000
     46306       373  PYPG      C11           -43.5832335145      -42.1247622630      -18.4628673210  MEMB      373             0.0000000000
     46307       373  PYPG      H11A          -43.4586896507      -42.8469016963      -17.6278078093  MEMB      373             0.0000000000
     46308       373  PYPG      H11B          -43.4519028800      -41.1075408195      -18.0358617180  MEMB      373             0.0000000000
     46309       373  PYPG      P             -40.8932107128      -42.4424802405      -18.6397031144  MEMB      373             0.0000000000
     46310       373  PYPG      O13           -40.6952978478      -41.2294379498      -17.7927774256  MEMB      373             0.0000000000
     46311       373  PYPG      O14           -39.8990714079      -42.6771240176      -19.7126494359  MEMB      373             0.0000000000
     46312       373  PYPG      O11           -40.9987493320      -43.7216676058      -17.6768132079  MEMB      373             0.0000000000
     46313       373  PYPG      O12           -42.4070084584      -42.4124804590      -19.2781203587  MEMB      373             0.0000000000
     46314       373  PYPG      C1            -41.3586230251      -44.9660544483      -18.1971444794  MEMB      373             0.0000000000
     46315       373  PYPG      HA            -40.5731834630      -45.6335168618      -18.6117524803  MEMB      373             0.0000000000
     46316       373  PYPG      HB            -42.1128737157      -44.8753787574      -19.0078261675  MEMB      373             0.0000000000
     46317       373  PYPG      C2            -42.0515491467      -45.7279873124      -17.0012311713  MEMB      373             0.0000000000
     46318       373  PYPG      HS            -42.3919331065      -46.6434483563      -17.5307505144  MEMB      373             0.0000000000
     46319       373  PYPG      O21           -43.1805600786      -44.9960655600      -16.5318302305  MEMB      373             0.0000000000
     46320       373  PYPG      C21           -44.2053647274      -45.7512729443      -16.1324211099  MEMB      373             0.0000000000
     46321       373  PYPG      O22           -44.2989770573      -46.9513835716      -16.1422729244  MEMB      373             0.0000000000
     46322       373  PYPG      C22           -45.3506130463      -44.7565424424      -15.7808791342  MEMB      373             0.0000000000
     46323       373  PYPG      H2R           -45.9548624472      -44.5628441758      -16.6928463440  MEMB      373             0.0000000000
     46324       373  PYPG      H2S           -45.1137233151      -43.7695049226      -15.3292581833  MEMB      373             0.0000000000
     46325       373  PYPG      C3            -41.0427182682      -45.9632303067      -15.8690279812  MEMB      373             0.0000000000
     46326       373  PYPG      HX            -40.3454946440      -45.1291070681      -15.6400335817  MEMB      373             0.0000000000
     46327       373  PYPG      HY            -40.3455768169      -46.7737375149      -16.1713408864  MEMB      373             0.0000000000
     46328       373  PYPG      O31           -41.6526666483      -46.3665436742      -14.5835827949  MEMB      373             0.0000000000
     46329       373  PYPG      C31           -41.0852417185      -46.0622256702      -13.4596228786  MEMB      373             0.0000000000
     46330       373  PYPG      O32           -40.0910719951      -45.3541179764      -13.1852097823  MEMB      373             0.0000000000
     46331       373  PYPG      C32           -41.7855479736      -46.8439768385      -12.3451596045  MEMB      373             0.0000000000
     46332       373  PYPG      H2X           -42.8139600008      -46.4317683904      -12.2628556494  MEMB      373             0.0000000000
     46333       373  PYPG      H2Y           -41.8527262908      -47.9118667018      -12.6441920731  MEMB      373             0.0000000000
     46334       373  PYPG      C23           -46.4424924170      -45.3403207710      -14.7515414565  MEMB      373             0.0000000000
     46335       373  PYPG      H3R           -46.6841193182      -46.3351620595      -15.1830835164  MEMB      373             0.0000000000
     46336       373  PYPG      H3S           -47.4098350875      -44.7947553931      -14.7210890312  MEMB      373             0.0000000000
     46337       373  PYPG      C24           -45.9513350735      -45.3680168416      -13.2405245102  MEMB      373             0.0000000000
     46338       373  PYPG      H4R           -45.2296146525      -46.1942956145      -13.0652998488  MEMB      373             0.0000000000
     46339       373  PYPG      H4S           -46.9307386301      -45.5237742771      -12.7396956673  MEMB      373             0.0000000000
     46340       373  PYPG      C25           -45.4870403036      -43.9498278275      -12.6135650098  MEMB      373             0.0000000000
     46341       373  PYPG      H5R           -46.3252088924      -43.2215089531      -12.6502489194  MEMB      373             0.0000000000
     46342       373  PYPG      H5S           -44.6371179200      -43.5228479840      -13.1877094581  MEMB      373             0.0000000000
     46343       373  PYPG      C26           -45.0330494056      -44.0519795656      -11.1614848703  MEMB      373             0.0000000000
     46344       373  PYPG      H6R           -44.4847199743      -45.0105905187      -11.0401561220  MEMB      373             0.0000000000
     46345       373  PYPG      H6S           -45.8841280293      -44.0117850468      -10.4484833429  MEMB      373             0.0000000000
     46346       373  PYPG      C27           -43.9798403911      -43.0295201587      -10.8388954095  MEMB      373             0.0000000000
     46347       373  PYPG      H7R           -44.3113617598      -42.1369003781      -11.4112978985  MEMB      373             0.0000000000
     46348       373  PYPG      H7S           -42.9405871975      -43.2364315302      -11.1727537564  MEMB      373             0.0000000000
     46349       373  PYPG      C28           -44.0374192611      -42.5461044065       -9.2928360152  MEMB      373             0.0000000000
     46350       373  PYPG      H8R           -43.6694345397      -43.4053669576       -8.6923560866  MEMB      373             0.0000000000
     46351       373  PYPG      H8S           -45.0640522242      -42.4457313212       -8.8801973635  MEMB      373             0.0000000000
     46352       373  PYPG      C29           -43.2516432158      -41.4073355537       -8.9498929281  MEMB      373             0.0000000000
     46353       373  PYPG      H9R           -43.7778436405      -40.4414368487       -8.9375324955  MEMB      373             0.0000000000
     46354       373  PYPG      C210          -41.9389960665      -41.5571313742       -8.6427523588  MEMB      373             0.0000000000
     46355       373  PYPG      H10R          -41.4062278165      -40.6422249237       -8.3442496306  MEMB      373             0.0000000000
     46356       373  PYPG      C211          -41.1279044776      -42.8216485964       -8.5205707309  MEMB      373             0.0000000000
     46357       373  PYPG      H11R          -41.4179484610      -43.5620833216       -9.2964269194  MEMB      373             0.0000000000
     46358       373  PYPG      H11S          -41.3895496408      -43.1621806484       -7.4959247755  MEMB      373             0.0000000000
     46359       373  PYPG      C212          -39.5575428107      -42.6355252198       -8.6635380367  MEMB      373             0.0000000000
     46360       373  PYPG      H12R          -39.4626169927      -42.2230654972       -9.6907615289  MEMB      373             0.0000000000
     46361       373  PYPG      H12S          -39.2357556199      -43.6913343034       -8.7901918859  MEMB      373             0.0000000000
     46362       373  PYPG      C213          -38.7992120844      -41.8025028055       -7.6208471101  MEMB      373             0.0000000000
     46363       373  PYPG      H13R          -39.3278550532      -40.8262822011       -7.6638670972  MEMB      373             0.0000000000
     46364       373  PYPG      H13S          -37.7475574412      -41.5290565560       -7.8523010078  MEMB      373             0.0000000000
     46365       373  PYPG      C214          -38.8265957045      -42.3486011677       -6.2105643123  MEMB      373             0.0000000000
     46366       373  PYPG      H14R          -39.8857398295      -42.5449337313       -5.9385567323  MEMB      373             0.0000000000
     46367       373  PYPG      H14S          -38.2923490362      -43.3213514041       -6.2621264074  MEMB      373             0.0000000000
     46368       373  PYPG      C215          -38.2575175146      -41.3210206169       -5.1735372781  MEMB      373             0.0000000000
     46369       373  PYPG      H15R          -38.7725253396      -40.3376509888       -5.2190578999  MEMB      373             0.0000000000
     46370       373  PYPG      H15S          -37.2491999951      -41.0414446347       -5.5469730018  MEMB      373             0.0000000000
     46371       373  PYPG      C216          -38.0065108013      -41.8571259657       -3.7753526300  MEMB      373             0.0000000000
     46372       373  PYPG      H16R          -37.0453103564      -42.4142742064       -3.7749203823  MEMB      373             0.0000000000
     46373       373  PYPG      H16S          -38.7489593939      -42.6358824451       -3.4985328649  MEMB      373             0.0000000000
     46374       373  PYPG      H16T          -37.9553479814      -41.0210903646       -3.0454573183  MEMB      373             0.0000000000
     46375       373  PYPG      C33           -41.1376871752      -46.5611747013      -11.0369142200  MEMB      373             0.0000000000
     46376       373  PYPG      H3X           -41.4920031180      -45.5409198896      -10.7764124237  MEMB      373             0.0000000000
     46377       373  PYPG      H3Y           -40.0354252824      -46.6330537408      -11.1559646757  MEMB      373             0.0000000000
     46378       373  PYPG      C34           -41.4672957836      -47.6304026676       -9.9212578852  MEMB      373             0.0000000000
     46379       373  PYPG      H4X           -40.8543630870      -48.5151548185      -10.1966625805  MEMB      373             0.0000000000
     46380       373  PYPG      H4Y           -42.5263295417      -47.9489944620      -10.0274074497  MEMB      373             0.0000000000
     46381       373  PYPG      C35           -41.1176001273      -47.1571009173       -8.4813400678  MEMB      373             0.0000000000
     46382       373  PYPG      H5X           -41.4793425398      -47.9921867755       -7.8440844508  MEMB      373             0.0000000000
     46383       373  PYPG      H5Y           -41.8032845955      -46.2914339929       -8.3597723855  MEMB      373             0.0000000000
     46384       373  PYPG      C36           -39.6444145421      -46.6972720235       -8.1522864677  MEMB      373             0.0000000000
     46385       373  PYPG      H6X           -39.4545517712      -45.7826312735       -8.7537057315  MEMB      373             0.0000000000
     46386       373  PYPG      H6Y           -38.9027135841      -47.4147861691       -8.5638375699  MEMB      373             0.0000000000
     46387       373  PYPG      C37           -39.4162407005      -46.2807275684       -6.7094086076  MEMB      373             0.0000000000
     46388       373  PYPG      H7X           -38.4481100369      -45.7399012598       -6.6419517425  MEMB      373             0.0000000000
     46389       373  PYPG      H7Y           -40.2740308098      -45.6220190380       -6.4552032288  MEMB      373             0.0000000000
     46390       373  PYPG      C38           -39.3224764197      -47.5144866732       -5.7479972503  MEMB      373             0.0000000000
     46391       373  PYPG      H8X           -38.3725931164      -48.0839675986       -5.8359410349  MEMB      373             0.0000000000
     46392       373  PYPG      H8Y           -40.1577130704      -48.2138481895       -5.9661583895  MEMB      373             0.0000000000
     46393       373  PYPG      C39           -39.4321620015      -47.2012450842       -4.2428933842  MEMB      373             0.0000000000
     46394       373  PYPG      H9X           -38.4476875710      -46.8477234873       -3.8685229389  MEMB      373             0.0000000000
     46395       373  PYPG      H9Y           -39.5879188084      -48.2074691541       -3.7984014685  MEMB      373             0.0000000000
     46396       373  PYPG      C310          -40.5338627978      -46.2136387853       -3.8076858198  MEMB      373             0.0000000000
     46397       373  PYPG      H10X          -41.5077185661      -46.7253459242       -3.9628688325  MEMB      373             0.0000000000
     46398       373  PYPG      H10Y          -40.6895058087      -45.4260147536       -4.5756333070  MEMB      373             0.0000000000
     46399       373  PYPG      C311          -40.4989825416      -45.7342843711       -2.3685875193  MEMB      373             0.0000000000
     46400       373  PYPG      H11X          -39.4379260596      -45.5043419907       -2.1327753198  MEMB      373             0.0000000000
     46401       373  PYPG      H11Y          -40.9166168519      -46.3726795971       -1.5609020272  MEMB      373             0.0000000000
     46402       373  PYPG      C312          -41.2469346891      -44.3781176214       -2.1807646975  MEMB      373             0.0000000000
     46403       373  PYPG      H12X          -40.7595428449      -43.6693516970       -2.8839156277  MEMB      373             0.0000000000
     46404       373  PYPG      H12Y          -42.2499958799      -44.6494668392       -2.5739041811  MEMB      373             0.0000000000
     46405       373  PYPG      C313          -41.4241444511      -43.8992108768       -0.7127848774  MEMB      373             0.0000000000
     46406       373  PYPG      H13X          -42.1030896768      -43.0291893357       -0.8409135293  MEMB      373             0.0000000000
     46407       373  PYPG      H13Y          -41.8783452564      -44.7375502500       -0.1425138338  MEMB      373             0.0000000000
     46408       373  PYPG      C314          -40.0714374524      -43.5555905044       -0.0043538883  MEMB      373             0.0000000000
     46409       373  PYPG      H14X          -39.3051666996      -44.3169273244       -0.2641929475  MEMB      373             0.0000000000
     46410       373  PYPG      H14Y          -39.6326229537      -42.6445799476       -0.4645941545  MEMB      373             0.0000000000
     46411       373  PYPG      C315          -40.0875696780      -43.5371838722        1.5658838819  MEMB      373             0.0000000000
     46412       373  PYPG      H15X          -39.4720800744      -42.7141450074        1.9879019843  MEMB      373             0.0000000000
     46413       373  PYPG      H15Y          -41.0740527027      -43.1848641667        1.9360768693  MEMB      373             0.0000000000
     46414       373  PYPG      C316          -39.6780188539      -44.8411357602        2.1547263130  MEMB      373             0.0000000000
     46415       373  PYPG      H16X          -39.9886428517      -45.7478486724        1.5928491698  MEMB      373             0.0000000000
     46416       373  PYPG      H16Y          -39.8521947161      -44.9107818351        3.2497757231  MEMB      373             0.0000000000
     46417       373  PYPG      H16Z          -38.5824715273      -44.7633049559        1.9872769387  MEMB      373             0.0000000000
     46418       374  PMPE      N              44.5984274388       39.5463167938      -21.1111477732  MEMB      374             0.0000000000
     46419       374  PMPE      HN1            44.3444491682       39.2051301500      -22.0601928545  MEMB      374             0.0000000000
     46420       374  PMPE      HN2            44.7092852572       38.7592324717      -20.4404698712  MEMB      374             0.0000000000
     46421       374  PMPE      HN3            43.8758370873       40.2524403975      -20.8644645528  MEMB      374             0.0000000000
     46422       374  PMPE      C12            45.9059214165       40.2572541659      -21.1468712956  MEMB      374             0.0000000000
     46423       374  PMPE      H12A           45.8222359423       41.2244572286      -21.6870899455  MEMB      374             0.0000000000
     46424       374  PMPE      H12B           46.5901813387       39.6001845091      -21.7251175862  MEMB      374             0.0000000000
     46425       374  PMPE      C11            46.4378681655       40.4195125787      -19.7958178929  MEMB      374             0.0000000000
     46426       374  PMPE      H11A           46.0314352748       41.3367597165      -19.3185433775  MEMB      374             0.0000000000
     46427       374  PMPE      H11B           47.5088546733       40.6437233307      -19.9882711700  MEMB      374             0.0000000000
     46428       374  PMPE      P              45.2284301780       38.8954727902      -17.9347485793  MEMB      374             0.0000000000
     46429       374  PMPE      O13            45.7615681002       38.1467427513      -16.8113367905  MEMB      374             0.0000000000
     46430       374  PMPE      O14            44.2255356073       38.2535927533      -18.7473518014  MEMB      374             0.0000000000
     46431       374  PMPE      O11            44.7006463717       40.3515596051      -17.4994009015  MEMB      374             0.0000000000
     46432       374  PMPE      O12            46.4098179199       39.2710141649      -18.9533249657  MEMB      374             0.0000000000
     46433       374  PMPE      C1             43.6713845475       40.4187103176      -16.5870887778  MEMB      374             0.0000000000
     46434       374  PMPE      HA             43.4472509785       39.4464641095      -16.0983941887  MEMB      374             0.0000000000
     46435       374  PMPE      HB             42.7911936310       40.8760964256      -17.0874717277  MEMB      374             0.0000000000
     46436       374  PMPE      C2             44.0845475877       41.6282132741      -15.6372792754  MEMB      374             0.0000000000
     46437       374  PMPE      HS             44.2584214318       42.5137409989      -16.2852988784  MEMB      374             0.0000000000
     46438       374  PMPE      O21            45.2181688921       41.2590566705      -14.8637462121  MEMB      374             0.0000000000
     46439       374  PMPE      C21            46.3885680396       41.7359951642      -15.1269714459  MEMB      374             0.0000000000
     46440       374  PMPE      O22            46.7939301832       42.1882000459      -16.1809991224  MEMB      374             0.0000000000
     46441       374  PMPE      C22            47.2304805028       41.6787718449      -13.8675583886  MEMB      374             0.0000000000
     46442       374  PMPE      H2R            48.2760012772       42.0201195168      -14.0246854108  MEMB      374             0.0000000000
     46443       374  PMPE      H2S            47.1700959023       40.6750561939      -13.3950868272  MEMB      374             0.0000000000
     46444       374  PMPE      C3             42.7870751879       41.8017915009      -14.7971922147  MEMB      374             0.0000000000
     46445       374  PMPE      HX             42.0465999363       42.3494968562      -15.4185100590  MEMB      374             0.0000000000
     46446       374  PMPE      HY             43.2065500042       42.4991259305      -14.0408279001  MEMB      374             0.0000000000
     46447       374  PMPE      O31            42.1993450442       40.5460076415      -14.3303962736  MEMB      374             0.0000000000
     46448       374  PMPE      C31            42.6846157709       40.1686635689      -13.1724056701  MEMB      374             0.0000000000
     46449       374  PMPE      O32            43.3722505316       40.8005534895      -12.3885622905  MEMB      374             0.0000000000
     46450       374  PMPE      C32            42.1542634898       38.7878795799      -12.8483296657  MEMB      374             0.0000000000
     46451       374  PMPE      H2X            42.4527482605       38.0403609434      -13.6141255742  MEMB      374             0.0000000000
     46452       374  PMPE      H2Y            41.0514432379       38.8513741940      -12.9669764641  MEMB      374             0.0000000000
     46453       374  PMPE      C23            46.6198882340       42.7617816095      -12.8450268295  MEMB      374             0.0000000000
     46454       374  PMPE      H3R            45.5194755835       42.6473182419      -12.7434833833  MEMB      374             0.0000000000
     46455       374  PMPE      H3S            46.7455869404       43.8255378608      -13.1398899583  MEMB      374             0.0000000000
     46456       374  PMPE      C24            47.2135614702       42.6919694137      -11.3769811907  MEMB      374             0.0000000000
     46457       374  PMPE      H4R            47.0790689367       43.6548766197      -10.8393544368  MEMB      374             0.0000000000
     46458       374  PMPE      H4S            48.3012842106       42.5404239522      -11.2090112378  MEMB      374             0.0000000000
     46459       374  PMPE      C25            46.6520113420       41.5967160847      -10.5346387907  MEMB      374             0.0000000000
     46460       374  PMPE      H5R            46.9770892619       40.6428837268      -11.0024518252  MEMB      374             0.0000000000
     46461       374  PMPE      H5S            45.5521309465       41.7534375923      -10.5299266360  MEMB      374             0.0000000000
     46462       374  PMPE      C26            47.0294186132       41.6016913927       -9.0787559175  MEMB      374             0.0000000000
     46463       374  PMPE      H6R            46.2655584112       41.0720192047       -8.4702448413  MEMB      374             0.0000000000
     46464       374  PMPE      H6S            47.1339806644       42.6336162856       -8.6806122623  MEMB      374             0.0000000000
     46465       374  PMPE      C27            48.3648582248       40.8457752655       -8.8177787036  MEMB      374             0.0000000000
     46466       374  PMPE      H7R            49.1486126035       41.3211286799       -9.4455435759  MEMB      374             0.0000000000
     46467       374  PMPE      H7S            48.2028254958       39.7924740143       -9.1318213858  MEMB      374             0.0000000000
     46468       374  PMPE      C28            48.7823363581       40.8399804972       -7.2987670278  MEMB      374             0.0000000000
     46469       374  PMPE      H8R            48.0161582042       40.2770778312       -6.7239345415  MEMB      374             0.0000000000
     46470       374  PMPE      H8S            48.7653891190       41.9180364690       -7.0307578166  MEMB      374             0.0000000000
     46471       374  PMPE      C29            50.1908504154       40.2683505539       -6.9508053399  MEMB      374             0.0000000000
     46472       374  PMPE      H9R            50.9355817980       40.5162093428       -7.7371021725  MEMB      374             0.0000000000
     46473       374  PMPE      C217           50.4191099060       38.7907016185       -6.4281148006  MEMB      374             0.0000000000
     46474       374  PMPE      H17R           51.3866208284       38.3794393627       -6.6882580999  MEMB      374             0.0000000000
     46475       374  PMPE      H17S           49.5101386654       38.2083821769       -6.5150886079  MEMB      374             0.0000000000
     46476       374  PMPE      C210           50.5898790742       39.9693120098       -5.5551720837  MEMB      374             0.0000000000
     46477       374  PMPE      H10R           51.6597548981       40.0189148531       -5.2598327570  MEMB      374             0.0000000000
     46478       374  PMPE      C211           49.5168624520       40.1773753410       -4.4692240922  MEMB      374             0.0000000000
     46479       374  PMPE      H11R           49.7088121966       39.4394652627       -3.6611619245  MEMB      374             0.0000000000
     46480       374  PMPE      H11S           48.4452589929       40.0997870018       -4.7520096578  MEMB      374             0.0000000000
     46481       374  PMPE      C212           49.6761799935       41.5190707086       -3.7384223382  MEMB      374             0.0000000000
     46482       374  PMPE      H12R           49.6734672680       42.3401639506       -4.4868337303  MEMB      374             0.0000000000
     46483       374  PMPE      H12S           50.6916255889       41.5253171732       -3.2876988478  MEMB      374             0.0000000000
     46484       374  PMPE      C213           48.5572316552       41.7132617260       -2.7069034547  MEMB      374             0.0000000000
     46485       374  PMPE      H13R           47.5855266946       41.2867279688       -3.0358099047  MEMB      374             0.0000000000
     46486       374  PMPE      H13S           48.4785518447       42.8191829432       -2.6357111093  MEMB      374             0.0000000000
     46487       374  PMPE      C214           49.0484906363       41.1198978142       -1.3718973877  MEMB      374             0.0000000000
     46488       374  PMPE      H14R           49.8877064740       41.7015182083       -0.9339981231  MEMB      374             0.0000000000
     46489       374  PMPE      H14S           49.5002609192       40.1294741117       -1.5939008217  MEMB      374             0.0000000000
     46490       374  PMPE      C215           47.9414769411       40.9604248510       -0.3601542324  MEMB      374             0.0000000000
     46491       374  PMPE      H15R           48.2548937409       40.2457208673        0.4305967755  MEMB      374             0.0000000000
     46492       374  PMPE      H15S           47.0236300150       40.4763073357       -0.7570293231  MEMB      374             0.0000000000
     46493       374  PMPE      C216           47.4433715353       42.3184994762        0.2602631596  MEMB      374             0.0000000000
     46494       374  PMPE      H16R           47.2113083401       42.9684569720       -0.6103820084  MEMB      374             0.0000000000
     46495       374  PMPE      H16S           46.5576743995       42.1961105435        0.9197195106  MEMB      374             0.0000000000
     46496       374  PMPE      H16T           48.2574216761       42.7361261089        0.8905267219  MEMB      374             0.0000000000
     46497       374  PMPE      C33            42.4950149297       38.2320855295      -11.4118187807  MEMB      374             0.0000000000
     46498       374  PMPE      H3X            41.8282939092       37.3689149175      -11.2002997982  MEMB      374             0.0000000000
     46499       374  PMPE      H3Y            42.3337163016       39.0407074902      -10.6672154430  MEMB      374             0.0000000000
     46500       374  PMPE      C34            43.9195880235       37.6998589213      -11.3718242295  MEMB      374             0.0000000000
     46501       374  PMPE      H4X            44.6253842331       38.5519827872      -11.4721140298  MEMB      374             0.0000000000
     46502       374  PMPE      H4Y            44.1100993136       37.0282033107      -12.2360606858  MEMB      374             0.0000000000
     46503       374  PMPE      C35            44.3617970170       37.0294974712      -10.0835626611  MEMB      374             0.0000000000
     46504       374  PMPE      H5X            45.4509256855       36.8206736945      -10.1507352871  MEMB      374             0.0000000000
     46505       374  PMPE      H5Y            43.9668492966       35.9951590692       -9.9914681962  MEMB      374             0.0000000000
     46506       374  PMPE      C36            44.1832226271       37.7208804456       -8.7396327983  MEMB      374             0.0000000000
     46507       374  PMPE      H6X            43.1878118579       37.5286122293       -8.2851977505  MEMB      374             0.0000000000
     46508       374  PMPE      H6Y            44.3269968387       38.8161773365       -8.8578472598  MEMB      374             0.0000000000
     46509       374  PMPE      C37            45.2140091163       37.1463571437       -7.7450529172  MEMB      374             0.0000000000
     46510       374  PMPE      H7X            46.1512904815       37.1824433975       -8.3404700704  MEMB      374             0.0000000000
     46511       374  PMPE      H7Y            44.9980960197       36.0960785419       -7.4541613943  MEMB      374             0.0000000000
     46512       374  PMPE      C38            45.3401385623       38.1114793646       -6.5128274142  MEMB      374             0.0000000000
     46513       374  PMPE      H8X            44.3180772681       38.2005043159       -6.0864629378  MEMB      374             0.0000000000
     46514       374  PMPE      H8Y            45.6096799649       39.1660480228       -6.7354327055  MEMB      374             0.0000000000
     46515       374  PMPE      C39            46.4054101615       37.6266833317       -5.5692720788  MEMB      374             0.0000000000
     46516       374  PMPE      H9X            47.4217994017       37.8712875002       -5.9453610683  MEMB      374             0.0000000000
     46517       374  PMPE      H9Y            46.3447175318       36.5184988950       -5.5186330289  MEMB      374             0.0000000000
     46518       374  PMPE      C310           46.2144334757       38.2089482110       -4.1698312688  MEMB      374             0.0000000000
     46519       374  PMPE      H10X           46.2085181454       39.3055978653       -4.3477230009  MEMB      374             0.0000000000
     46520       374  PMPE      H10Y           47.0810981803       38.0240971761       -3.4997240186  MEMB      374             0.0000000000
     46521       374  PMPE      C311           44.9759388632       37.7473583364       -3.3846244777  MEMB      374             0.0000000000
     46522       374  PMPE      H11X           45.0845138937       36.6466914717       -3.4898172158  MEMB      374             0.0000000000
     46523       374  PMPE      H11Y           44.0166141971       38.0974126106       -3.8222075283  MEMB      374             0.0000000000
     46524       374  PMPE      C312           44.9091284394       38.0550234321       -1.8527997494  MEMB      374             0.0000000000
     46525       374  PMPE      H12X           45.0034164523       39.1561889533       -1.7393720367  MEMB      374             0.0000000000
     46526       374  PMPE      H12Y           45.7822100132       37.5517218555       -1.3851055979  MEMB      374             0.0000000000
     46527       374  PMPE      C313           43.6539607356       37.7000239519       -1.1427341570  MEMB      374             0.0000000000
     46528       374  PMPE      H13X           43.5707314370       36.6137228187       -0.9251471135  MEMB      374             0.0000000000
     46529       374  PMPE      H13Y           42.7141120546       38.0285750038       -1.6357441352  MEMB      374             0.0000000000
     46530       374  PMPE      C314           43.6575668096       38.3572011743        0.2756175344  MEMB      374             0.0000000000
     46531       374  PMPE      H14X           42.7339704895       37.9222159674        0.7138852716  MEMB      374             0.0000000000
     46532       374  PMPE      H14Y           43.6311768791       39.4662620497        0.3356874956  MEMB      374             0.0000000000
     46533       374  PMPE      C315           44.8745747769       37.9210162164        1.2043334086  MEMB      374             0.0000000000
     46534       374  PMPE      H15X           45.7600687685       38.3941560627        0.7285591228  MEMB      374             0.0000000000
     46535       374  PMPE      H15Y           44.9127161153       36.8347183813        0.9744987569  MEMB      374             0.0000000000
     46536       374  PMPE      C316           44.7608372433       38.1297462170        2.7138706789  MEMB      374             0.0000000000
     46537       374  PMPE      H16X           45.2817672684       37.3123867406        3.2568954423  MEMB      374             0.0000000000
     46538       374  PMPE      H16Y           43.6922690355       37.9566204475        2.9638927012  MEMB      374             0.0000000000
     46539       374  PMPE      H16Z           45.0539404840       39.1490349994        3.0447203662  MEMB      374             0.0000000000
     46540       375  QMPE      N             -22.8518512033      -52.7518302671      -17.8373879250  MEMB      375             0.0000000000
     46541       375  QMPE      HN1           -22.8469923994      -51.7610490075      -17.5212727321  MEMB      375             0.0000000000
     46542       375  QMPE      HN2           -23.7243467017      -53.2226980848      -17.5233257509  MEMB      375             0.0000000000
     46543       375  QMPE      HN3           -22.0165842598      -53.2519972319      -17.4716530207  MEMB      375             0.0000000000
     46544       375  QMPE      C12           -22.7891231204      -52.9304886040      -19.3114501038  MEMB      375             0.0000000000
     46545       375  QMPE      H12A          -21.8663862854      -53.4908890822      -19.5738025122  MEMB      375             0.0000000000
     46546       375  QMPE      H12B          -22.5027763461      -51.9538550806      -19.7569987689  MEMB      375             0.0000000000
     46547       375  QMPE      C11           -23.9885300519      -53.3580924825      -19.9940964819  MEMB      375             0.0000000000
     46548       375  QMPE      H11A          -23.9879505848      -53.2035391431      -21.0942936508  MEMB      375             0.0000000000
     46549       375  QMPE      H11B          -24.9582170163      -52.9013196183      -19.7018863703  MEMB      375             0.0000000000
     46550       375  QMPE      P             -25.1088967584      -55.4123835090      -18.9430994997  MEMB      375             0.0000000000
     46551       375  QMPE      O13           -24.4137119699      -56.4537571350      -18.2024445006  MEMB      375             0.0000000000
     46552       375  QMPE      O14           -26.2389574939      -55.9013840504      -19.7840557717  MEMB      375             0.0000000000
     46553       375  QMPE      O11           -25.5101292852      -54.2082651348      -17.9570169275  MEMB      375             0.0000000000
     46554       375  QMPE      O12           -24.0074139863      -54.8033569593      -19.9704487876  MEMB      375             0.0000000000
     46555       375  QMPE      C1            -26.7191435328      -53.5919089391      -17.7809737543  MEMB      375             0.0000000000
     46556       375  QMPE      HA            -27.5525869681      -54.2398371527      -18.1272138101  MEMB      375             0.0000000000
     46557       375  QMPE      HB            -26.7416861174      -52.6802684011      -18.4155796133  MEMB      375             0.0000000000
     46558       375  QMPE      C2            -26.9803057479      -53.3319789001      -16.2931467596  MEMB      375             0.0000000000
     46559       375  QMPE      HS            -28.0860452267      -53.2801829642      -16.1983934184  MEMB      375             0.0000000000
     46560       375  QMPE      O21           -26.3638424582      -52.0697567861      -15.9832365423  MEMB      375             0.0000000000
     46561       375  QMPE      C21           -26.4371427733      -51.6708210897      -14.7527153477  MEMB      375             0.0000000000
     46562       375  QMPE      O22           -27.1619662811      -52.1344722249      -13.8485035741  MEMB      375             0.0000000000
     46563       375  QMPE      C22           -25.5221554113      -50.5044231155      -14.6001831004  MEMB      375             0.0000000000
     46564       375  QMPE      H2R           -25.8175875103      -49.8067628514      -15.4127780714  MEMB      375             0.0000000000
     46565       375  QMPE      H2S           -24.4504257960      -50.7879922636      -14.6730189803  MEMB      375             0.0000000000
     46566       375  QMPE      C3            -26.4263142911      -54.5330333021      -15.3968602590  MEMB      375             0.0000000000
     46567       375  QMPE      HX            -26.7576736905      -55.4271605975      -15.9669992840  MEMB      375             0.0000000000
     46568       375  QMPE      HY            -26.9071120178      -54.4280297622      -14.4008036789  MEMB      375             0.0000000000
     46569       375  QMPE      O31           -24.9945723053      -54.4783169790      -15.2356639650  MEMB      375             0.0000000000
     46570       375  QMPE      C31           -24.4323367008      -55.5862638769      -14.7831203397  MEMB      375             0.0000000000
     46571       375  QMPE      O32           -25.0453062987      -56.6480746070      -14.5916457492  MEMB      375             0.0000000000
     46572       375  QMPE      C32           -23.0208868420      -55.0996096723      -14.5135800073  MEMB      375             0.0000000000
     46573       375  QMPE      H2X           -22.2994039938      -55.9104120436      -14.7510308842  MEMB      375             0.0000000000
     46574       375  QMPE      H2Y           -22.7884163456      -54.1878615516      -15.1043370524  MEMB      375             0.0000000000
     46575       375  QMPE      C23           -25.8545561021      -49.9167614343      -13.1731152331  MEMB      375             0.0000000000
     46576       375  QMPE      H3R           -25.7085131471      -50.7681189318      -12.4744146050  MEMB      375             0.0000000000
     46577       375  QMPE      H3S           -26.9459254153      -49.7088862781      -13.1684388862  MEMB      375             0.0000000000
     46578       375  QMPE      C24           -25.0058895904      -48.6818598613      -12.6467952623  MEMB      375             0.0000000000
     46579       375  QMPE      H4R           -24.8625933974      -47.9474127412      -13.4679988190  MEMB      375             0.0000000000
     46580       375  QMPE      H4S           -24.0171506312      -49.1485313817      -12.4494791207  MEMB      375             0.0000000000
     46581       375  QMPE      C25           -25.5751071984      -48.0156561323      -11.3747346119  MEMB      375             0.0000000000
     46582       375  QMPE      H5R           -26.5450088377      -47.5331715033      -11.6213523170  MEMB      375             0.0000000000
     46583       375  QMPE      H5S           -24.9500389758      -47.1817079362      -10.9898433370  MEMB      375             0.0000000000
     46584       375  QMPE      C26           -25.8564881863      -48.8640646099      -10.0917864856  MEMB      375             0.0000000000
     46585       375  QMPE      H6R           -26.5401033512      -49.6656513631      -10.4445623792  MEMB      375             0.0000000000
     46586       375  QMPE      H6S           -26.3941648727      -48.2737398395       -9.3192961788  MEMB      375             0.0000000000
     46587       375  QMPE      C27           -24.6874582582      -49.6694563299       -9.4518942590  MEMB      375             0.0000000000
     46588       375  QMPE      H7R           -23.9095508841      -49.7522714089      -10.2407685494  MEMB      375             0.0000000000
     46589       375  QMPE      H7S           -24.9495786603      -50.7116192553       -9.1699187086  MEMB      375             0.0000000000
     46590       375  QMPE      C28           -24.0092089605      -49.1317918588       -8.1454607415  MEMB      375             0.0000000000
     46591       375  QMPE      H8R           -23.1128742853      -49.7233207476       -7.8608578039  MEMB      375             0.0000000000
     46592       375  QMPE      H8S           -24.7663556848      -49.1942036473       -7.3348102288  MEMB      375             0.0000000000
     46593       375  QMPE      C29           -23.6264376269      -47.6458884632       -8.1076349933  MEMB      375             0.0000000000
     46594       375  QMPE      H9R           -24.3391029179      -46.8620585814       -8.4423587477  MEMB      375             0.0000000000
     46595       375  QMPE      C217          -22.1675448669      -47.3631124125       -8.5541885795  MEMB      375             0.0000000000
     46596       375  QMPE      H17R          -21.7176601738      -48.3143868535       -8.8102549864  MEMB      375             0.0000000000
     46597       375  QMPE      H17S          -22.1748538468      -46.5608018504       -9.2816043693  MEMB      375             0.0000000000
     46598       375  QMPE      C210          -22.6450773980      -47.1699906243       -7.1392804692  MEMB      375             0.0000000000
     46599       375  QMPE      H10R          -22.7971708893      -46.0875794916       -6.9403456514  MEMB      375             0.0000000000
     46600       375  QMPE      C211          -21.8776718338      -47.9804346742       -6.1597791174  MEMB      375             0.0000000000
     46601       375  QMPE      H11R          -21.5152954572      -48.9097232050       -6.6490914685  MEMB      375             0.0000000000
     46602       375  QMPE      H11S          -20.9606623933      -47.3875049984       -5.9552081023  MEMB      375             0.0000000000
     46603       375  QMPE      C212          -22.6431879051      -48.3550343131       -4.8240326814  MEMB      375             0.0000000000
     46604       375  QMPE      H12R          -21.9569579132      -48.7580914373       -4.0488206158  MEMB      375             0.0000000000
     46605       375  QMPE      H12S          -23.2836247708      -49.2490427072       -4.9818639190  MEMB      375             0.0000000000
     46606       375  QMPE      C213          -23.3566412664      -47.1930713474       -4.0908761757  MEMB      375             0.0000000000
     46607       375  QMPE      H13R          -24.0687902648      -46.7892772960       -4.8419520905  MEMB      375             0.0000000000
     46608       375  QMPE      H13S          -22.5721358944      -46.4303841736       -3.8980518615  MEMB      375             0.0000000000
     46609       375  QMPE      C214          -24.1043527258      -47.6641758629       -2.7747389960  MEMB      375             0.0000000000
     46610       375  QMPE      H14R          -24.2507085882      -48.7348143334       -3.0328759721  MEMB      375             0.0000000000
     46611       375  QMPE      H14S          -25.1237208946      -47.2360860803       -2.6654293206  MEMB      375             0.0000000000
     46612       375  QMPE      C215          -23.3858214952      -47.3505091139       -1.3976383647  MEMB      375             0.0000000000
     46613       375  QMPE      H15R          -24.0165678327      -47.8825586600       -0.6537272122  MEMB      375             0.0000000000
     46614       375  QMPE      H15S          -23.4923956464      -46.2567027797       -1.2346954830  MEMB      375             0.0000000000
     46615       375  QMPE      C216          -21.9651131366      -47.8373423235       -1.4785761813  MEMB      375             0.0000000000
     46616       375  QMPE      H16R          -21.9599960683      -48.7916556485       -2.0474173004  MEMB      375             0.0000000000
     46617       375  QMPE      H16S          -21.5151892871      -48.0248772099       -0.4802169845  MEMB      375             0.0000000000
     46618       375  QMPE      H16T          -21.3997379623      -47.0628761901       -2.0397118064  MEMB      375             0.0000000000
     46619       375  QMPE      C33           -22.8400738971      -54.7240682736      -13.0155375317  MEMB      375             0.0000000000
     46620       375  QMPE      H3X           -21.7897463857      -54.3630402655      -12.9873931165  MEMB      375             0.0000000000
     46621       375  QMPE      H3Y           -22.9992159513      -55.6315575145      -12.3946845071  MEMB      375             0.0000000000
     46622       375  QMPE      C34           -23.7487341507      -53.6215428681      -12.3036271085  MEMB      375             0.0000000000
     46623       375  QMPE      H4X           -24.8061727997      -53.8992978314      -12.5011020602  MEMB      375             0.0000000000
     46624       375  QMPE      H4Y           -23.6517657501      -52.6230537416      -12.7810551045  MEMB      375             0.0000000000
     46625       375  QMPE      C35           -23.5342185117      -53.4920901710      -10.8526095292  MEMB      375             0.0000000000
     46626       375  QMPE      H5X           -24.2558933210      -52.7402672420      -10.4675522319  MEMB      375             0.0000000000
     46627       375  QMPE      H5Y           -22.5155127199      -53.1587776560      -10.5602700426  MEMB      375             0.0000000000
     46628       375  QMPE      C36           -23.7838421643      -54.8048782424      -10.1651177788  MEMB      375             0.0000000000
     46629       375  QMPE      H6X           -22.9065006080      -55.4522312620      -10.3784876586  MEMB      375             0.0000000000
     46630       375  QMPE      H6Y           -24.7028779558      -55.2261738654      -10.6257741508  MEMB      375             0.0000000000
     46631       375  QMPE      C37           -24.0392822699      -54.5319093902       -8.6888477515  MEMB      375             0.0000000000
     46632       375  QMPE      H7X           -23.1447516082      -54.0911804301       -8.1990585319  MEMB      375             0.0000000000
     46633       375  QMPE      H7Y           -24.8865732176      -53.8135018850       -8.6712435559  MEMB      375             0.0000000000
     46634       375  QMPE      C38           -24.4135351909      -55.7644166113       -7.8359286845  MEMB      375             0.0000000000
     46635       375  QMPE      H8X           -25.2270511294      -56.4157852794       -8.2209370804  MEMB      375             0.0000000000
     46636       375  QMPE      H8Y           -23.5272342806      -56.4343237658       -7.8318833314  MEMB      375             0.0000000000
     46637       375  QMPE      C39           -24.6558461478      -55.4196236499       -6.3833520266  MEMB      375             0.0000000000
     46638       375  QMPE      H9X           -23.7927478507      -54.9661163856       -5.8507040970  MEMB      375             0.0000000000
     46639       375  QMPE      H9Y           -24.9688046271      -56.3333799408       -5.8343274350  MEMB      375             0.0000000000
     46640       375  QMPE      C310          -25.8750367764      -54.4430053123       -6.2696585427  MEMB      375             0.0000000000
     46641       375  QMPE      H10X          -26.6268989465      -55.0039555073       -6.8649387417  MEMB      375             0.0000000000
     46642       375  QMPE      H10Y          -25.6743845255      -53.4278294567       -6.6739818203  MEMB      375             0.0000000000
     46643       375  QMPE      C311          -26.2864700256      -54.2149923992       -4.8250159348  MEMB      375             0.0000000000
     46644       375  QMPE      H11X          -26.6805085732      -55.1844254037       -4.4518481563  MEMB      375             0.0000000000
     46645       375  QMPE      H11Y          -27.1278280896      -53.4905590250       -4.8654356478  MEMB      375             0.0000000000
     46646       375  QMPE      C312          -25.1598205447      -53.7180731618       -3.9398799062  MEMB      375             0.0000000000
     46647       375  QMPE      H12X          -24.7197094955      -52.9196443653       -4.5748087822  MEMB      375             0.0000000000
     46648       375  QMPE      H12Y          -24.3946109142      -54.5150224018       -3.8230585797  MEMB      375             0.0000000000
     46649       375  QMPE      C313          -25.6410481485      -53.1031899237       -2.6504361185  MEMB      375             0.0000000000
     46650       375  QMPE      H13X          -26.2372612224      -52.2356023096       -3.0056012889  MEMB      375             0.0000000000
     46651       375  QMPE      H13Y          -26.2255919651      -53.8155384600       -2.0298000419  MEMB      375             0.0000000000
     46652       375  QMPE      C314          -24.4894566196      -52.5829166913       -1.7538585117  MEMB      375             0.0000000000
     46653       375  QMPE      H14X          -24.0068464864      -53.5337361573       -1.4418474541  MEMB      375             0.0000000000
     46654       375  QMPE      H14Y          -24.8393806952      -52.1287987620       -0.8022017035  MEMB      375             0.0000000000
     46655       375  QMPE      C315          -23.4124717295      -51.6462875878       -2.3368474681  MEMB      375             0.0000000000
     46656       375  QMPE      H15X          -23.7404166034      -51.1825830205       -3.2917042093  MEMB      375             0.0000000000
     46657       375  QMPE      H15Y          -23.0641935916      -50.8344680857       -1.6630715350  MEMB      375             0.0000000000
     46658       375  QMPE      H15Z          -22.5662233226      -52.3500332147       -2.4882608912  MEMB      375             0.0000000000
     46659       376  OYPE      N              30.8617639565      -53.2852276778      -19.2717524020  MEMB      376             0.0000000000
     46660       376  OYPE      HN1            31.2640508472      -53.8902611550      -20.0158624340  MEMB      376             0.0000000000
     46661       376  OYPE      HN2            29.9267348793      -53.6252487142      -18.9689219496  MEMB      376             0.0000000000
     46662       376  OYPE      HN3            30.7280247565      -52.2882036394      -19.5356783822  MEMB      376             0.0000000000
     46663       376  OYPE      C12            31.9510912724      -53.4165080312      -18.2104657913  MEMB      376             0.0000000000
     46664       376  OYPE      H12A           32.5421041007      -54.3104132341      -18.5036521150  MEMB      376             0.0000000000
     46665       376  OYPE      H12B           31.4746634980      -53.5416279268      -17.2146333116  MEMB      376             0.0000000000
     46666       376  OYPE      C11            32.7081791931      -52.0782255946      -18.1482318841  MEMB      376             0.0000000000
     46667       376  OYPE      H11A           33.3433242725      -52.2767181736      -17.2585620660  MEMB      376             0.0000000000
     46668       376  OYPE      H11B           32.0228744011      -51.2653405311      -17.8259026574  MEMB      376             0.0000000000
     46669       376  OYPE      P              34.1921894771      -50.3989382884      -19.3462794547  MEMB      376             0.0000000000
     46670       376  OYPE      O13            33.1409706246      -49.3592998056      -19.6630366411  MEMB      376             0.0000000000
     46671       376  OYPE      O14            35.4546541347      -50.5211599064      -20.1639216074  MEMB      376             0.0000000000
     46672       376  OYPE      O11            34.5265670284      -50.3584801845      -17.8487136936  MEMB      376             0.0000000000
     46673       376  OYPE      O12            33.5126138786      -51.8313173098      -19.3475985296  MEMB      376             0.0000000000
     46674       376  OYPE      C1             35.2897368847      -49.1880312049      -17.3750207198  MEMB      376             0.0000000000
     46675       376  OYPE      HA             34.7007249812      -48.3269541875      -17.7570315313  MEMB      376             0.0000000000
     46676       376  OYPE      HB             36.3046295859      -49.1239247931      -17.8224625241  MEMB      376             0.0000000000
     46677       376  OYPE      C2             35.3090779249      -49.1636540486      -15.7949332554  MEMB      376             0.0000000000
     46678       376  OYPE      HS             35.9715971531      -48.3512979266      -15.4268745353  MEMB      376             0.0000000000
     46679       376  OYPE      O21            35.6649142081      -50.5152376868      -15.4000041028  MEMB      376             0.0000000000
     46680       376  OYPE      C21            36.9870616379      -50.8171816148      -15.3257295668  MEMB      376             0.0000000000
     46681       376  OYPE      O22            37.8519414076      -50.0471953201      -15.7607122263  MEMB      376             0.0000000000
     46682       376  OYPE      C22            37.2095851141      -52.2070659296      -14.7279879971  MEMB      376             0.0000000000
     46683       376  OYPE      H2R            37.5260661930      -52.8574888353      -15.5712618183  MEMB      376             0.0000000000
     46684       376  OYPE      H2S            36.2828980403      -52.7030063435      -14.3679663377  MEMB      376             0.0000000000
     46685       376  OYPE      C3             33.9591307414      -48.8587200162      -15.1904226007  MEMB      376             0.0000000000
     46686       376  OYPE      HX             33.2490602734      -49.6443404506      -15.5264605549  MEMB      376             0.0000000000
     46687       376  OYPE      HY             33.7515823551      -47.8138657849      -15.5058971913  MEMB      376             0.0000000000
     46688       376  OYPE      O31            34.0634710894      -48.7905748871      -13.7720953522  MEMB      376             0.0000000000
     46689       376  OYPE      C31            33.6477336743      -49.7847694353      -13.0271985640  MEMB      376             0.0000000000
     46690       376  OYPE      O32            33.2433196822      -50.8444174142      -13.4647296306  MEMB      376             0.0000000000
     46691       376  OYPE      C32            33.8852221586      -49.2710800261      -11.5068843013  MEMB      376             0.0000000000
     46692       376  OYPE      H2X            34.9941241058      -49.2464767656      -11.4432293626  MEMB      376             0.0000000000
     46693       376  OYPE      H2Y            33.3870253248      -48.2795200104      -11.4527555703  MEMB      376             0.0000000000
     46694       376  OYPE      C23            38.2591866516      -52.0669679492      -13.6353680615  MEMB      376             0.0000000000
     46695       376  OYPE      H3R            39.1679222080      -51.5154065324      -13.9583238922  MEMB      376             0.0000000000
     46696       376  OYPE      H3S            38.6507699581      -53.0596525165      -13.3262386206  MEMB      376             0.0000000000
     46697       376  OYPE      C24            37.7051385855      -51.3420517667      -12.3588069145  MEMB      376             0.0000000000
     46698       376  OYPE      H4R            36.7728340417      -51.8543768299      -12.0384129356  MEMB      376             0.0000000000
     46699       376  OYPE      H4S            37.4837922192      -50.2716395375      -12.5576649852  MEMB      376             0.0000000000
     46700       376  OYPE      C25            38.6700100541      -51.3250123224      -11.1753218201  MEMB      376             0.0000000000
     46701       376  OYPE      H5R            39.7079415994      -51.1642308192      -11.5374934006  MEMB      376             0.0000000000
     46702       376  OYPE      H5S            38.7136302065      -52.3146994379      -10.6723921389  MEMB      376             0.0000000000
     46703       376  OYPE      C26            38.3519324612      -50.2329886835      -10.0609683166  MEMB      376             0.0000000000
     46704       376  OYPE      H6R            38.2511267534      -49.2237797887      -10.5144621018  MEMB      376             0.0000000000
     46705       376  OYPE      H6S            38.9102931129      -50.2841119326       -9.1018323586  MEMB      376             0.0000000000
     46706       376  OYPE      C27            36.9995675271      -50.3123274471       -9.3198005838  MEMB      376             0.0000000000
     46707       376  OYPE      H7R            36.9818107634      -51.2240873503       -8.6852142584  MEMB      376             0.0000000000
     46708       376  OYPE      H7S            36.1661927420      -50.4421488094      -10.0429559546  MEMB      376             0.0000000000
     46709       376  OYPE      C28            36.8236151017      -48.9947346188       -8.5095230060  MEMB      376             0.0000000000
     46710       376  OYPE      H8R            36.6924942200      -48.1661518044       -9.2379318103  MEMB      376             0.0000000000
     46711       376  OYPE      H8S            37.7005133935      -48.8025760027       -7.8549649673  MEMB      376             0.0000000000
     46712       376  OYPE      C29            35.6189257837      -48.9342211047       -7.6063636752  MEMB      376             0.0000000000
     46713       376  OYPE      H9R            34.6289378608      -48.6878777121       -8.0177498036  MEMB      376             0.0000000000
     46714       376  OYPE      C210           35.4434831476      -49.5766217543       -6.4391178412  MEMB      376             0.0000000000
     46715       376  OYPE      H10R           34.5211287020      -49.3943161282       -5.8681296819  MEMB      376             0.0000000000
     46716       376  OYPE      C211           36.3488801040      -50.4411437206       -5.6120083145  MEMB      376             0.0000000000
     46717       376  OYPE      H11R           37.1653788836      -49.7040399866       -5.4560306884  MEMB      376             0.0000000000
     46718       376  OYPE      H11S           36.7292007954      -51.3268019149       -6.1645354882  MEMB      376             0.0000000000
     46719       376  OYPE      C212           35.8146110638      -50.9254717995       -4.2375541525  MEMB      376             0.0000000000
     46720       376  OYPE      H12R           34.7826065110      -51.3287401870       -4.3191747372  MEMB      376             0.0000000000
     46721       376  OYPE      H12S           35.8418582374      -50.1012247296       -3.4931112567  MEMB      376             0.0000000000
     46722       376  OYPE      C213           36.6932454184      -51.9449071275       -3.5727560362  MEMB      376             0.0000000000
     46723       376  OYPE      H13R           36.3468281420      -52.1189069547       -2.5315821961  MEMB      376             0.0000000000
     46724       376  OYPE      H13S           37.7248198956      -51.5333515624       -3.6009842990  MEMB      376             0.0000000000
     46725       376  OYPE      C214           36.8665518197      -53.2658958563       -4.3156793692  MEMB      376             0.0000000000
     46726       376  OYPE      H14R           37.4746575738      -53.0775491180       -5.2262040248  MEMB      376             0.0000000000
     46727       376  OYPE      H14S           35.8982639600      -53.6708007177       -4.6800855553  MEMB      376             0.0000000000
     46728       376  OYPE      C215           37.7195936680      -54.3786354478       -3.6184597222  MEMB      376             0.0000000000
     46729       376  OYPE      H15R           38.7779274122      -54.0412628497       -3.5977172865  MEMB      376             0.0000000000
     46730       376  OYPE      H15S           37.7882297428      -55.2355398173       -4.3222524851  MEMB      376             0.0000000000
     46731       376  OYPE      C216           37.1612957711      -54.7753138774       -2.2922644641  MEMB      376             0.0000000000
     46732       376  OYPE      H16R           36.1541228633      -55.2354961070       -2.3825743171  MEMB      376             0.0000000000
     46733       376  OYPE      H16S           37.1813939944      -53.9279070328       -1.5740594118  MEMB      376             0.0000000000
     46734       376  OYPE      H16T           37.7409182222      -55.5713825804       -1.7778380902  MEMB      376             0.0000000000
     46735       376  OYPE      C33            33.3288074046      -50.2893558762      -10.5164179569  MEMB      376             0.0000000000
     46736       376  OYPE      H3X            33.7307726220      -50.2374470931       -9.4819854778  MEMB      376             0.0000000000
     46737       376  OYPE      H3Y            33.5927165104      -51.3172753471      -10.8451339464  MEMB      376             0.0000000000
     46738       376  OYPE      C34            31.8073083451      -50.1686484518      -10.3891096723  MEMB      376             0.0000000000
     46739       376  OYPE      H4X            31.4956605034      -49.1191092873      -10.5779585002  MEMB      376             0.0000000000
     46740       376  OYPE      H4Y            31.3517374761      -50.6812017557      -11.2632174869  MEMB      376             0.0000000000
     46741       376  OYPE      C35            30.9632094523      -50.8935099959       -9.2385659607  MEMB      376             0.0000000000
     46742       376  OYPE      H5X            31.2934052605      -51.9535719725       -9.2780688280  MEMB      376             0.0000000000
     46743       376  OYPE      H5Y            29.9443559495      -50.8706255131       -9.6809851724  MEMB      376             0.0000000000
     46744       376  OYPE      C36            31.1775062414      -50.4604577655       -7.7987857040  MEMB      376             0.0000000000
     46745       376  OYPE      H6X            30.2676579660      -50.7888069318       -7.2522654729  MEMB      376             0.0000000000
     46746       376  OYPE      H6Y            32.0994297863      -50.9146162708       -7.3767446073  MEMB      376             0.0000000000
     46747       376  OYPE      C37            31.2221077361      -48.9101515090       -7.6536675092  MEMB      376             0.0000000000
     46748       376  OYPE      H7X            32.2056903000      -48.5365076599       -8.0104263349  MEMB      376             0.0000000000
     46749       376  OYPE      H7Y            30.3717651655      -48.3596784546       -8.1099764007  MEMB      376             0.0000000000
     46750       376  OYPE      C38            30.9869583362      -48.3448585676       -6.1992457583  MEMB      376             0.0000000000
     46751       376  OYPE      H8X            30.4353208746      -47.3853200144       -6.2956973067  MEMB      376             0.0000000000
     46752       376  OYPE      H8Y            30.2700734618      -49.1068994554       -5.8254927462  MEMB      376             0.0000000000
     46753       376  OYPE      C39            32.1912860636      -48.2084873585       -5.3527338119  MEMB      376             0.0000000000
     46754       376  OYPE      H9X            33.0825365028      -47.9431199799       -5.9403163764  MEMB      376             0.0000000000
     46755       376  OYPE      C310           32.3695706220      -48.3753985461       -4.0364144160  MEMB      376             0.0000000000
     46756       376  OYPE      H10X           33.3238102070      -48.1523781107       -3.5367262003  MEMB      376             0.0000000000
     46757       376  OYPE      C311           31.1833140772      -48.7274650607       -3.0738716673  MEMB      376             0.0000000000
     46758       376  OYPE      H11X           31.0897942561      -47.8925069081       -2.3469463014  MEMB      376             0.0000000000
     46759       376  OYPE      H11Y           30.1701293049      -48.9844602905       -3.4503440824  MEMB      376             0.0000000000
     46760       376  OYPE      C312           31.5517934180      -50.0823430619       -2.2262284721  MEMB      376             0.0000000000
     46761       376  OYPE      H12X           30.7503958726      -50.0193353498       -1.4593436421  MEMB      376             0.0000000000
     46762       376  OYPE      H12Y           32.5715282376      -49.9723950616       -1.7991783745  MEMB      376             0.0000000000
     46763       376  OYPE      C313           31.4117879103      -51.3067144150       -3.1558357303  MEMB      376             0.0000000000
     46764       376  OYPE      H13X           30.5554455744      -51.3589515253       -3.8617181516  MEMB      376             0.0000000000
     46765       376  OYPE      H13Y           32.3745015045      -51.4252069452       -3.6975585476  MEMB      376             0.0000000000
     46766       376  OYPE      C314           31.3981757389      -52.5905665402       -2.3338091488  MEMB      376             0.0000000000
     46767       376  OYPE      H14X           31.1422106571      -53.4303366561       -3.0146817599  MEMB      376             0.0000000000
     46768       376  OYPE      H14Y           30.5686278831      -52.5696992043       -1.5950692243  MEMB      376             0.0000000000
     46769       376  OYPE      C315           32.6322843132      -52.7951664882       -1.5286888080  MEMB      376             0.0000000000
     46770       376  OYPE      H15X           32.9335693507      -51.8491851235       -1.0300233551  MEMB      376             0.0000000000
     46771       376  OYPE      H15Y           33.5009642524      -52.8950110118       -2.2140697574  MEMB      376             0.0000000000
     46772       376  OYPE      C316           32.6190956288      -53.9557034891       -0.5116312444  MEMB      376             0.0000000000
     46773       376  OYPE      H16X           32.3306241819      -54.8580973216       -1.0919674344  MEMB      376             0.0000000000
     46774       376  OYPE      H16Y           31.8390263150      -53.9355349095        0.2791937278  MEMB      376             0.0000000000
     46775       376  OYPE      C317           34.0302630875      -54.2174125448        0.1352711402  MEMB      376             0.0000000000
     46776       376  OYPE      H17X           34.6207284066      -54.8202902660       -0.5873687124  MEMB      376             0.0000000000
     46777       376  OYPE      H17Y           33.8242420414      -54.9252037169        0.9664798980  MEMB      376             0.0000000000
     46778       376  OYPE      C318           34.7468936377      -53.0455883084        0.7177072334  MEMB      376             0.0000000000
     46779       376  OYPE      H18X           35.7809793268      -53.3709077088        0.9609244659  MEMB      376             0.0000000000
     46780       376  OYPE      H18Y           34.7933521867      -52.1801139347        0.0226402636  MEMB      376             0.0000000000
     46781       376  OYPE      H18Z           34.3037654856      -52.5970058342        1.6324373086  MEMB      376             0.0000000000
     46782       377  PMPE      N             -34.8776296849       52.0478399954      -19.9778067441  MEMB      377             0.0000000000
     46783       377  PMPE      HN1           -35.0779262921       52.7557525519      -19.2427277391  MEMB      377             0.0000000000
     46784       377  PMPE      HN2           -34.1104938301       51.5087317947      -19.5278457725  MEMB      377             0.0000000000
     46785       377  PMPE      HN3           -34.5981815452       52.3495769698      -20.9330363492  MEMB      377             0.0000000000
     46786       377  PMPE      C12           -36.0310997512       51.2048329868      -20.3337188066  MEMB      377             0.0000000000
     46787       377  PMPE      H12A          -35.5880594954       50.5398754962      -21.1056437649  MEMB      377             0.0000000000
     46788       377  PMPE      H12B          -36.7865879282       51.9632740903      -20.6309148941  MEMB      377             0.0000000000
     46789       377  PMPE      C11           -36.5949722887       50.3774529509      -19.2053135920  MEMB      377             0.0000000000
     46790       377  PMPE      H11A          -37.6768340557       50.6068879039      -19.0992202909  MEMB      377             0.0000000000
     46791       377  PMPE      H11B          -36.1002833683       50.7668696646      -18.2899128331  MEMB      377             0.0000000000
     46792       377  PMPE      P             -37.2032404765       47.9612383786      -18.5004173667  MEMB      377             0.0000000000
     46793       377  PMPE      O13           -36.5695602342       46.6552700738      -18.6597832969  MEMB      377             0.0000000000
     46794       377  PMPE      O14           -38.6250346998       48.0357554930      -18.8993405936  MEMB      377             0.0000000000
     46795       377  PMPE      O11           -36.9860853494       48.4644027521      -17.0322063074  MEMB      377             0.0000000000
     46796       377  PMPE      O12           -36.2536799186       48.9823193705      -19.3914132931  MEMB      377             0.0000000000
     46797       377  PMPE      C1            -35.6839241629       48.3209340582      -16.4310269323  MEMB      377             0.0000000000
     46798       377  PMPE      HA            -35.0764277385       49.1650584828      -16.8218248086  MEMB      377             0.0000000000
     46799       377  PMPE      HB            -35.1993663517       47.3749706827      -16.7545666734  MEMB      377             0.0000000000
     46800       377  PMPE      C2            -35.9008973912       48.3575368997      -14.9126183277  MEMB      377             0.0000000000
     46801       377  PMPE      HS            -36.6535969369       47.6071160699      -14.5891480946  MEMB      377             0.0000000000
     46802       377  PMPE      O21           -36.4231540298       49.6401575762      -14.6634409510  MEMB      377             0.0000000000
     46803       377  PMPE      C21           -37.2342992485       49.8302611706      -13.6490611828  MEMB      377             0.0000000000
     46804       377  PMPE      O22           -37.7081877400       48.9073944262      -12.9554686399  MEMB      377             0.0000000000
     46805       377  PMPE      C22           -37.5248423012       51.3330185070      -13.5412211051  MEMB      377             0.0000000000
     46806       377  PMPE      H2R           -38.5464019106       51.3378404681      -13.9779290771  MEMB      377             0.0000000000
     46807       377  PMPE      H2S           -36.8484875800       51.9473682025      -14.1732338655  MEMB      377             0.0000000000
     46808       377  PMPE      C3            -34.6468638041       48.0719619389      -14.0694246966  MEMB      377             0.0000000000
     46809       377  PMPE      HX            -33.8202406901       48.7805691309      -14.2905382338  MEMB      377             0.0000000000
     46810       377  PMPE      HY            -34.1897374321       47.1008021485      -14.3561390733  MEMB      377             0.0000000000
     46811       377  PMPE      O31           -34.8058346807       48.1095363711      -12.6762792974  MEMB      377             0.0000000000
     46812       377  PMPE      C31           -35.4837770310       47.1158501322      -12.0692190074  MEMB      377             0.0000000000
     46813       377  PMPE      O32           -35.7079385096       46.0707535856      -12.6296281674  MEMB      377             0.0000000000
     46814       377  PMPE      C32           -35.9150164311       47.5039487017      -10.7440950822  MEMB      377             0.0000000000
     46815       377  PMPE      H2X           -36.7101131882       48.2634659890      -10.9030787564  MEMB      377             0.0000000000
     46816       377  PMPE      H2Y           -35.1126832447       48.0234526154      -10.1777924311  MEMB      377             0.0000000000
     46817       377  PMPE      C23           -37.2744234068       51.6560974550      -12.0964177370  MEMB      377             0.0000000000
     46818       377  PMPE      H3R           -37.3466462472       52.7485681255      -11.9077043087  MEMB      377             0.0000000000
     46819       377  PMPE      H3S           -36.2937817720       51.3740256913      -11.6569879518  MEMB      377             0.0000000000
     46820       377  PMPE      C24           -38.3823623796       51.2868376431      -11.1030349607  MEMB      377             0.0000000000
     46821       377  PMPE      H4R           -38.4554436851       50.1910325187      -10.9351320391  MEMB      377             0.0000000000
     46822       377  PMPE      H4S           -39.3142159632       51.6496054585      -11.5871520691  MEMB      377             0.0000000000
     46823       377  PMPE      C25           -38.4601299415       51.9377032641       -9.7079634561  MEMB      377             0.0000000000
     46824       377  PMPE      H5R           -39.4612952962       51.7245370298       -9.2760500357  MEMB      377             0.0000000000
     46825       377  PMPE      H5S           -38.3770325058       53.0270574327       -9.9097635814  MEMB      377             0.0000000000
     46826       377  PMPE      C26           -37.3330808898       51.4774466594       -8.7510596060  MEMB      377             0.0000000000
     46827       377  PMPE      H6R           -36.3180759575       51.6250372769       -9.1780289397  MEMB      377             0.0000000000
     46828       377  PMPE      H6S           -37.4269854784       50.3814703173       -8.5950507672  MEMB      377             0.0000000000
     46829       377  PMPE      C27           -37.4379744985       51.8946876770       -7.2911679731  MEMB      377             0.0000000000
     46830       377  PMPE      H7R           -38.4990504064       51.8167290886       -6.9712284280  MEMB      377             0.0000000000
     46831       377  PMPE      H7S           -37.1423861316       52.9577062074       -7.1610129141  MEMB      377             0.0000000000
     46832       377  PMPE      C28           -36.7438864080       50.9280697870       -6.3187111019  MEMB      377             0.0000000000
     46833       377  PMPE      H8R           -37.2376738108       49.9345766932       -6.3775883159  MEMB      377             0.0000000000
     46834       377  PMPE      H8S           -36.8435883784       51.3281849656       -5.2870680467  MEMB      377             0.0000000000
     46835       377  PMPE      C29           -35.2972730259       50.6500236030       -6.5625208633  MEMB      377             0.0000000000
     46836       377  PMPE      H9R           -34.6187125869       51.5281584242       -6.6150168996  MEMB      377             0.0000000000
     46837       377  PMPE      C217          -34.8129586196       49.4362398048       -7.3918319028  MEMB      377             0.0000000000
     46838       377  PMPE      H17R          -33.9722801662       49.8065721955       -7.9654198938  MEMB      377             0.0000000000
     46839       377  PMPE      H17S          -35.7265458025       49.1158150564       -7.8771932816  MEMB      377             0.0000000000
     46840       377  PMPE      C210          -34.6682796622       49.4555725966       -5.8492826663  MEMB      377             0.0000000000
     46841       377  PMPE      H10R          -33.6032117194       49.5480159748       -5.5469485524  MEMB      377             0.0000000000
     46842       377  PMPE      C211          -35.5107908197       48.4025891648       -5.1854226718  MEMB      377             0.0000000000
     46843       377  PMPE      H11R          -34.8241847985       47.5339361982       -5.0941251050  MEMB      377             0.0000000000
     46844       377  PMPE      H11S          -36.2856090383       48.1289009275       -5.9331338906  MEMB      377             0.0000000000
     46845       377  PMPE      C212          -36.2637621372       48.8078717269       -3.9388137442  MEMB      377             0.0000000000
     46846       377  PMPE      H12R          -37.0838926310       48.0585111544       -3.9516823049  MEMB      377             0.0000000000
     46847       377  PMPE      H12S          -36.5080474836       49.8888525471       -3.8605441748  MEMB      377             0.0000000000
     46848       377  PMPE      C213          -35.3360881124       48.3334861915       -2.7769105942  MEMB      377             0.0000000000
     46849       377  PMPE      H13R          -34.4761427362       49.0368743505       -2.7846530493  MEMB      377             0.0000000000
     46850       377  PMPE      H13S          -35.0822255732       47.2698546868       -2.9732848482  MEMB      377             0.0000000000
     46851       377  PMPE      C214          -35.9791302765       48.3120804839       -1.4070928458  MEMB      377             0.0000000000
     46852       377  PMPE      H14R          -37.0117636971       47.9202424881       -1.5273105342  MEMB      377             0.0000000000
     46853       377  PMPE      H14S          -35.9736625263       49.3615362499       -1.0424909894  MEMB      377             0.0000000000
     46854       377  PMPE      C215          -35.2335666496       47.6020481263       -0.2666122108  MEMB      377             0.0000000000
     46855       377  PMPE      H15R          -35.4778402520       46.5182758373       -0.2571851164  MEMB      377             0.0000000000
     46856       377  PMPE      H15S          -35.4802236787       47.9701594754        0.7521983788  MEMB      377             0.0000000000
     46857       377  PMPE      C216          -33.7006128960       47.7208485957       -0.2467897394  MEMB      377             0.0000000000
     46858       377  PMPE      H16R          -33.2020138304       47.3714506946        0.6825326674  MEMB      377             0.0000000000
     46859       377  PMPE      H16S          -33.2535149586       47.1739683349       -1.1043133077  MEMB      377             0.0000000000
     46860       377  PMPE      H16T          -33.4115017310       48.7883416610       -0.3525920113  MEMB      377             0.0000000000
     46861       377  PMPE      C33           -36.5015565526       46.3232503798       -9.9576329099  MEMB      377             0.0000000000
     46862       377  PMPE      H3X           -35.8394922742       45.4356947814      -10.0483898705  MEMB      377             0.0000000000
     46863       377  PMPE      H3Y           -37.3620489047       45.9038639459      -10.5215378308  MEMB      377             0.0000000000
     46864       377  PMPE      C34           -36.9429036996       46.6657626124       -8.5052175450  MEMB      377             0.0000000000
     46865       377  PMPE      H4X           -37.4000304776       47.6673022287       -8.6544636505  MEMB      377             0.0000000000
     46866       377  PMPE      H4Y           -36.0466104230       46.7188299413       -7.8508756882  MEMB      377             0.0000000000
     46867       377  PMPE      C35           -37.8599188603       45.5429161501       -7.7989979906  MEMB      377             0.0000000000
     46868       377  PMPE      H5X           -37.9208203841       45.8444568946       -6.7314379241  MEMB      377             0.0000000000
     46869       377  PMPE      H5Y           -37.3543201069       44.5584770151       -7.8968280619  MEMB      377             0.0000000000
     46870       377  PMPE      C36           -39.2749208693       45.3717552631       -8.4920140714  MEMB      377             0.0000000000
     46871       377  PMPE      H6X           -39.9226365248       44.8886716906       -7.7295084606  MEMB      377             0.0000000000
     46872       377  PMPE      H6Y           -39.0538133473       44.6749875878       -9.3286432900  MEMB      377             0.0000000000
     46873       377  PMPE      C37           -40.0062216800       46.6954307362       -8.9545890921  MEMB      377             0.0000000000
     46874       377  PMPE      H7X           -40.8953485721       46.4840391665       -9.5863229663  MEMB      377             0.0000000000
     46875       377  PMPE      H7Y           -39.2662065223       47.2516172816       -9.5688814481  MEMB      377             0.0000000000
     46876       377  PMPE      C38           -40.4978903726       47.5353360617       -7.7735084881  MEMB      377             0.0000000000
     46877       377  PMPE      H8X           -39.6623798312       47.6490552986       -7.0501054222  MEMB      377             0.0000000000
     46878       377  PMPE      H8Y           -41.2710625339       46.9874311678       -7.1935720606  MEMB      377             0.0000000000
     46879       377  PMPE      C39           -41.0344790621       48.9004658728       -8.1530763214  MEMB      377             0.0000000000
     46880       377  PMPE      H9X           -41.8226971371       49.0072877953       -8.9287201630  MEMB      377             0.0000000000
     46881       377  PMPE      H9Y           -40.1295679782       49.4479015902       -8.4933278598  MEMB      377             0.0000000000
     46882       377  PMPE      C310          -41.6059770181       49.7694460637       -7.0202242957  MEMB      377             0.0000000000
     46883       377  PMPE      H10X          -42.5913183456       49.3072746010       -6.7970178402  MEMB      377             0.0000000000
     46884       377  PMPE      H10Y          -41.7488724626       50.8405886591       -7.2782079834  MEMB      377             0.0000000000
     46885       377  PMPE      C311          -40.7348458575       50.0194388853       -5.6847423252  MEMB      377             0.0000000000
     46886       377  PMPE      H11X          -40.0534203129       50.7686553846       -6.1415298605  MEMB      377             0.0000000000
     46887       377  PMPE      H11Y          -40.1567647478       49.1166668149       -5.3929449373  MEMB      377             0.0000000000
     46888       377  PMPE      C312          -41.4443510972       50.5380524249       -4.4375968297  MEMB      377             0.0000000000
     46889       377  PMPE      H12X          -42.2206149107       49.7843563858       -4.1852522982  MEMB      377             0.0000000000
     46890       377  PMPE      H12Y          -42.0993028086       51.4115782142       -4.6432947974  MEMB      377             0.0000000000
     46891       377  PMPE      C313          -40.5357183714       50.7103468593       -3.2498857901  MEMB      377             0.0000000000
     46892       377  PMPE      H13X          -40.1547381636       49.7130710917       -2.9422878984  MEMB      377             0.0000000000
     46893       377  PMPE      H13Y          -41.1162450681       51.1541071272       -2.4129937031  MEMB      377             0.0000000000
     46894       377  PMPE      C314          -39.3797526534       51.6540150097       -3.5001173646  MEMB      377             0.0000000000
     46895       377  PMPE      H14X          -39.8204743879       52.5429292555       -4.0000333953  MEMB      377             0.0000000000
     46896       377  PMPE      H14Y          -38.6128036162       51.2680197662       -4.2051823699  MEMB      377             0.0000000000
     46897       377  PMPE      C315          -38.7441518685       52.1054276909       -2.1833613862  MEMB      377             0.0000000000
     46898       377  PMPE      H15X          -38.0950943907       51.2825146619       -1.8147690816  MEMB      377             0.0000000000
     46899       377  PMPE      H15Y          -39.5625620898       52.3493234333       -1.4726991723  MEMB      377             0.0000000000
     46900       377  PMPE      C316          -37.9349053198       53.4539775095       -2.3423249554  MEMB      377             0.0000000000
     46901       377  PMPE      H16X          -38.5942349700       54.2439141820       -2.7613789162  MEMB      377             0.0000000000
     46902       377  PMPE      H16Y          -36.9918539559       53.3053757293       -2.9105617828  MEMB      377             0.0000000000
     46903       377  PMPE      H16Z          -37.8127612951       53.8632148190       -1.3166914482  MEMB      377             0.0000000000
     46904       378  PMPE      N              28.5596406441       53.6924311884      -21.5736911737  MEMB      378             0.0000000000
     46905       378  PMPE      HN1            29.3849173420       53.8423528576      -22.1885421837  MEMB      378             0.0000000000
     46906       378  PMPE      HN2            27.8721573954       53.0498992283      -22.0165449652  MEMB      378             0.0000000000
     46907       378  PMPE      HN3            28.0993555395       54.5813714289      -21.2916931884  MEMB      378             0.0000000000
     46908       378  PMPE      C12            28.9772276544       52.9052122264      -20.3506459356  MEMB      378             0.0000000000
     46909       378  PMPE      H12A           29.2069760850       51.8987155503      -20.7611349058  MEMB      378             0.0000000000
     46910       378  PMPE      H12B           28.1086643869       52.8157468005      -19.6636853174  MEMB      378             0.0000000000
     46911       378  PMPE      C11            30.2041031313       53.4685573347      -19.5742905509  MEMB      378             0.0000000000
     46912       378  PMPE      H11A           31.0466975145       53.4608490224      -20.2983735980  MEMB      378             0.0000000000
     46913       378  PMPE      H11B           30.5393700784       52.8014475974      -18.7515623907  MEMB      378             0.0000000000
     46914       378  PMPE      P              28.7575295463       55.0385252750      -18.0647863100  MEMB      378             0.0000000000
     46915       378  PMPE      O13            27.5186434109       55.2462194346      -18.8505530919  MEMB      378             0.0000000000
     46916       378  PMPE      O14            29.2086358980       56.1271073560      -17.1293759642  MEMB      378             0.0000000000
     46917       378  PMPE      O11            28.6713550690       53.6351957550      -17.3297005130  MEMB      378             0.0000000000
     46918       378  PMPE      O12            29.9413678543       54.7896210613      -19.1269564633  MEMB      378             0.0000000000
     46919       378  PMPE      C1             29.7780598020       53.4952678305      -16.3418119699  MEMB      378             0.0000000000
     46920       378  PMPE      HA             29.6638332511       54.1763972721      -15.4715615076  MEMB      378             0.0000000000
     46921       378  PMPE      HB             30.7585952913       53.7043708717      -16.8205052891  MEMB      378             0.0000000000
     46922       378  PMPE      C2             29.7515189699       52.0415729272      -15.7714164520  MEMB      378             0.0000000000
     46923       378  PMPE      HS             30.0035142176       51.4281103006      -16.6627543939  MEMB      378             0.0000000000
     46924       378  PMPE      O21            28.3880953045       51.8971947410      -15.2251595290  MEMB      378             0.0000000000
     46925       378  PMPE      C21            27.9719746160       50.7324335782      -15.2570404231  MEMB      378             0.0000000000
     46926       378  PMPE      O22            28.4455852501       49.7451080065      -15.8049245080  MEMB      378             0.0000000000
     46927       378  PMPE      C22            26.6723397650       50.5037434222      -14.3896431103  MEMB      378             0.0000000000
     46928       378  PMPE      H2R            25.9218405529       50.2220161278      -15.1588646498  MEMB      378             0.0000000000
     46929       378  PMPE      H2S            26.3309560238       51.4996667329      -14.0347981407  MEMB      378             0.0000000000
     46930       378  PMPE      C3             30.8978236113       51.6376741051      -14.6996078555  MEMB      378             0.0000000000
     46931       378  PMPE      HX             31.7179693791       52.1284584885      -15.2660113095  MEMB      378             0.0000000000
     46932       378  PMPE      HY             31.0974609475       50.5455928401      -14.7423253130  MEMB      378             0.0000000000
     46933       378  PMPE      O31            30.7841719073       52.1685914491      -13.3378591684  MEMB      378             0.0000000000
     46934       378  PMPE      C31            32.0459212722       52.3776148617      -12.7860348554  MEMB      378             0.0000000000
     46935       378  PMPE      O32            33.1021343161       52.3316051783      -13.3912163871  MEMB      378             0.0000000000
     46936       378  PMPE      C32            31.8381238873       52.6807421026      -11.2950506974  MEMB      378             0.0000000000
     46937       378  PMPE      H2X            30.7882934936       52.4571222950      -11.0083955985  MEMB      378             0.0000000000
     46938       378  PMPE      H2Y            32.0548130374       53.7507438435      -11.0889852043  MEMB      378             0.0000000000
     46939       378  PMPE      C23            26.8177033861       49.5030498711      -13.3206073221  MEMB      378             0.0000000000
     46940       378  PMPE      H3R            27.2575583371       48.5596527840      -13.7090016325  MEMB      378             0.0000000000
     46941       378  PMPE      H3S            25.7780451552       49.2023100781      -13.0696352631  MEMB      378             0.0000000000
     46942       378  PMPE      C24            27.5467245284       50.0018267864      -12.1474110793  MEMB      378             0.0000000000
     46943       378  PMPE      H4R            28.5510935529       50.4018772824      -12.4033864351  MEMB      378             0.0000000000
     46944       378  PMPE      H4S            27.7582394143       49.0985629269      -11.5361035074  MEMB      378             0.0000000000
     46945       378  PMPE      C25            26.7576846006       51.0294858031      -11.2874539585  MEMB      378             0.0000000000
     46946       378  PMPE      H5R            25.9930355368       50.5405260410      -10.6467109303  MEMB      378             0.0000000000
     46947       378  PMPE      H5S            26.2901455280       51.8459119846      -11.8783657276  MEMB      378             0.0000000000
     46948       378  PMPE      C26            27.5781422599       51.8307662597      -10.3004457951  MEMB      378             0.0000000000
     46949       378  PMPE      H6R            28.4652852718       52.3298470495      -10.7456611604  MEMB      378             0.0000000000
     46950       378  PMPE      H6S            28.0519136637       51.0720540514       -9.6414936423  MEMB      378             0.0000000000
     46951       378  PMPE      C27            26.6847913183       52.7732192102       -9.5516257449  MEMB      378             0.0000000000
     46952       378  PMPE      H7R            25.9782409916       52.1824591581       -8.9302481434  MEMB      378             0.0000000000
     46953       378  PMPE      H7S            26.0087559397       53.3311296776      -10.2342922325  MEMB      378             0.0000000000
     46954       378  PMPE      C28            27.3325066101       53.7121826203       -8.5095191578  MEMB      378             0.0000000000
     46955       378  PMPE      H8R            28.2456660786       53.1678298673       -8.1868111162  MEMB      378             0.0000000000
     46956       378  PMPE      H8S            26.5588645285       53.7097899838       -7.7121528289  MEMB      378             0.0000000000
     46957       378  PMPE      C29            27.6170688538       55.1056692565       -9.0938455841  MEMB      378             0.0000000000
     46958       378  PMPE      H9R            26.7356420606       55.7575240123       -9.2741054150  MEMB      378             0.0000000000
     46959       378  PMPE      C217           28.9848582372       55.4539330315       -9.7500664585  MEMB      378             0.0000000000
     46960       378  PMPE      H17R           28.8607358172       56.2087547031      -10.5166999349  MEMB      378             0.0000000000
     46961       378  PMPE      H17S           29.6357058354       54.5922451543       -9.8324103294  MEMB      378             0.0000000000
     46962       378  PMPE      C210           28.6042442044       55.9822418756       -8.3789864223  MEMB      378             0.0000000000
     46963       378  PMPE      H10R           28.5228191669       57.0864224815       -8.2869196505  MEMB      378             0.0000000000
     46964       378  PMPE      C211           29.4267999140       55.4229405252       -7.2460144766  MEMB      378             0.0000000000
     46965       378  PMPE      H11R           30.1654682126       56.2235908370       -7.0277281628  MEMB      378             0.0000000000
     46966       378  PMPE      H11S           29.9632509711       54.5051405851       -7.5687912998  MEMB      378             0.0000000000
     46967       378  PMPE      C212           28.4594434600       55.1314194483       -6.0732832650  MEMB      378             0.0000000000
     46968       378  PMPE      H12R           28.2112496209       54.0501295612       -6.0138439508  MEMB      378             0.0000000000
     46969       378  PMPE      H12S           27.4715675065       55.6356117087       -6.1381850689  MEMB      378             0.0000000000
     46970       378  PMPE      C213           29.0823683490       55.2769484046       -4.6043390750  MEMB      378             0.0000000000
     46971       378  PMPE      H13R           29.9167107663       54.5499238850       -4.5062115685  MEMB      378             0.0000000000
     46972       378  PMPE      H13S           28.3234889142       55.0602028671       -3.8223898853  MEMB      378             0.0000000000
     46973       378  PMPE      C214           29.6634384874       56.7535470723       -4.2679352227  MEMB      378             0.0000000000
     46974       378  PMPE      H14R           28.8466040013       57.4133983184       -4.6308385763  MEMB      378             0.0000000000
     46975       378  PMPE      H14S           30.6142195176       56.9266099753       -4.8160101139  MEMB      378             0.0000000000
     46976       378  PMPE      C215           29.8600519392       57.0045207969       -2.7977839919  MEMB      378             0.0000000000
     46977       378  PMPE      H15R           28.9041445833       56.9763550078       -2.2323034495  MEMB      378             0.0000000000
     46978       378  PMPE      H15S           30.1570833655       58.0744683496       -2.7616475923  MEMB      378             0.0000000000
     46979       378  PMPE      C216           30.9976747356       56.2256386384       -2.2113471245  MEMB      378             0.0000000000
     46980       378  PMPE      H16R           31.5656259420       56.8828442299       -1.5186460649  MEMB      378             0.0000000000
     46981       378  PMPE      H16S           30.6182575061       55.2454030431       -1.8514830657  MEMB      378             0.0000000000
     46982       378  PMPE      H16T           31.7954776193       56.1549132671       -2.9813009626  MEMB      378             0.0000000000
     46983       378  PMPE      C33            32.6651961047       51.7574546600      -10.4298690764  MEMB      378             0.0000000000
     46984       378  PMPE      H3X            33.7424218346       51.9404376300      -10.6309225326  MEMB      378             0.0000000000
     46985       378  PMPE      H3Y            32.4177538873       50.6940863017      -10.6356393363  MEMB      378             0.0000000000
     46986       378  PMPE      C34            32.4713802554       52.1858492549       -8.9449175278  MEMB      378             0.0000000000
     46987       378  PMPE      H4X            32.8138505013       53.2426298660       -8.9607246097  MEMB      378             0.0000000000
     46988       378  PMPE      H4Y            33.2008090225       51.6762561113       -8.2796587453  MEMB      378             0.0000000000
     46989       378  PMPE      C35            31.0766882075       52.0268767256       -8.2607823218  MEMB      378             0.0000000000
     46990       378  PMPE      H5X            30.3188677160       52.3590998071       -9.0021713646  MEMB      378             0.0000000000
     46991       378  PMPE      H5Y            31.0896465750       52.6472097345       -7.3391864665  MEMB      378             0.0000000000
     46992       378  PMPE      C36            30.7182622471       50.5640540236       -7.8289093929  MEMB      378             0.0000000000
     46993       378  PMPE      H6X            31.5793608306       49.9396802821       -7.5079926863  MEMB      378             0.0000000000
     46994       378  PMPE      H6Y            30.4384724554       50.0780977990       -8.7880161560  MEMB      378             0.0000000000
     46995       378  PMPE      C37            29.5530097224       50.4352129217       -6.8664894427  MEMB      378             0.0000000000
     46996       378  PMPE      H7X            29.3200607111       49.3843616898       -6.5912306975  MEMB      378             0.0000000000
     46997       378  PMPE      H7Y            28.6373114269       50.9061426851       -7.2836736964  MEMB      378             0.0000000000
     46998       378  PMPE      C38            29.8108328522       51.1206305374       -5.5202901409  MEMB      378             0.0000000000
     46999       378  PMPE      H8X            29.9522630259       52.2118957884       -5.6734525497  MEMB      378             0.0000000000
     47000       378  PMPE      H8Y            30.7251631714       50.7014050628       -5.0485159384  MEMB      378             0.0000000000
     47001       378  PMPE      C39            28.6100804606       50.8627102139       -4.5993298149  MEMB      378             0.0000000000
     47002       378  PMPE      H9X            28.7593595334       49.7868368965       -4.3658054348  MEMB      378             0.0000000000
     47003       378  PMPE      H9Y            27.5950308261       50.9788358461       -5.0358044214  MEMB      378             0.0000000000
     47004       378  PMPE      C310           28.6969036573       51.6072098200       -3.2160788572  MEMB      378             0.0000000000
     47005       378  PMPE      H10X           28.5704347600       52.6870825343       -3.4445547279  MEMB      378             0.0000000000
     47006       378  PMPE      H10Y           29.7450859235       51.6436189542       -2.8495962843  MEMB      378             0.0000000000
     47007       378  PMPE      C311           27.7613251129       51.2387774823       -2.0829324014  MEMB      378             0.0000000000
     47008       378  PMPE      H11X           28.1030310977       50.2121637756       -1.8306973087  MEMB      378             0.0000000000
     47009       378  PMPE      H11Y           26.7124401382       51.3542105555       -2.4305481252  MEMB      378             0.0000000000
     47010       378  PMPE      C312           27.8575742794       52.1680044398       -0.8065358249  MEMB      378             0.0000000000
     47011       378  PMPE      H12X           28.9280579349       52.4123507950       -0.6371830920  MEMB      378             0.0000000000
     47012       378  PMPE      H12Y           27.5113740951       51.5343890175        0.0378571439  MEMB      378             0.0000000000
     47013       378  PMPE      C313           26.9216495889       53.4060742993       -0.7197070274  MEMB      378             0.0000000000
     47014       378  PMPE      H13X           25.8601097015       53.0796234053       -0.6899801993  MEMB      378             0.0000000000
     47015       378  PMPE      H13Y           27.1096673138       54.0332456680       -1.6172728441  MEMB      378             0.0000000000
     47016       378  PMPE      C314           27.1242007412       54.1780173317        0.5770883469  MEMB      378             0.0000000000
     47017       378  PMPE      H14X           28.0623931399       54.7730904995        0.5751272123  MEMB      378             0.0000000000
     47018       378  PMPE      H14Y           27.0581222914       53.4140596840        1.3810317653  MEMB      378             0.0000000000
     47019       378  PMPE      C315           26.2207365317       55.3529644476        0.8703984532  MEMB      378             0.0000000000
     47020       378  PMPE      H15X           25.1676258046       55.0017771679        0.8262777980  MEMB      378             0.0000000000
     47021       378  PMPE      H15Y           26.4454039070       56.1305834070        0.1093763404  MEMB      378             0.0000000000
     47022       378  PMPE      C316           26.6484475128       56.0009276891        2.1861467164  MEMB      378             0.0000000000
     47023       378  PMPE      H16X           27.6114347844       56.5470286713        2.0926033439  MEMB      378             0.0000000000
     47024       378  PMPE      H16Y           26.7159128022       55.1989100965        2.9520054759  MEMB      378             0.0000000000
     47025       378  PMPE      H16Z           25.8860445375       56.7071094339        2.5790475681  MEMB      378             0.0000000000
     47026       379  PMPE      N             -35.7023330725      -47.0970134829      -20.0500113725  MEMB      379             0.0000000000
     47027       379  PMPE      HN1           -35.2818783583      -47.6404461284      -19.2693073476  MEMB      379             0.0000000000
     47028       379  PMPE      HN2           -35.0722872515      -47.2013262516      -20.8708408873  MEMB      379             0.0000000000
     47029       379  PMPE      HN3           -35.6755539588      -46.0747941069      -19.8604048821  MEMB      379             0.0000000000
     47030       379  PMPE      C12           -37.1211323122      -47.5405394601      -20.3647350694  MEMB      379             0.0000000000
     47031       379  PMPE      H12A          -37.2944725627      -47.0765493235      -21.3592136064  MEMB      379             0.0000000000
     47032       379  PMPE      H12B          -37.8235739181      -47.0269247268      -19.6740132997  MEMB      379             0.0000000000
     47033       379  PMPE      C11           -37.4084574090      -49.0465412644      -20.4186880416  MEMB      379             0.0000000000
     47034       379  PMPE      H11A          -36.6275163674      -49.5604632837      -21.0189681948  MEMB      379             0.0000000000
     47035       379  PMPE      H11B          -38.3021663398      -49.2922905394      -21.0312341205  MEMB      379             0.0000000000
     47036       379  PMPE      P             -38.7619985152      -49.6771017112      -18.2534261705  MEMB      379             0.0000000000
     47037       379  PMPE      O13           -38.8013654803      -50.7893890443      -17.3003565829  MEMB      379             0.0000000000
     47038       379  PMPE      O14           -39.9637466686      -49.5284734983      -19.1451590292  MEMB      379             0.0000000000
     47039       379  PMPE      O11           -38.7375861755      -48.3219661223      -17.4035755077  MEMB      379             0.0000000000
     47040       379  PMPE      O12           -37.4381227571      -49.6278650173      -19.0640482277  MEMB      379             0.0000000000
     47041       379  PMPE      C1            -37.5931061759      -48.0149548209      -16.5543189623  MEMB      379             0.0000000000
     47042       379  PMPE      HA            -36.8964447704      -47.3607433738      -17.1208798972  MEMB      379             0.0000000000
     47043       379  PMPE      HB            -37.0998422337      -48.9725724302      -16.2823259441  MEMB      379             0.0000000000
     47044       379  PMPE      C2            -38.0333382527      -47.3395022691      -15.1746440225  MEMB      379             0.0000000000
     47045       379  PMPE      HS            -37.1565736312      -47.3463960415      -14.4923265475  MEMB      379             0.0000000000
     47046       379  PMPE      O21           -39.1131856505      -48.0787737665      -14.5628702771  MEMB      379             0.0000000000
     47047       379  PMPE      C21           -38.9393836618      -49.4466500149      -14.3012427634  MEMB      379             0.0000000000
     47048       379  PMPE      O22           -37.9489375283      -50.1137284113      -14.3421852868  MEMB      379             0.0000000000
     47049       379  PMPE      C22           -40.3954390011      -49.8129846510      -13.8888475389  MEMB      379             0.0000000000
     47050       379  PMPE      H2R           -41.0157914502      -49.6643461754      -14.7984576102  MEMB      379             0.0000000000
     47051       379  PMPE      H2S           -40.6952276189      -49.1747433572      -13.0303046911  MEMB      379             0.0000000000
     47052       379  PMPE      C3            -38.3973198678      -45.7888591137      -15.2264821699  MEMB      379             0.0000000000
     47053       379  PMPE      HX            -39.0522555222      -45.4689969797      -16.0649740500  MEMB      379             0.0000000000
     47054       379  PMPE      HY            -37.4846749694      -45.2088904673      -15.4815056380  MEMB      379             0.0000000000
     47055       379  PMPE      O31           -39.1452526149      -45.4190608297      -14.0890473676  MEMB      379             0.0000000000
     47056       379  PMPE      C31           -38.5057922339      -45.1464362391      -12.9769394674  MEMB      379             0.0000000000
     47057       379  PMPE      O32           -37.3030687299      -45.0776120139      -12.7705033452  MEMB      379             0.0000000000
     47058       379  PMPE      C32           -39.5404781603      -44.8543231246      -11.8592307048  MEMB      379             0.0000000000
     47059       379  PMPE      H2X           -40.3260827149      -45.6398917536      -11.8538691228  MEMB      379             0.0000000000
     47060       379  PMPE      H2Y           -39.9906810610      -43.8425537408      -11.9484529073  MEMB      379             0.0000000000
     47061       379  PMPE      C23           -40.4471604244      -51.2912908666      -13.3946082413  MEMB      379             0.0000000000
     47062       379  PMPE      H3R           -39.8530140607      -51.9313854559      -14.0813324613  MEMB      379             0.0000000000
     47063       379  PMPE      H3S           -41.5286756601      -51.5452994296      -13.4058080769  MEMB      379             0.0000000000
     47064       379  PMPE      C24           -39.9209886617      -51.3966381646      -11.9367893326  MEMB      379             0.0000000000
     47065       379  PMPE      H4R           -38.9367535298      -50.8816078036      -11.9553884309  MEMB      379             0.0000000000
     47066       379  PMPE      H4S           -39.6862128173      -52.4780084663      -11.8375928587  MEMB      379             0.0000000000
     47067       379  PMPE      C25           -40.9995907359      -50.9738166714      -10.8398808491  MEMB      379             0.0000000000
     47068       379  PMPE      H5R           -41.8428839865      -51.6870505826      -10.9601915138  MEMB      379             0.0000000000
     47069       379  PMPE      H5S           -41.2636711719      -49.9181156622      -11.0636615550  MEMB      379             0.0000000000
     47070       379  PMPE      C26           -40.3619233576      -51.1717380741       -9.4275100689  MEMB      379             0.0000000000
     47071       379  PMPE      H6R           -39.5940293214      -51.9588287207       -9.5860911714  MEMB      379             0.0000000000
     47072       379  PMPE      H6S           -41.1158410698      -51.5711907813       -8.7159165242  MEMB      379             0.0000000000
     47073       379  PMPE      C27           -39.8457177028      -49.8649396608       -8.7937131587  MEMB      379             0.0000000000
     47074       379  PMPE      H7R           -40.6202517224      -49.0722696096       -8.8717662528  MEMB      379             0.0000000000
     47075       379  PMPE      H7S           -38.9808475396      -49.4688135767       -9.3676511723  MEMB      379             0.0000000000
     47076       379  PMPE      C28           -39.5341475906      -49.9901146830       -7.2904117020  MEMB      379             0.0000000000
     47077       379  PMPE      H8R           -39.1208808898      -51.0101434022       -7.1385141997  MEMB      379             0.0000000000
     47078       379  PMPE      H8S           -40.5519226893      -49.9022488379       -6.8536801911  MEMB      379             0.0000000000
     47079       379  PMPE      C29           -38.5198388749      -49.0014557844       -6.7705810905  MEMB      379             0.0000000000
     47080       379  PMPE      H9R           -38.7205989072      -47.9425606962       -7.0403180087  MEMB      379             0.0000000000
     47081       379  PMPE      C217          -37.0244270815      -49.3193798603       -6.9056879942  MEMB      379             0.0000000000
     47082       379  PMPE      H17R          -36.4122765056      -48.4352704762       -7.0341817676  MEMB      379             0.0000000000
     47083       379  PMPE      H17S          -36.8019479434      -50.3398080590       -7.1922508520  MEMB      379             0.0000000000
     47084       379  PMPE      C210          -37.6629765351      -49.2286369761       -5.5258261212  MEMB      379             0.0000000000
     47085       379  PMPE      H10R          -37.2532068289      -48.3436315963       -4.9936836872  MEMB      379             0.0000000000
     47086       379  PMPE      C211          -37.6330227526      -50.6203826053       -4.8414411108  MEMB      379             0.0000000000
     47087       379  PMPE      H11R          -36.7201800527      -50.7500211550       -4.2215752793  MEMB      379             0.0000000000
     47088       379  PMPE      H11S          -37.5562953227      -51.3622195382       -5.6649161534  MEMB      379             0.0000000000
     47089       379  PMPE      C212          -38.8898500293      -50.8242523888       -3.9888141716  MEMB      379             0.0000000000
     47090       379  PMPE      H12R          -39.7806512924      -50.6856977566       -4.6381186237  MEMB      379             0.0000000000
     47091       379  PMPE      H12S          -38.8963239487      -50.0140637642       -3.2286338264  MEMB      379             0.0000000000
     47092       379  PMPE      C213          -38.8659647807      -52.2049189379       -3.3257625926  MEMB      379             0.0000000000
     47093       379  PMPE      H13R          -37.8954608740      -52.3543117502       -2.8060269897  MEMB      379             0.0000000000
     47094       379  PMPE      H13S          -39.0595214512      -52.9275251636       -4.1471618449  MEMB      379             0.0000000000
     47095       379  PMPE      C214          -39.9896495152      -52.3095126484       -2.2227118526  MEMB      379             0.0000000000
     47096       379  PMPE      H14R          -40.6867346348      -51.6459733028       -2.7777873743  MEMB      379             0.0000000000
     47097       379  PMPE      H14S          -39.6743867293      -51.9619730053       -1.2156632640  MEMB      379             0.0000000000
     47098       379  PMPE      C215          -40.7519792616      -53.6673433623       -2.0238133188  MEMB      379             0.0000000000
     47099       379  PMPE      H15R          -40.9532759489      -54.2281493081       -2.9615207195  MEMB      379             0.0000000000
     47100       379  PMPE      H15S          -41.7525626914      -53.3990462306       -1.6223522143  MEMB      379             0.0000000000
     47101       379  PMPE      C216          -40.2822112505      -54.7031855760       -0.9179358465  MEMB      379             0.0000000000
     47102       379  PMPE      H16R          -41.1217695727      -55.3855253505       -0.6651996168  MEMB      379             0.0000000000
     47103       379  PMPE      H16S          -39.3305572760      -55.2029846848       -1.1987861052  MEMB      379             0.0000000000
     47104       379  PMPE      H16T          -40.0789175161      -54.1851783913        0.0436576231  MEMB      379             0.0000000000
     47105       379  PMPE      C33           -38.7941936336      -44.8707049206      -10.5592912322  MEMB      379             0.0000000000
     47106       379  PMPE      H3X           -37.8953145567      -44.2411624844      -10.3860475923  MEMB      379             0.0000000000
     47107       379  PMPE      H3Y           -38.4259862428      -45.9168552064      -10.4936097717  MEMB      379             0.0000000000
     47108       379  PMPE      C34           -39.7244419778      -44.6623144975       -9.3587281748  MEMB      379             0.0000000000
     47109       379  PMPE      H4X           -40.0114070684      -43.5943054147       -9.2522906507  MEMB      379             0.0000000000
     47110       379  PMPE      H4Y           -39.0669511858      -44.9642172763       -8.5155904624  MEMB      379             0.0000000000
     47111       379  PMPE      C35           -40.9359851008      -45.5784015117       -9.4835527264  MEMB      379             0.0000000000
     47112       379  PMPE      H5X           -40.6504612293      -46.6518958355       -9.5037241993  MEMB      379             0.0000000000
     47113       379  PMPE      H5Y           -41.5124868659      -45.3305384778      -10.4003571201  MEMB      379             0.0000000000
     47114       379  PMPE      C36           -41.8693974525      -45.4604162749       -8.2208080282  MEMB      379             0.0000000000
     47115       379  PMPE      H6X           -42.8870538622      -45.8537528559       -8.4305281578  MEMB      379             0.0000000000
     47116       379  PMPE      H6Y           -41.9529036047      -44.3641419195       -8.0610242669  MEMB      379             0.0000000000
     47117       379  PMPE      C37           -41.3010065599      -46.1403126011       -6.8913991385  MEMB      379             0.0000000000
     47118       379  PMPE      H7X           -40.3999345272      -45.6088007464       -6.5173873571  MEMB      379             0.0000000000
     47119       379  PMPE      H7Y           -41.0285807333      -47.1916421213       -7.1255185108  MEMB      379             0.0000000000
     47120       379  PMPE      C38           -42.3054559721      -46.1181415371       -5.7297889632  MEMB      379             0.0000000000
     47121       379  PMPE      H8X           -42.9168940920      -46.9677355127       -6.1021522007  MEMB      379             0.0000000000
     47122       379  PMPE      H8Y           -42.9330239109      -45.2061621000       -5.8234542156  MEMB      379             0.0000000000
     47123       379  PMPE      C39           -41.8240464886      -46.3359866872       -4.3497975162  MEMB      379             0.0000000000
     47124       379  PMPE      H9X           -42.7255300530      -46.4090732840       -3.7045793176  MEMB      379             0.0000000000
     47125       379  PMPE      H9Y           -41.1578741117      -45.5039282812       -4.0364053377  MEMB      379             0.0000000000
     47126       379  PMPE      C310          -40.8364997397      -47.5464753260       -4.0720083240  MEMB      379             0.0000000000
     47127       379  PMPE      H10X          -40.1092226497      -47.3989562442       -4.8988255450  MEMB      379             0.0000000000
     47128       379  PMPE      H10Y          -41.2139666680      -48.5778863815       -4.2394336011  MEMB      379             0.0000000000
     47129       379  PMPE      C311          -40.1571408928      -47.5181055523       -2.6866357659  MEMB      379             0.0000000000
     47130       379  PMPE      H11X          -40.1129498855      -46.4501809808       -2.3834765296  MEMB      379             0.0000000000
     47131       379  PMPE      H11Y          -39.1638294505      -48.0107809316       -2.7568109049  MEMB      379             0.0000000000
     47132       379  PMPE      C312          -40.9373819487      -48.4588649971       -1.6609593692  MEMB      379             0.0000000000
     47133       379  PMPE      H12X          -40.8288280657      -49.4962414447       -2.0435665850  MEMB      379             0.0000000000
     47134       379  PMPE      H12Y          -42.0136512849      -48.1912007244       -1.7266931633  MEMB      379             0.0000000000
     47135       379  PMPE      C313          -40.4345537503      -48.3436386800       -0.1793265902  MEMB      379             0.0000000000
     47136       379  PMPE      H13X          -41.2065055886      -48.9053322808        0.3889260382  MEMB      379             0.0000000000
     47137       379  PMPE      H13Y          -40.5744275379      -47.3026533557        0.1827587861  MEMB      379             0.0000000000
     47138       379  PMPE      C314          -39.1515997209      -49.1020988391        0.0485021238  MEMB      379             0.0000000000
     47139       379  PMPE      H14X          -38.7894933014      -49.3048772387       -0.9820704738  MEMB      379             0.0000000000
     47140       379  PMPE      H14Y          -39.3088720001      -50.0672976741        0.5757376948  MEMB      379             0.0000000000
     47141       379  PMPE      C315          -38.1055002762      -48.3384167184        0.9546497215  MEMB      379             0.0000000000
     47142       379  PMPE      H15X          -37.2970735222      -49.0847031438        1.1089997495  MEMB      379             0.0000000000
     47143       379  PMPE      H15Y          -38.6199947218      -48.1455315916        1.9202647966  MEMB      379             0.0000000000
     47144       379  PMPE      C316          -37.5525108064      -47.0958859655        0.2505258568  MEMB      379             0.0000000000
     47145       379  PMPE      H16X          -37.4335553040      -47.3620352781       -0.8215435961  MEMB      379             0.0000000000
     47146       379  PMPE      H16Y          -36.5651690350      -46.7377573403        0.6127698934  MEMB      379             0.0000000000
     47147       379  PMPE      H16Z          -38.2888192163      -46.2703008302        0.3533858585  MEMB      379             0.0000000000
     47148       380  POPE      N              43.3675276468       44.7711408387      -18.5463008306  MEMB      380             0.0000000000
     47149       380  POPE      HN1            42.7420455434       44.6300914371      -19.3651275961  MEMB      380             0.0000000000
     47150       380  POPE      HN2            44.1973732879       44.1503049707      -18.4595891107  MEMB      380             0.0000000000
     47151       380  POPE      HN3            42.6856087270       44.6593631105      -17.7690669622  MEMB      380             0.0000000000
     47152       380  POPE      C12            43.8562120149       46.2124560664      -18.6748774532  MEMB      380             0.0000000000
     47153       380  POPE      H12A           44.2460743469       46.4246876294      -19.6933499404  MEMB      380             0.0000000000
     47154       380  POPE      H12B           44.6699766479       46.3159979360      -17.9256196482  MEMB      380             0.0000000000
     47155       380  POPE      C11            42.7197027842       47.1785197325      -18.2765820927  MEMB      380             0.0000000000
     47156       380  POPE      H11A           42.8829201145       48.1857370366      -18.7161208397  MEMB      380             0.0000000000
     47157       380  POPE      H11B           42.7533390613       47.4049743092      -17.1894262663  MEMB      380             0.0000000000
     47158       380  POPE      P              40.4540968092       47.6193139529      -19.3891153642  MEMB      380             0.0000000000
     47159       380  POPE      O13            39.1663148008       46.8808092730      -19.5801918783  MEMB      380             0.0000000000
     47160       380  POPE      O14            41.0923745352       48.1703181959      -20.6247036916  MEMB      380             0.0000000000
     47161       380  POPE      O11            40.2123368986       48.8242201655      -18.3571607373  MEMB      380             0.0000000000
     47162       380  POPE      O12            41.4465433117       46.6382177749      -18.5510679550  MEMB      380             0.0000000000
     47163       380  POPE      C1             39.3474075678       48.5907072955      -17.1877878982  MEMB      380             0.0000000000
     47164       380  POPE      HA             38.9458680316       47.5679912458      -17.0230497095  MEMB      380             0.0000000000
     47165       380  POPE      HB             38.4767389649       49.2760256475      -17.2690041186  MEMB      380             0.0000000000
     47166       380  POPE      C2             39.9339349119       48.8743827072      -15.7928951558  MEMB      380             0.0000000000
     47167       380  POPE      HS             40.0787739377       49.9742019467      -15.8540566160  MEMB      380             0.0000000000
     47168       380  POPE      O21            41.1135086075       48.1000019839      -15.5714590214  MEMB      380             0.0000000000
     47169       380  POPE      C21            41.9669666834       48.5770905294      -14.6482240538  MEMB      380             0.0000000000
     47170       380  POPE      O22            41.9260712547       49.6504820035      -14.0848247869  MEMB      380             0.0000000000
     47171       380  POPE      C22            43.0833203019       47.5580098196      -14.3936741703  MEMB      380             0.0000000000
     47172       380  POPE      H2R            43.9234383673       47.9570355468      -15.0013755844  MEMB      380             0.0000000000
     47173       380  POPE      H2S            42.8718962939       46.5149431809      -14.7124731017  MEMB      380             0.0000000000
     47174       380  POPE      C3             38.9191157446       48.5294456521      -14.6665249291  MEMB      380             0.0000000000
     47175       380  POPE      HX             37.9211277612       48.9144624535      -14.9666966284  MEMB      380             0.0000000000
     47176       380  POPE      HY             39.1505982702       48.9725547632      -13.6743600031  MEMB      380             0.0000000000
     47177       380  POPE      O31            38.8062912590       47.0969664830      -14.5307613281  MEMB      380             0.0000000000
     47178       380  POPE      C31            39.5490033435       46.5184619824      -13.5996421307  MEMB      380             0.0000000000
     47179       380  POPE      O32            40.0522853985       46.9777374401      -12.5790253477  MEMB      380             0.0000000000
     47180       380  POPE      C32            39.5661806002       45.0067127425      -13.8843499712  MEMB      380             0.0000000000
     47181       380  POPE      H2X            39.5465329940       44.7999610874      -14.9757660442  MEMB      380             0.0000000000
     47182       380  POPE      H2Y            38.7587989297       44.4742017057      -13.3376437850  MEMB      380             0.0000000000
     47183       380  POPE      C23            43.5606015076       47.4633639798      -12.9215966711  MEMB      380             0.0000000000
     47184       380  POPE      H3R            42.6620356055       47.2413315809      -12.3071032054  MEMB      380             0.0000000000
     47185       380  POPE      H3S            43.9960571028       48.4429508107      -12.6298613818  MEMB      380             0.0000000000
     47186       380  POPE      C24            44.7151521112       46.4686232512      -12.6913330800  MEMB      380             0.0000000000
     47187       380  POPE      H4R            45.4972953769       46.4755191448      -13.4803357959  MEMB      380             0.0000000000
     47188       380  POPE      H4S            44.2962975887       45.4409298977      -12.7435661530  MEMB      380             0.0000000000
     47189       380  POPE      C25            45.4334146594       46.5323771498      -11.4021839582  MEMB      380             0.0000000000
     47190       380  POPE      H5R            45.9302445269       47.4954142404      -11.1571518335  MEMB      380             0.0000000000
     47191       380  POPE      H5S            46.2837731698       45.8175232732      -11.4161549807  MEMB      380             0.0000000000
     47192       380  POPE      C26            44.5113577691       46.1491905571      -10.1857992913  MEMB      380             0.0000000000
     47193       380  POPE      H6R            44.0505233324       45.1603192191      -10.3957665620  MEMB      380             0.0000000000
     47194       380  POPE      H6S            43.6910284919       46.8967862755      -10.1359825916  MEMB      380             0.0000000000
     47195       380  POPE      C27            45.1701954026       46.0539344109       -8.8298956094  MEMB      380             0.0000000000
     47196       380  POPE      H7R            46.2688796227       46.0264135598       -8.9925494747  MEMB      380             0.0000000000
     47197       380  POPE      H7S            44.8801047158       45.0855303716       -8.3690670034  MEMB      380             0.0000000000
     47198       380  POPE      C28            44.9649635026       47.3673978819       -7.9598954217  MEMB      380             0.0000000000
     47199       380  POPE      H8R            45.5290762612       48.1644742911       -8.4897696159  MEMB      380             0.0000000000
     47200       380  POPE      H8S            45.6045801956       47.1225625795       -7.0850996534  MEMB      380             0.0000000000
     47201       380  POPE      C29            43.5410026294       47.8811400794       -7.5444377314  MEMB      380             0.0000000000
     47202       380  POPE      H91            42.6911248486       47.7259995964       -8.2253479612  MEMB      380             0.0000000000
     47203       380  POPE      C210           43.0593560245       48.3248585175       -6.3688362859  MEMB      380             0.0000000000
     47204       380  POPE      H101           42.0282500676       48.6511579249       -6.1679656766  MEMB      380             0.0000000000
     47205       380  POPE      C211           43.9275647356       48.4324852312       -5.1520327573  MEMB      380             0.0000000000
     47206       380  POPE      H11R           43.9222033530       49.4127342846       -4.6291518715  MEMB      380             0.0000000000
     47207       380  POPE      H11S           45.0288178413       48.3774283659       -5.2881637053  MEMB      380             0.0000000000
     47208       380  POPE      C212           43.4697110120       47.4424747410       -4.1249823732  MEMB      380             0.0000000000
     47209       380  POPE      H12R           42.3792204593       47.3239951156       -3.9485910176  MEMB      380             0.0000000000
     47210       380  POPE      H12S           43.8374900987       47.8614254932       -3.1639724900  MEMB      380             0.0000000000
     47211       380  POPE      C213           44.0914954956       45.9772508903       -4.3569984381  MEMB      380             0.0000000000
     47212       380  POPE      H13R           45.1684690204       45.8924387135       -4.6163353905  MEMB      380             0.0000000000
     47213       380  POPE      H13S           43.4038301422       45.4655089310       -5.0637920165  MEMB      380             0.0000000000
     47214       380  POPE      C214           43.9935968252       45.0650459481       -3.0843790984  MEMB      380             0.0000000000
     47215       380  POPE      H14R           44.6571976385       44.1863589721       -3.2322452798  MEMB      380             0.0000000000
     47216       380  POPE      H14S           43.0155022544       44.6392193651       -2.7740195946  MEMB      380             0.0000000000
     47217       380  POPE      C215           44.5597460219       45.8041687978       -1.8365767075  MEMB      380             0.0000000000
     47218       380  POPE      H15R           43.6652389557       46.2796913071       -1.3804459954  MEMB      380             0.0000000000
     47219       380  POPE      H15S           45.4057847081       46.4138407622       -2.2197740676  MEMB      380             0.0000000000
     47220       380  POPE      C216           45.1716089283       44.9324679246       -0.6889694718  MEMB      380             0.0000000000
     47221       380  POPE      H16R           45.1207027913       45.5223649512        0.2511101084  MEMB      380             0.0000000000
     47222       380  POPE      H16S           46.2127143827       44.7629368388       -1.0377979533  MEMB      380             0.0000000000
     47223       380  POPE      C217           44.4648385175       43.5745049212       -0.4603081409  MEMB      380             0.0000000000
     47224       380  POPE      H17R           44.9019490902       43.1593486324        0.4729134654  MEMB      380             0.0000000000
     47225       380  POPE      H17S           44.7058135150       42.8216449947       -1.2409826815  MEMB      380             0.0000000000
     47226       380  POPE      C218           42.9985987101       43.8186752129       -0.0959532430  MEMB      380             0.0000000000
     47227       380  POPE      H18R           42.3575317141       44.1345007155       -0.9466034095  MEMB      380             0.0000000000
     47228       380  POPE      H18S           42.8786729919       44.4461008108        0.8130444133  MEMB      380             0.0000000000
     47229       380  POPE      H18T           42.6574676020       42.7870670830        0.1358555404  MEMB      380             0.0000000000
     47230       380  POPE      C33            40.9374085938       44.5360405970      -13.4543885855  MEMB      380             0.0000000000
     47231       380  POPE      H3X            41.2937061142       45.0215098591      -12.5207439418  MEMB      380             0.0000000000
     47232       380  POPE      H3Y            41.7076823066       44.7164286025      -14.2344271786  MEMB      380             0.0000000000
     47233       380  POPE      C34            41.0188417916       43.1209026335      -12.9677597165  MEMB      380             0.0000000000
     47234       380  POPE      H4X            40.8397755333       42.3851272155      -13.7807114688  MEMB      380             0.0000000000
     47235       380  POPE      H4Y            40.1987144883       42.9209213056      -12.2454578548  MEMB      380             0.0000000000
     47236       380  POPE      C35            42.2391120267       42.8150406025      -12.1316859833  MEMB      380             0.0000000000
     47237       380  POPE      H5X            42.4768446010       43.6562987258      -11.4460557219  MEMB      380             0.0000000000
     47238       380  POPE      H5Y            43.0804668896       42.8328472635      -12.8570315838  MEMB      380             0.0000000000
     47239       380  POPE      C36            42.3379987848       41.5288328996      -11.3631672709  MEMB      380             0.0000000000
     47240       380  POPE      H6X            43.3584903329       41.1162440940      -11.2125405382  MEMB      380             0.0000000000
     47241       380  POPE      H6Y            41.7097754701       40.7779145475      -11.8883136093  MEMB      380             0.0000000000
     47242       380  POPE      C37            41.6928541290       41.7678411072      -10.0673228493  MEMB      380             0.0000000000
     47243       380  POPE      H7X            41.2097542553       40.7849960113       -9.8803707946  MEMB      380             0.0000000000
     47244       380  POPE      H7Y            40.8677030550       42.5013106195      -10.1916978043  MEMB      380             0.0000000000
     47245       380  POPE      C38            42.7010823031       42.0529879435       -8.8757264990  MEMB      380             0.0000000000
     47246       380  POPE      H8X            43.3745620023       42.8799641030       -9.1869440197  MEMB      380             0.0000000000
     47247       380  POPE      H8Y            43.2309306911       41.0956022343       -8.6833866262  MEMB      380             0.0000000000
     47248       380  POPE      C39            41.9952134215       42.4605664886       -7.5667977365  MEMB      380             0.0000000000
     47249       380  POPE      H9X            42.6703231674       42.1598032350       -6.7372868229  MEMB      380             0.0000000000
     47250       380  POPE      H9Y            41.0840554200       41.8453909465       -7.4065748501  MEMB      380             0.0000000000
     47251       380  POPE      C310           41.5005033020       43.9455044390       -7.5986523940  MEMB      380             0.0000000000
     47252       380  POPE      H10X           41.1905711000       44.0414533492       -8.6612235302  MEMB      380             0.0000000000
     47253       380  POPE      H10Y           42.4483167883       44.4982641169       -7.4242185718  MEMB      380             0.0000000000
     47254       380  POPE      C311           40.4314208909       44.2664443948       -6.5724564617  MEMB      380             0.0000000000
     47255       380  POPE      H11X           40.8105872148       43.7623095916       -5.6579063607  MEMB      380             0.0000000000
     47256       380  POPE      H11Y           39.5321570250       43.6534003635       -6.7956657413  MEMB      380             0.0000000000
     47257       380  POPE      C312           40.3252861173       45.8021480845       -6.3652229477  MEMB      380             0.0000000000
     47258       380  POPE      H12X           39.7838386953       46.2019989954       -7.2491208691  MEMB      380             0.0000000000
     47259       380  POPE      H12Y           41.3298175693       46.2653176966       -6.2617265322  MEMB      380             0.0000000000
     47260       380  POPE      C313           39.3869569626       46.2591660823       -5.1865952701  MEMB      380             0.0000000000
     47261       380  POPE      H13X           38.4429153167       45.7822477965       -5.5266765695  MEMB      380             0.0000000000
     47262       380  POPE      H13Y           39.2795243687       47.3645898823       -5.1580094690  MEMB      380             0.0000000000
     47263       380  POPE      C314           39.8859953409       45.6094708921       -3.8609921995  MEMB      380             0.0000000000
     47264       380  POPE      H14X           40.9962421984       45.6314653982       -3.8265075483  MEMB      380             0.0000000000
     47265       380  POPE      H14Y           39.4841076948       44.5763984606       -3.7863721052  MEMB      380             0.0000000000
     47266       380  POPE      C315           39.3622319179       46.3795031691       -2.6459287771  MEMB      380             0.0000000000
     47267       380  POPE      H15X           39.1843070460       45.6667757737       -1.8124517255  MEMB      380             0.0000000000
     47268       380  POPE      H15Y           38.3484220894       46.7478828703       -2.9120244619  MEMB      380             0.0000000000
     47269       380  POPE      C316           40.3403114842       47.3922232132       -2.2651294004  MEMB      380             0.0000000000
     47270       380  POPE      H16X           40.4369722577       48.2634355423       -2.9477474585  MEMB      380             0.0000000000
     47271       380  POPE      H16Y           41.3316635716       46.9484271253       -2.0314922676  MEMB      380             0.0000000000
     47272       380  POPE      H16Z           40.1486310534       47.8470313953       -1.2697761395  MEMB      380             0.0000000000
     47273       381  PMPE      N              44.2105191558      -43.6661487994      -21.8443498944  MEMB      381             0.0000000000
     47274       381  PMPE      HN1            43.5686209030      -43.0628487219      -21.2915430166  MEMB      381             0.0000000000
     47275       381  PMPE      HN2            44.1843875766      -43.6035097217      -22.8821327715  MEMB      381             0.0000000000
     47276       381  PMPE      HN3            43.9970268583      -44.6650669414      -21.6489437146  MEMB      381             0.0000000000
     47277       381  PMPE      C12            45.6110491477      -43.5163620466      -21.3110508817  MEMB      381             0.0000000000
     47278       381  PMPE      H12A           45.6555132188      -42.4518706000      -20.9960874303  MEMB      381             0.0000000000
     47279       381  PMPE      H12B           46.3738209126      -43.6621433561      -22.1055621902  MEMB      381             0.0000000000
     47280       381  PMPE      C11            45.6873953132      -44.5161865898      -20.1107114743  MEMB      381             0.0000000000
     47281       381  PMPE      H11A           46.7293858922      -44.6600276875      -19.7530993812  MEMB      381             0.0000000000
     47282       381  PMPE      H11B           45.4979850553      -45.5306301645      -20.5222318591  MEMB      381             0.0000000000
     47283       381  PMPE      P              45.0183168164      -43.4625475089      -17.7147819227  MEMB      381             0.0000000000
     47284       381  PMPE      O13            43.7403874678      -42.7803575031      -17.3454363148  MEMB      381             0.0000000000
     47285       381  PMPE      O14            46.1181552551      -42.4764096020      -17.9515564370  MEMB      381             0.0000000000
     47286       381  PMPE      O11            45.4875668858      -44.5905519105      -16.6856427236  MEMB      381             0.0000000000
     47287       381  PMPE      O12            44.8061291569      -44.2353520264      -19.0364703513  MEMB      381             0.0000000000
     47288       381  PMPE      C1             45.4619246958      -45.9732127838      -16.9790654450  MEMB      381             0.0000000000
     47289       381  PMPE      HA             46.3405112004      -46.2606192510      -17.5953481586  MEMB      381             0.0000000000
     47290       381  PMPE      HB             44.4928358722      -46.2443485623      -17.4498874619  MEMB      381             0.0000000000
     47291       381  PMPE      C2             45.5545054705      -46.8356236229      -15.6441204151  MEMB      381             0.0000000000
     47292       381  PMPE      HS             45.3411513712      -47.9166035557      -15.7865407551  MEMB      381             0.0000000000
     47293       381  PMPE      O21            44.6631968810      -46.3248652928      -14.6096628327  MEMB      381             0.0000000000
     47294       381  PMPE      C21            43.3659291204      -46.3365144531      -14.7705147017  MEMB      381             0.0000000000
     47295       381  PMPE      O22            42.7269678755      -46.8786851739      -15.6032631883  MEMB      381             0.0000000000
     47296       381  PMPE      C22            42.8218915613      -45.2839833992      -13.7845122404  MEMB      381             0.0000000000
     47297       381  PMPE      H2R            41.7134090062      -45.3020958969      -13.7119892894  MEMB      381             0.0000000000
     47298       381  PMPE      H2S            43.0105421749      -44.2349617931      -14.0980173301  MEMB      381             0.0000000000
     47299       381  PMPE      C3             46.9965038063      -46.6840743368      -15.0963338498  MEMB      381             0.0000000000
     47300       381  PMPE      HX             47.7401626192      -47.2617212415      -15.6859240174  MEMB      381             0.0000000000
     47301       381  PMPE      HY             46.9605489963      -46.9730232025      -14.0241692951  MEMB      381             0.0000000000
     47302       381  PMPE      O31            47.3988488529      -45.3394346892      -14.9824133058  MEMB      381             0.0000000000
     47303       381  PMPE      C31            48.6707184901      -45.0588708168      -14.6587928861  MEMB      381             0.0000000000
     47304       381  PMPE      O32            49.4843378352      -45.9335594860      -14.4746648323  MEMB      381             0.0000000000
     47305       381  PMPE      C32            48.9677435021      -43.5068862586      -14.3682626377  MEMB      381             0.0000000000
     47306       381  PMPE      H2X            49.0380957368      -42.9026327946      -15.2979125881  MEMB      381             0.0000000000
     47307       381  PMPE      H2Y            49.9902511976      -43.6473967203      -13.9570981351  MEMB      381             0.0000000000
     47308       381  PMPE      C23            43.3239401983      -45.5432567648      -12.3329077734  MEMB      381             0.0000000000
     47309       381  PMPE      H3R            43.2098632355      -44.5223433867      -11.9097726758  MEMB      381             0.0000000000
     47310       381  PMPE      H3S            44.4097102267      -45.7768269458      -12.3034232365  MEMB      381             0.0000000000
     47311       381  PMPE      C24            42.3721078258      -46.6014983620      -11.7936968299  MEMB      381             0.0000000000
     47312       381  PMPE      H4R            42.2834415719      -47.4693120048      -12.4817074815  MEMB      381             0.0000000000
     47313       381  PMPE      H4S            41.3119619615      -46.2710620225      -11.7587161329  MEMB      381             0.0000000000
     47314       381  PMPE      C25            42.7064166382      -47.1671116046      -10.4598994019  MEMB      381             0.0000000000
     47315       381  PMPE      H5R            43.7801326453      -47.4102636924      -10.3104605077  MEMB      381             0.0000000000
     47316       381  PMPE      H5S            42.2133231152      -48.1530396595      -10.3216024153  MEMB      381             0.0000000000
     47317       381  PMPE      C26            42.3459567283      -46.2648805101       -9.2414972639  MEMB      381             0.0000000000
     47318       381  PMPE      H6R            41.3077301786      -45.8694431230       -9.2355204160  MEMB      381             0.0000000000
     47319       381  PMPE      H6S            43.0833295362      -45.4351343834       -9.1954132742  MEMB      381             0.0000000000
     47320       381  PMPE      C27            42.4588150197      -47.1200485508       -7.9265396693  MEMB      381             0.0000000000
     47321       381  PMPE      H7R            43.4844405007      -47.5398826507       -7.8481005774  MEMB      381             0.0000000000
     47322       381  PMPE      H7S            41.7228331798      -47.9405713612       -8.0658013934  MEMB      381             0.0000000000
     47323       381  PMPE      C28            42.0136168141      -46.3232706023       -6.6953764857  MEMB      381             0.0000000000
     47324       381  PMPE      H8R            40.9098752943      -46.1965780808       -6.7003490729  MEMB      381             0.0000000000
     47325       381  PMPE      H8S            42.4670509868      -45.3263515992       -6.8821122904  MEMB      381             0.0000000000
     47326       381  PMPE      C29            42.6124869349      -46.7861042576       -5.4093848747  MEMB      381             0.0000000000
     47327       381  PMPE      H9R            43.6456417533      -47.1945679567       -5.4010451017  MEMB      381             0.0000000000
     47328       381  PMPE      C217           41.6434494212      -47.3807927700       -4.4101515190  MEMB      381             0.0000000000
     47329       381  PMPE      H17R           41.9959793407      -48.3169430874       -3.9951403303  MEMB      381             0.0000000000
     47330       381  PMPE      H17S           40.6391995786      -47.2701251453       -4.8001823192  MEMB      381             0.0000000000
     47331       381  PMPE      C210           42.3445247440      -46.1267103953       -4.0632490389  MEMB      381             0.0000000000
     47332       381  PMPE      H10R           43.0644497122      -46.3340620125       -3.2428621542  MEMB      381             0.0000000000
     47333       381  PMPE      C211           41.5930000005      -44.8056978939       -4.0163487943  MEMB      381             0.0000000000
     47334       381  PMPE      H11R           40.7721070698      -44.7162774219       -4.7596253729  MEMB      381             0.0000000000
     47335       381  PMPE      H11S           42.3412325858      -44.0041865801       -4.1953707342  MEMB      381             0.0000000000
     47336       381  PMPE      C212           41.1599223776      -44.5540952848       -2.5948417405  MEMB      381             0.0000000000
     47337       381  PMPE      H12R           41.9490921544      -44.6950048989       -1.8256358245  MEMB      381             0.0000000000
     47338       381  PMPE      H12S           40.5086706344      -45.4450481846       -2.4667965618  MEMB      381             0.0000000000
     47339       381  PMPE      C213           40.2553970212      -43.3566650201       -2.3923690281  MEMB      381             0.0000000000
     47340       381  PMPE      H13R           39.7807535110      -43.1135483793       -3.3670124103  MEMB      381             0.0000000000
     47341       381  PMPE      H13S           40.9191571282      -42.4742430020       -2.2695895601  MEMB      381             0.0000000000
     47342       381  PMPE      C214           39.3836320749      -43.4047745350       -1.1566055622  MEMB      381             0.0000000000
     47343       381  PMPE      H14R           38.6575082703      -44.2345708450       -1.2926313855  MEMB      381             0.0000000000
     47344       381  PMPE      H14S           38.8593812819      -42.4352013467       -1.0172855094  MEMB      381             0.0000000000
     47345       381  PMPE      C215           40.2012493574      -43.7887584237        0.1550511623  MEMB      381             0.0000000000
     47346       381  PMPE      H15R           40.4063961170      -44.8741814359        0.0363385531  MEMB      381             0.0000000000
     47347       381  PMPE      H15S           39.3679971938      -43.7489170615        0.8888251892  MEMB      381             0.0000000000
     47348       381  PMPE      C216           41.2452378548      -42.7830686278        0.5439998918  MEMB      381             0.0000000000
     47349       381  PMPE      H16R           41.9810403816      -42.6913843690       -0.2833504393  MEMB      381             0.0000000000
     47350       381  PMPE      H16S           40.8060444731      -41.7675556035        0.6448143493  MEMB      381             0.0000000000
     47351       381  PMPE      H16T           41.7802819706      -43.0772856446        1.4721616616  MEMB      381             0.0000000000
     47352       381  PMPE      C33            48.0670236698      -42.8597126031      -13.3366643732  MEMB      381             0.0000000000
     47353       381  PMPE      H3X            46.9801193139      -43.0043578630      -13.5156550481  MEMB      381             0.0000000000
     47354       381  PMPE      H3Y            48.2393567711      -41.7634601992      -13.3900814311  MEMB      381             0.0000000000
     47355       381  PMPE      C34            48.2427610548      -43.2719640494      -11.8267812603  MEMB      381             0.0000000000
     47356       381  PMPE      H4X            49.0464296684      -42.7667049726      -11.2495888095  MEMB      381             0.0000000000
     47357       381  PMPE      H4Y            48.3842773574      -44.3734659005      -11.8582052564  MEMB      381             0.0000000000
     47358       381  PMPE      C35            46.9773830399      -42.9592910843      -11.0526977249  MEMB      381             0.0000000000
     47359       381  PMPE      H5X            46.1130829774      -43.5943181791      -11.3426061493  MEMB      381             0.0000000000
     47360       381  PMPE      H5Y            46.5428153671      -41.9489076637      -11.2095340562  MEMB      381             0.0000000000
     47361       381  PMPE      C36            47.1733952227      -43.2854793735       -9.5877932546  MEMB      381             0.0000000000
     47362       381  PMPE      H6X            47.9623021056      -42.5896931033       -9.2302622796  MEMB      381             0.0000000000
     47363       381  PMPE      H6Y            47.6527610093      -44.2860795140       -9.5300980613  MEMB      381             0.0000000000
     47364       381  PMPE      C37            45.9552164060      -43.2002444679       -8.6549722199  MEMB      381             0.0000000000
     47365       381  PMPE      H7X            45.4531247754      -44.1898698384       -8.7085129832  MEMB      381             0.0000000000
     47366       381  PMPE      H7Y            45.2575209771      -42.4437854117       -9.0736747044  MEMB      381             0.0000000000
     47367       381  PMPE      C38            46.1658456107      -43.1271068645       -7.1404282614  MEMB      381             0.0000000000
     47368       381  PMPE      H8X            46.7481203806      -42.2065401439       -6.9217185155  MEMB      381             0.0000000000
     47369       381  PMPE      H8Y            46.6016732986      -44.0702904103       -6.7470072664  MEMB      381             0.0000000000
     47370       381  PMPE      C39            44.9022096209      -43.1423315035       -6.3131531562  MEMB      381             0.0000000000
     47371       381  PMPE      H9X            44.3638241478      -44.0915402433       -6.1046705361  MEMB      381             0.0000000000
     47372       381  PMPE      H9Y            44.2476977828      -42.5970576963       -7.0263232002  MEMB      381             0.0000000000
     47373       381  PMPE      C310           45.0082545906      -42.3000365536       -5.0612033977  MEMB      381             0.0000000000
     47374       381  PMPE      H10X           44.0287438193      -41.9621652115       -4.6603016368  MEMB      381             0.0000000000
     47375       381  PMPE      H10Y           45.5270389578      -41.3737757156       -5.3886552689  MEMB      381             0.0000000000
     47376       381  PMPE      C311           45.6493366629      -43.0134096735       -3.8476087273  MEMB      381             0.0000000000
     47377       381  PMPE      H11X           46.7019141065      -43.2164675186       -4.1394462712  MEMB      381             0.0000000000
     47378       381  PMPE      H11Y           45.0677587889      -43.9452932320       -3.6812326274  MEMB      381             0.0000000000
     47379       381  PMPE      C312           45.6166458944      -42.1961626389       -2.4594976841  MEMB      381             0.0000000000
     47380       381  PMPE      H12X           44.5540065835      -42.0753666779       -2.1586211134  MEMB      381             0.0000000000
     47381       381  PMPE      H12Y           46.0733768979      -41.2075414942       -2.6793736797  MEMB      381             0.0000000000
     47382       381  PMPE      C313           46.3999918928      -42.8349750049       -1.4092843427  MEMB      381             0.0000000000
     47383       381  PMPE      H13X           46.6163049572      -42.2094336675       -0.5169687443  MEMB      381             0.0000000000
     47384       381  PMPE      H13Y           47.4183579763      -43.0479009790       -1.7990454383  MEMB      381             0.0000000000
     47385       381  PMPE      C314           45.7970206655      -44.1586284134       -0.8009243427  MEMB      381             0.0000000000
     47386       381  PMPE      H14X           46.4739935182      -44.3435061103        0.0603820056  MEMB      381             0.0000000000
     47387       381  PMPE      H14Y           45.8049313265      -45.0403289641       -1.4768407156  MEMB      381             0.0000000000
     47388       381  PMPE      C315           44.3561642433      -44.1077954501       -0.2369755651  MEMB      381             0.0000000000
     47389       381  PMPE      H15X           43.6651331386      -43.8131578470       -1.0555007682  MEMB      381             0.0000000000
     47390       381  PMPE      H15Y           44.2659457974      -43.2758940239        0.4938619227  MEMB      381             0.0000000000
     47391       381  PMPE      C316           43.8789357633      -45.3244377077        0.5119187752  MEMB      381             0.0000000000
     47392       381  PMPE      H16X           43.6731520302      -46.2571836590       -0.0554948763  MEMB      381             0.0000000000
     47393       381  PMPE      H16Y           42.9465308964      -45.0524319505        1.0513217152  MEMB      381             0.0000000000
     47394       381  PMPE      H16Z           44.5040346567      -45.7127615346        1.3442512495  MEMB      381             0.0000000000
     47395       382  PVCL2     C3            -50.5304652671       39.9325272846      -21.8103196737  MEMB      382             0.0000000000
     47396       382  PVCL2     HG31          -51.5184803036       40.4144239450      -21.6493137777  MEMB      382             0.0000000000
     47397       382  PVCL2     HG32          -50.7735127905       39.3976684974      -22.7532805036  MEMB      382             0.0000000000
     47398       382  PVCL2     P3            -49.4907194319       37.7394268007      -20.8782851510  MEMB      382             0.0000000000
     47399       382  PVCL2     OP33          -48.1128852812       38.0085187562      -21.3726961265  MEMB      382             0.0000000000
     47400       382  PVCL2     OP34          -50.3409028371       36.8445946846      -21.7377816590  MEMB      382             0.0000000000
     47401       382  PVCL2     OP31          -50.2721675606       39.0703035645      -20.6984464644  MEMB      382             0.0000000000
     47402       382  PVCL2     OP32          -49.5091863291       37.2053762114      -19.3711380824  MEMB      382             0.0000000000
     47403       382  PVCL2     C31           -50.7495145434       36.8938413075      -18.7494470190  MEMB      382             0.0000000000
     47404       382  PVCL2     H31J          -51.5378845789       37.3830111839      -19.3605987794  MEMB      382             0.0000000000
     47405       382  PVCL2     H31K          -51.0080530316       35.8251554381      -18.9087878416  MEMB      382             0.0000000000
     47406       382  PVCL2     C2            -49.4806031958       41.0790913630      -21.8773013407  MEMB      382             0.0000000000
     47407       382  PVCL2     HG22          -48.4369151745       40.6995006656      -21.8465262165  MEMB      382             0.0000000000
     47408       382  PVCL2     OG12          -49.6073905856       41.7582430058      -23.1540362667  MEMB      382             0.0000000000
     47409       382  PVCL2     HO12          -49.7939281894       41.1037305328      -23.8311011448  MEMB      382             0.0000000000
     47410       382  PVCL2     C1            -49.6500888741       42.0922969667      -20.6689537302  MEMB      382             0.0000000000
     47411       382  PVCL2     HG11          -50.6215278861       42.6276599449      -20.7323086560  MEMB      382             0.0000000000
     47412       382  PVCL2     HG12          -49.0011166678       42.9871590689      -20.7802100758  MEMB      382             0.0000000000
     47413       382  PVCL2     P1            -48.2886034039       41.0165347767      -18.5978019298  MEMB      382             0.0000000000
     47414       382  PVCL2     OP13          -48.5597410728       40.0300421157      -17.5429956115  MEMB      382             0.0000000000
     47415       382  PVCL2     OP14          -47.2422532367       40.6623691171      -19.5909825373  MEMB      382             0.0000000000
     47416       382  PVCL2     OP11          -49.5983864446       41.3495707961      -19.3866232780  MEMB      382             0.0000000000
     47417       382  PVCL2     OP12          -47.8891973169       42.3954554365      -17.8969030878  MEMB      382             0.0000000000
     47418       382  PVCL2     C11           -48.7955189047       43.4082356500      -17.8218991271  MEMB      382             0.0000000000
     47419       382  PVCL2     H11J          -49.8189367974       43.1276197140      -17.4929745551  MEMB      382             0.0000000000
     47420       382  PVCL2     H11K          -48.6913920707       44.0037184058      -18.7540359372  MEMB      382             0.0000000000
     47421       382  PVCL2     C12           -48.2366274297       44.5141787145      -16.8336322881  MEMB      382             0.0000000000
     47422       382  PVCL2     H12J          -47.2061354252       44.7120535756      -17.1986696805  MEMB      382             0.0000000000
     47423       382  PVCL2     O12           -48.1898358797       44.1024636465      -15.4388234114  MEMB      382             0.0000000000
     47424       382  PVCL2     CA1           -47.1094187963       43.3887252367      -15.0555189905  MEMB      382             0.0000000000
     47425       382  PVCL2     OA1           -46.2667173710       42.8968655820      -15.7963867996  MEMB      382             0.0000000000
     47426       382  PVCL2     CA2           -46.9637545725       43.3523188728      -13.5502624072  MEMB      382             0.0000000000
     47427       382  PVCL2     H2A           -47.9707677428       43.5651924175      -13.1320159204  MEMB      382             0.0000000000
     47428       382  PVCL2     H2B           -46.2431139977       44.1379400119      -13.2375377335  MEMB      382             0.0000000000
     47429       382  PVCL2     C13           -49.0823416150       45.8011775018      -17.0294506308  MEMB      382             0.0000000000
     47430       382  PVCL2     H13J          -50.1074421496       45.5158515880      -16.7099524699  MEMB      382             0.0000000000
     47431       382  PVCL2     H13K          -49.1296470697       46.1176251186      -18.0933791411  MEMB      382             0.0000000000
     47432       382  PVCL2     O13           -48.4997136608       46.7972564479      -16.1309851997  MEMB      382             0.0000000000
     47433       382  PVCL2     CB1           -49.3371882096       47.5076159292      -15.3464181367  MEMB      382             0.0000000000
     47434       382  PVCL2     OB1           -50.5474179358       47.4645379165      -15.5228904008  MEMB      382             0.0000000000
     47435       382  PVCL2     CB2           -48.5774479259       48.1630018458      -14.2553592225  MEMB      382             0.0000000000
     47436       382  PVCL2     H2D           -48.4660339302       49.1870570940      -14.6715558785  MEMB      382             0.0000000000
     47437       382  PVCL2     H2E           -47.5624939010       47.7338932036      -14.1137435784  MEMB      382             0.0000000000
     47438       382  PVCL2     C32           -50.8939501406       37.1987503589      -17.2031899018  MEMB      382             0.0000000000
     47439       382  PVCL2     H32J          -51.8510432078       36.7462290105      -16.8662650159  MEMB      382             0.0000000000
     47440       382  PVCL2     O32           -50.8451248272       38.6166490640      -16.9534704487  MEMB      382             0.0000000000
     47441       382  PVCL2     CC1           -52.0400692109       39.1672498381      -16.8176742803  MEMB      382             0.0000000000
     47442       382  PVCL2     OC1           -53.1096207657       38.6221155525      -16.8790346306  MEMB      382             0.0000000000
     47443       382  PVCL2     CC2           -51.9067383536       40.5666228506      -16.4790826806  MEMB      382             0.0000000000
     47444       382  PVCL2     H2R           -51.7187730025       41.1882904440      -17.3804812972  MEMB      382             0.0000000000
     47445       382  PVCL2     H2S           -51.0757095103       40.7215355848      -15.7581706278  MEMB      382             0.0000000000
     47446       382  PVCL2     C33           -49.7423129561       36.6205041417      -16.4114257381  MEMB      382             0.0000000000
     47447       382  PVCL2     H33J          -49.5796675504       35.5395942484      -16.6101757070  MEMB      382             0.0000000000
     47448       382  PVCL2     H33K          -48.8445119793       37.1828450347      -16.7461598007  MEMB      382             0.0000000000
     47449       382  PVCL2     O33           -50.0300665462       36.6552792266      -14.9956363702  MEMB      382             0.0000000000
     47450       382  PVCL2     CD1           -49.0831188484       37.1314430941      -14.1935284325  MEMB      382             0.0000000000
     47451       382  PVCL2     OD1           -48.0864671488       37.7562434452      -14.5500159447  MEMB      382             0.0000000000
     47452       382  PVCL2     CD2           -49.2757184611       36.8413303916      -12.7570816547  MEMB      382             0.0000000000
     47453       382  PVCL2     H2X           -48.4268755135       36.2556192760      -12.3438878432  MEMB      382             0.0000000000
     47454       382  PVCL2     H2Y           -50.1721956805       36.2111177128      -12.5741015378  MEMB      382             0.0000000000
     47455       382  PVCL2     CA3           -46.3327463555       42.0145587161      -13.0464586761  MEMB      382             0.0000000000
     47456       382  PVCL2     H3A           -45.3145591781       41.9386775002      -13.4844744263  MEMB      382             0.0000000000
     47457       382  PVCL2     H3B           -46.9255532456       41.1259009229      -13.3517250646  MEMB      382             0.0000000000
     47458       382  PVCL2     CA4           -46.2039151002       42.0237601383      -11.5463138594  MEMB      382             0.0000000000
     47459       382  PVCL2     H4A           -45.9001343687       43.0326618655      -11.1939568321  MEMB      382             0.0000000000
     47460       382  PVCL2     H4B           -45.4166598346       41.3271082381      -11.1868336965  MEMB      382             0.0000000000
     47461       382  PVCL2     CA5           -47.4444483789       41.7183700773      -10.6941766777  MEMB      382             0.0000000000
     47462       382  PVCL2     H5A           -47.2281857505       41.1726953064       -9.7508895280  MEMB      382             0.0000000000
     47463       382  PVCL2     H5B           -48.1350600088       41.0711221319      -11.2759377339  MEMB      382             0.0000000000
     47464       382  PVCL2     CA6           -48.1272535200       43.0097026082      -10.1269706795  MEMB      382             0.0000000000
     47465       382  PVCL2     H6A           -48.3345925308       43.6281040218      -11.0263658541  MEMB      382             0.0000000000
     47466       382  PVCL2     H6B           -47.3959494596       43.6157704070       -9.5506050875  MEMB      382             0.0000000000
     47467       382  PVCL2     CA7           -49.4623659694       42.6630248301       -9.3237889075  MEMB      382             0.0000000000
     47468       382  PVCL2     H7A           -49.7870115685       43.6663928658       -8.9742473032  MEMB      382             0.0000000000
     47469       382  PVCL2     H7B           -49.1057367862       42.1605013103       -8.3993393595  MEMB      382             0.0000000000
     47470       382  PVCL2     CA8           -50.5457273490       41.8160334350      -10.0509890484  MEMB      382             0.0000000000
     47471       382  PVCL2     H8A           -50.0370003595       40.8619044252      -10.3062451613  MEMB      382             0.0000000000
     47472       382  PVCL2     H8B           -50.8238618043       42.3088385900      -11.0070773063  MEMB      382             0.0000000000
     47473       382  PVCL2     CA9           -51.8244585770       41.6133335220       -9.2247009240  MEMB      382             0.0000000000
     47474       382  PVCL2     H9A           -52.5062184303       40.9428176032       -9.7903268496  MEMB      382             0.0000000000
     47475       382  PVCL2     H9B           -52.3117551612       42.6056113867       -9.1140313336  MEMB      382             0.0000000000
     47476       382  PVCL2     CA10          -51.6305193662       41.0699044879       -7.7630961599  MEMB      382             0.0000000000
     47477       382  PVCL2     H10A          -51.1193165356       41.8195506574       -7.1219848323  MEMB      382             0.0000000000
     47478       382  PVCL2     H10B          -50.9635835498       40.1820684030       -7.7986628585  MEMB      382             0.0000000000
     47479       382  PVCL2     CA11          -52.8718303195       40.5827876025       -7.1104603474  MEMB      382             0.0000000000
     47480       382  PVCL2     H11A          -53.5524264124       40.0916258789       -7.8214800278  MEMB      382             0.0000000000
     47481       382  PVCL2     CA12          -53.3406024902       40.7783163039       -5.8284270727  MEMB      382             0.0000000000
     47482       382  PVCL2     H12A          -54.3030343806       40.2952372017       -5.6040178030  MEMB      382             0.0000000000
     47483       382  PVCL2     CA13          -52.6159336900       41.5397094223       -4.7370941188  MEMB      382             0.0000000000
     47484       382  PVCL2     H13A          -53.3281966298       42.2516871089       -4.2679560270  MEMB      382             0.0000000000
     47485       382  PVCL2     H13B          -51.7046752329       42.0540507693       -5.1104333014  MEMB      382             0.0000000000
     47486       382  PVCL2     CA14          -52.1720668525       40.5177045175       -3.6237241194  MEMB      382             0.0000000000
     47487       382  PVCL2     H14A          -51.6398743868       41.2029569766       -2.9298076916  MEMB      382             0.0000000000
     47488       382  PVCL2     H14B          -51.4853084089       39.7627097936       -4.0626626482  MEMB      382             0.0000000000
     47489       382  PVCL2     CA15          -53.4287718424       39.8700107433       -2.9820459602  MEMB      382             0.0000000000
     47490       382  PVCL2     H15A          -53.8311369328       39.0541272017       -3.6198204655  MEMB      382             0.0000000000
     47491       382  PVCL2     H15B          -54.1762483525       40.6405939794       -2.6960367377  MEMB      382             0.0000000000
     47492       382  PVCL2     CA16          -52.9968839111       39.2746078836       -1.5533247004  MEMB      382             0.0000000000
     47493       382  PVCL2     H16A          -53.9154510367       39.0440059271       -0.9724814090  MEMB      382             0.0000000000
     47494       382  PVCL2     H16B          -52.4606291554       40.0934309618       -1.0277002131  MEMB      382             0.0000000000
     47495       382  PVCL2     CA17          -52.1645547866       38.0130595411       -1.6653892567  MEMB      382             0.0000000000
     47496       382  PVCL2     H17A          -51.8880673562       37.7757964172       -0.6158254940  MEMB      382             0.0000000000
     47497       382  PVCL2     H17B          -51.2477889216       38.1333697287       -2.2813322853  MEMB      382             0.0000000000
     47498       382  PVCL2     CA18          -52.8247219064       36.8009670087       -2.2734697256  MEMB      382             0.0000000000
     47499       382  PVCL2     H18A          -53.7843868226       36.8300925360       -1.7144374451  MEMB      382             0.0000000000
     47500       382  PVCL2     H18B          -52.2688787887       35.8506273878       -2.1244249898  MEMB      382             0.0000000000
     47501       382  PVCL2     H18C          -53.0316342704       37.0230320395       -3.3422042563  MEMB      382             0.0000000000
     47502       382  PVCL2     CB3           -49.3105012609       48.1229608017      -12.8454627365  MEMB      382             0.0000000000
     47503       382  PVCL2     H3D           -49.8789558687       47.1706943150      -12.7793614464  MEMB      382             0.0000000000
     47504       382  PVCL2     H3E           -50.1307055714       48.8699672556      -12.7857369610  MEMB      382             0.0000000000
     47505       382  PVCL2     CB4           -48.3253962189       48.1602827572      -11.6630621745  MEMB      382             0.0000000000
     47506       382  PVCL2     H4D           -48.9535681759       48.5919821358      -10.8547572305  MEMB      382             0.0000000000
     47507       382  PVCL2     H4E           -47.4982934298       48.8811100737      -11.8380756094  MEMB      382             0.0000000000
     47508       382  PVCL2     CB5           -47.8045049075       46.7617652323      -11.4152270909  MEMB      382             0.0000000000
     47509       382  PVCL2     H5D           -47.5061081986       46.3182824730      -12.3891902321  MEMB      382             0.0000000000
     47510       382  PVCL2     H5E           -48.6220876857       46.1296138374      -11.0074721336  MEMB      382             0.0000000000
     47511       382  PVCL2     CB6           -46.4796316714       46.8129182742      -10.5773560620  MEMB      382             0.0000000000
     47512       382  PVCL2     H6D           -45.8066030197       47.4908452397      -11.1446025685  MEMB      382             0.0000000000
     47513       382  PVCL2     H6E           -46.0328883644       45.8072503230      -10.4244736149  MEMB      382             0.0000000000
     47514       382  PVCL2     CB7           -46.7336644382       47.3967464906       -9.1281457350  MEMB      382             0.0000000000
     47515       382  PVCL2     H7D           -47.7318165825       47.1480497436       -8.7084278459  MEMB      382             0.0000000000
     47516       382  PVCL2     H7E           -46.8117116850       48.5044281051       -9.1637982670  MEMB      382             0.0000000000
     47517       382  PVCL2     CB8           -45.5578351131       47.1078711554       -8.1561209500  MEMB      382             0.0000000000
     47518       382  PVCL2     H8D           -45.5197476836       47.7936259232       -7.2828457791  MEMB      382             0.0000000000
     47519       382  PVCL2     H8E           -44.6371814326       47.2306101797       -8.7657538283  MEMB      382             0.0000000000
     47520       382  PVCL2     CB9           -45.7782032350       45.7270119005       -7.4619527096  MEMB      382             0.0000000000
     47521       382  PVCL2     H9D           -44.8023706588       45.5065311743       -6.9787754964  MEMB      382             0.0000000000
     47522       382  PVCL2     H9E           -46.0251671961       45.0255111134       -8.2873167381  MEMB      382             0.0000000000
     47523       382  PVCL2     CB10          -47.0586261399       45.5368048494       -6.5839180363  MEMB      382             0.0000000000
     47524       382  PVCL2     H10D          -47.9220632808       45.8489166227       -7.2095244756  MEMB      382             0.0000000000
     47525       382  PVCL2     H10E          -46.9632521026       46.1171721756       -5.6413689648  MEMB      382             0.0000000000
     47526       382  PVCL2     CB11          -47.3696007666       44.0376525656       -6.2043239947  MEMB      382             0.0000000000
     47527       382  PVCL2     H11D          -46.6075128097       43.5473656837       -5.5615469350  MEMB      382             0.0000000000
     47528       382  PVCL2     H11E          -47.3829681125       43.4862437045       -7.1687359475  MEMB      382             0.0000000000
     47529       382  PVCL2     CB12          -48.7266915199       43.7694351099       -5.5235270251  MEMB      382             0.0000000000
     47530       382  PVCL2     H12D          -48.8695620708       42.6867030090       -5.3195660090  MEMB      382             0.0000000000
     47531       382  PVCL2     H12E          -49.5571649596       44.1093880312       -6.1785593322  MEMB      382             0.0000000000
     47532       382  PVCL2     CB13          -48.9132417632       44.4914001544       -4.1986332057  MEMB      382             0.0000000000
     47533       382  PVCL2     H13D          -49.1159380811       45.5837502259       -4.1961178162  MEMB      382             0.0000000000
     47534       382  PVCL2     H13E          -48.0014149987       44.2837403537       -3.5988240967  MEMB      382             0.0000000000
     47535       382  PVCL2     CB14          -50.1585839766       43.8930445839       -3.4487289890  MEMB      382             0.0000000000
     47536       382  PVCL2     H14D          -49.8481943528       42.8596091580       -3.1841716687  MEMB      382             0.0000000000
     47537       382  PVCL2     H14E          -51.0156273336       43.8619269616       -4.1550068508  MEMB      382             0.0000000000
     47538       382  PVCL2     CB15          -50.5419736089       44.6039428891       -2.1409525364  MEMB      382             0.0000000000
     47539       382  PVCL2     H15D          -50.7972457796       45.6214972559       -2.5066569938  MEMB      382             0.0000000000
     47540       382  PVCL2     H15E          -49.6553099540       44.7199167865       -1.4816362156  MEMB      382             0.0000000000
     47541       382  PVCL2     CB16          -51.7551715060       43.9493822662       -1.4056869469  MEMB      382             0.0000000000
     47542       382  PVCL2     H16D          -52.5082942245       43.5776012424       -2.1329464603  MEMB      382             0.0000000000
     47543       382  PVCL2     H16E          -52.1710525116       44.7154990520       -0.7168987518  MEMB      382             0.0000000000
     47544       382  PVCL2     H16F          -51.3236098328       43.1140395200       -0.8138434595  MEMB      382             0.0000000000
     47545       382  PVCL2     CC3           -53.1252083029       41.1678300453      -15.7793564645  MEMB      382             0.0000000000
     47546       382  PVCL2     H3R           -53.2026689259       40.7954286392      -14.7354993438  MEMB      382             0.0000000000
     47547       382  PVCL2     H3S           -54.0493399877       40.7962915872      -16.2715566749  MEMB      382             0.0000000000
     47548       382  PVCL2     CC4           -53.1518071835       42.7217464528      -15.8188169037  MEMB      382             0.0000000000
     47549       382  PVCL2     H4R           -53.9927509717       43.1418087266      -15.2266323440  MEMB      382             0.0000000000
     47550       382  PVCL2     H4S           -53.2821230261       43.0922744604      -16.8580705909  MEMB      382             0.0000000000
     47551       382  PVCL2     CC5           -51.9107282007       43.3645568631      -15.1654019650  MEMB      382             0.0000000000
     47552       382  PVCL2     H5R           -52.0462888478       44.4505791513      -15.3564502168  MEMB      382             0.0000000000
     47553       382  PVCL2     H5S           -50.9589507175       43.0323594326      -15.6323984006  MEMB      382             0.0000000000
     47554       382  PVCL2     CC6           -51.7342911962       43.0059502419      -13.6264679590  MEMB      382             0.0000000000
     47555       382  PVCL2     H6R           -50.8421009300       43.5691856496      -13.2784975723  MEMB      382             0.0000000000
     47556       382  PVCL2     H6S           -51.4190250705       41.9413631368      -13.5866877934  MEMB      382             0.0000000000
     47557       382  PVCL2     CC7           -52.8455817916       43.3019238335      -12.6506629291  MEMB      382             0.0000000000
     47558       382  PVCL2     H7R           -52.7042080782       42.8457034876      -11.6475689537  MEMB      382             0.0000000000
     47559       382  PVCL2     H7S           -53.8121492887       42.8862015608      -13.0073749587  MEMB      382             0.0000000000
     47560       382  PVCL2     CC8           -53.0041416497       44.8190367775      -12.5051763327  MEMB      382             0.0000000000
     47561       382  PVCL2     H8R           -53.1420278031       45.3028401304      -13.4957531386  MEMB      382             0.0000000000
     47562       382  PVCL2     H8S           -51.9735596538       45.0100610225      -12.1367582590  MEMB      382             0.0000000000
     47563       382  PVCL2     CC9           -53.9526686572       45.2519136041      -11.4401601545  MEMB      382             0.0000000000
     47564       382  PVCL2     H9R           -53.6434198905       44.7334570133      -10.5074819679  MEMB      382             0.0000000000
     47565       382  PVCL2     H9S           -54.9670540763       44.9634568884      -11.7896403868  MEMB      382             0.0000000000
     47566       382  PVCL2     CC10          -53.9808300993       46.7966478667      -11.3020340525  MEMB      382             0.0000000000
     47567       382  PVCL2     H10R          -54.4940247310       47.1428826042      -10.3794972532  MEMB      382             0.0000000000
     47568       382  PVCL2     H10S          -54.5961931260       47.2120235715      -12.1285402545  MEMB      382             0.0000000000
     47569       382  PVCL2     CC11          -52.6496815371       47.5676602344      -11.4611577516  MEMB      382             0.0000000000
     47570       382  PVCL2     H11R          -52.3961832002       47.8527245409      -12.4928924925  MEMB      382             0.0000000000
     47571       382  PVCL2     CC12          -51.8922250409       47.8454136553      -10.3722523474  MEMB      382             0.0000000000
     47572       382  PVCL2     H12R          -50.9837622557       48.4445473550      -10.5326711368  MEMB      382             0.0000000000
     47573       382  PVCL2     CC13          -52.1590170840       47.4685677444       -8.9207843788  MEMB      382             0.0000000000
     47574       382  PVCL2     H13R          -52.9005579116       46.6435747368       -8.8589393971  MEMB      382             0.0000000000
     47575       382  PVCL2     H13S          -52.6945098733       48.3158015277       -8.4414479797  MEMB      382             0.0000000000
     47576       382  PVCL2     CC14          -50.9886478312       47.0439060748       -8.0053645638  MEMB      382             0.0000000000
     47577       382  PVCL2     H14R          -49.9935527050       47.5003755380       -8.1944201784  MEMB      382             0.0000000000
     47578       382  PVCL2     H14S          -50.8469697954       45.9583149310       -8.1944161870  MEMB      382             0.0000000000
     47579       382  PVCL2     CC15          -51.2962046350       47.3497744107       -6.5559679861  MEMB      382             0.0000000000
     47580       382  PVCL2     H15R          -51.5067138819       48.4299143376       -6.4033111751  MEMB      382             0.0000000000
     47581       382  PVCL2     H15S          -50.3891961148       47.0559933185       -5.9855741137  MEMB      382             0.0000000000
     47582       382  PVCL2     CC16          -52.4829967083       46.4203768585       -6.1655755260  MEMB      382             0.0000000000
     47583       382  PVCL2     H16R          -52.3364266327       45.3659684280       -6.4834750336  MEMB      382             0.0000000000
     47584       382  PVCL2     H16S          -53.3744297264       46.7512915098       -6.7401738460  MEMB      382             0.0000000000
     47585       382  PVCL2     CC17          -53.0103495439       46.5116268756       -4.7124843404  MEMB      382             0.0000000000
     47586       382  PVCL2     H17R          -52.1816336280       46.2809262522       -4.0094006772  MEMB      382             0.0000000000
     47587       382  PVCL2     H17S          -53.8620669063       45.8129533782       -4.5684217705  MEMB      382             0.0000000000
     47588       382  PVCL2     CC18          -53.5465765419       47.9382659009       -4.3574329011  MEMB      382             0.0000000000
     47589       382  PVCL2     H18R          -54.3469144954       48.2582229025       -5.0584375571  MEMB      382             0.0000000000
     47590       382  PVCL2     H18S          -52.6923360434       48.6157684357       -4.5709388194  MEMB      382             0.0000000000
     47591       382  PVCL2     H18T          -53.8523379448       47.9206941804       -3.2894808578  MEMB      382             0.0000000000
     47592       382  PVCL2     CD3           -49.4950994314       38.1161428302      -11.9049991907  MEMB      382             0.0000000000
     47593       382  PVCL2     H3X           -49.9767338336       38.9325526213      -12.4845026875  MEMB      382             0.0000000000
     47594       382  PVCL2     H3Y           -48.5803791124       38.6040611655      -11.5055708022  MEMB      382             0.0000000000
     47595       382  PVCL2     CD4           -50.3940575896       37.8668915291      -10.6203183608  MEMB      382             0.0000000000
     47596       382  PVCL2     H4X           -51.2879714804       37.2300981425      -10.7927513256  MEMB      382             0.0000000000
     47597       382  PVCL2     H4Y           -50.6339768901       38.8194812595      -10.1013454820  MEMB      382             0.0000000000
     47598       382  PVCL2     CD5           -49.6449680024       37.0655020355       -9.5188956430  MEMB      382             0.0000000000
     47599       382  PVCL2     H5X           -49.3429265475       36.1378230456      -10.0504056530  MEMB      382             0.0000000000
     47600       382  PVCL2     H5Y           -50.3470345125       36.8024872486       -8.6989881538  MEMB      382             0.0000000000
     47601       382  PVCL2     CD6           -48.2783896276       37.6565079364       -9.0185083563  MEMB      382             0.0000000000
     47602       382  PVCL2     H6X           -47.7171616565       38.0096214692       -9.9099430919  MEMB      382             0.0000000000
     47603       382  PVCL2     H6Y           -47.7890951284       36.7717300955       -8.5579860804  MEMB      382             0.0000000000
     47604       382  PVCL2     CD7           -48.4111688480       38.7213478304       -7.9293449001  MEMB      382             0.0000000000
     47605       382  PVCL2     H7X           -49.2408779895       38.4402591181       -7.2460492460  MEMB      382             0.0000000000
     47606       382  PVCL2     H7Y           -48.8191471642       39.6524181526       -8.3776555937  MEMB      382             0.0000000000
     47607       382  PVCL2     CD8           -47.1266022831       39.0989121256       -7.2507721241  MEMB      382             0.0000000000
     47608       382  PVCL2     H8X           -46.4539981833       39.6721139599       -7.9240954893  MEMB      382             0.0000000000
     47609       382  PVCL2     H8Y           -46.5419297290       38.2202838892       -6.9036532280  MEMB      382             0.0000000000
     47610       382  PVCL2     CD9           -47.2237769958       39.9913072705       -5.9618602853  MEMB      382             0.0000000000
     47611       382  PVCL2     H9X           -47.9632230928       40.8080438189       -6.1049754689  MEMB      382             0.0000000000
     47612       382  PVCL2     H9Y           -46.2885916202       40.4974869438       -5.6400969093  MEMB      382             0.0000000000
     47613       382  PVCL2     CD10          -47.8547163359       39.1319181049       -4.8376032274  MEMB      382             0.0000000000
     47614       382  PVCL2     H10X          -47.3934696936       38.1211927827       -4.8402395437  MEMB      382             0.0000000000
     47615       382  PVCL2     H10Y          -48.9583353772       39.0619433945       -4.9446059783  MEMB      382             0.0000000000
     47616       382  PVCL2     CD11          -47.5250007356       39.7558982948       -3.3632537452  MEMB      382             0.0000000000
     47617       382  PVCL2     H11X          -47.6330202967       40.8557664091       -3.4770204145  MEMB      382             0.0000000000
     47618       382  PVCL2     H11Y          -46.4879939166       39.4910515966       -3.0652714858  MEMB      382             0.0000000000
     47619       382  PVCL2     CD12          -48.4651864515       39.3450733163       -2.1946217083  MEMB      382             0.0000000000
     47620       382  PVCL2     H12X          -48.2422871530       38.2618917242       -2.0880659467  MEMB      382             0.0000000000
     47621       382  PVCL2     H12Y          -49.5203686798       39.5573079563       -2.4700632359  MEMB      382             0.0000000000
     47622       382  PVCL2     CD13          -48.1514804496       39.9367202892       -0.8187929957  MEMB      382             0.0000000000
     47623       382  PVCL2     H13X          -47.0848149110       39.6935732233       -0.6253368610  MEMB      382             0.0000000000
     47624       382  PVCL2     H13Y          -48.8019871391       39.4642767802       -0.0520078334  MEMB      382             0.0000000000
     47625       382  PVCL2     CD14          -48.4324419828       41.3606947421       -0.6067823862  MEMB      382             0.0000000000
     47626       382  PVCL2     H14X          -49.5195683861       41.5533014766       -0.4827671547  MEMB      382             0.0000000000
     47627       382  PVCL2     H14Y          -47.8934290821       41.9674081932       -1.3655220139  MEMB      382             0.0000000000
     47628       382  PVCL2     CD15          -47.9348861688       41.8408384855        0.8309110722  MEMB      382             0.0000000000
     47629       382  PVCL2     H15X          -46.8352625033       41.9070903347        0.9749907612  MEMB      382             0.0000000000
     47630       382  PVCL2     H15Y          -48.3261456072       41.1095148512        1.5701016799  MEMB      382             0.0000000000
     47631       382  PVCL2     CD16          -48.5311075204       43.1954743551        1.2080349424  MEMB      382             0.0000000000
     47632       382  PVCL2     H16X          -48.2874712880       43.5131293313        2.2444027132  MEMB      382             0.0000000000
     47633       382  PVCL2     H16Y          -49.6261470853       43.1658096403        1.0227529600  MEMB      382             0.0000000000
     47634       382  PVCL2     H16Z          -48.0149353107       43.9105812307        0.5323792740  MEMB      382             0.0000000000
     47635       383  PMPE      N             -58.3608848133       31.0158884464      -20.6496730220  MEMB      383             0.0000000000
     47636       383  PMPE      HN1           -59.2548015088       30.4917664957      -20.7380412501  MEMB      383             0.0000000000
     47637       383  PMPE      HN2           -58.5783885499       32.0204319773      -20.4909771405  MEMB      383             0.0000000000
     47638       383  PMPE      HN3           -57.8562260422       30.8688367026      -21.5470556236  MEMB      383             0.0000000000
     47639       383  PMPE      C12           -57.5362192273       30.5209681975      -19.5603759299  MEMB      383             0.0000000000
     47640       383  PMPE      H12A          -57.8444741108       29.4549448736      -19.5065792216  MEMB      383             0.0000000000
     47641       383  PMPE      H12B          -57.9560571758       30.9108189055      -18.6084969367  MEMB      383             0.0000000000
     47642       383  PMPE      C11           -56.1062132021       30.9449880497      -19.8012341917  MEMB      383             0.0000000000
     47643       383  PMPE      H11A          -55.5408903497       30.5231725339      -20.6596062741  MEMB      383             0.0000000000
     47644       383  PMPE      H11B          -55.4385198942       30.6322845948      -18.9701366459  MEMB      383             0.0000000000
     47645       383  PMPE      P             -55.6031055127       33.1744876315      -18.3741022336  MEMB      383             0.0000000000
     47646       383  PMPE      O13           -55.8592114372       34.6625688894      -18.5320372961  MEMB      383             0.0000000000
     47647       383  PMPE      O14           -54.2160306933       32.8546768547      -17.9497764629  MEMB      383             0.0000000000
     47648       383  PMPE      O11           -56.6774065804       32.5445759941      -17.3913000958  MEMB      383             0.0000000000
     47649       383  PMPE      O12           -55.9752143395       32.3582982516      -19.7415007655  MEMB      383             0.0000000000
     47650       383  PMPE      C1            -56.2954517450       32.1872808370      -16.1170399202  MEMB      383             0.0000000000
     47651       383  PMPE      HA            -55.3120708439       32.5744773131      -15.7744585895  MEMB      383             0.0000000000
     47652       383  PMPE      HB            -56.1666419615       31.0878187827      -16.0226352021  MEMB      383             0.0000000000
     47653       383  PMPE      C2            -57.3624004361       32.4708176617      -14.9964684956  MEMB      383             0.0000000000
     47654       383  PMPE      HS            -57.2243224791       31.8904881609      -14.0591995486  MEMB      383             0.0000000000
     47655       383  PMPE      O21           -58.7723042655       32.3182549179      -15.3912551255  MEMB      383             0.0000000000
     47656       383  PMPE      C21           -59.0826587399       31.0426044162      -15.7547557991  MEMB      383             0.0000000000
     47657       383  PMPE      O22           -58.3741187133       30.1052138308      -15.8620445320  MEMB      383             0.0000000000
     47658       383  PMPE      C22           -60.6315977567       30.9445753197      -16.0332731707  MEMB      383             0.0000000000
     47659       383  PMPE      H2R           -60.7351203358       30.7129950828      -17.1149270238  MEMB      383             0.0000000000
     47660       383  PMPE      H2S           -61.2822580835       31.7696251036      -15.6723645220  MEMB      383             0.0000000000
     47661       383  PMPE      C3            -57.0708399214       33.9587038498      -14.5360532765  MEMB      383             0.0000000000
     47662       383  PMPE      HX            -57.1389754894       34.5223973790      -15.4910025312  MEMB      383             0.0000000000
     47663       383  PMPE      HY            -56.0304996265       34.1430413746      -14.1924939795  MEMB      383             0.0000000000
     47664       383  PMPE      O31           -58.0906246415       34.3835986463      -13.6288607229  MEMB      383             0.0000000000
     47665       383  PMPE      C31           -58.8836370597       35.3592048959      -14.0621741796  MEMB      383             0.0000000000
     47666       383  PMPE      O32           -58.8431146702       35.8864487008      -15.1194838256  MEMB      383             0.0000000000
     47667       383  PMPE      C32           -59.7561037310       35.8816194801      -13.0133902786  MEMB      383             0.0000000000
     47668       383  PMPE      H2X           -60.2880834419       35.0436020564      -12.5143459679  MEMB      383             0.0000000000
     47669       383  PMPE      H2Y           -60.5002357135       36.5637076696      -13.4774428160  MEMB      383             0.0000000000
     47670       383  PMPE      C23           -61.1459243402       29.6716636674      -15.1939597415  MEMB      383             0.0000000000
     47671       383  PMPE      H3R           -60.3187923038       29.0124777966      -14.8538896810  MEMB      383             0.0000000000
     47672       383  PMPE      H3S           -61.7317248923       29.2009788014      -16.0122593909  MEMB      383             0.0000000000
     47673       383  PMPE      C24           -62.1464994508       29.9188373384      -14.0634660848  MEMB      383             0.0000000000
     47674       383  PMPE      H4R           -62.7933472739       29.0156087395      -14.0727510490  MEMB      383             0.0000000000
     47675       383  PMPE      H4S           -62.8402712699       30.7774019108      -14.1894358018  MEMB      383             0.0000000000
     47676       383  PMPE      C25           -61.5004367734       30.0574305784      -12.6519789900  MEMB      383             0.0000000000
     47677       383  PMPE      H5R           -60.8727129409       29.1809792782      -12.3834331605  MEMB      383             0.0000000000
     47678       383  PMPE      H5S           -62.2777722123       30.2273218644      -11.8766036421  MEMB      383             0.0000000000
     47679       383  PMPE      C26           -60.7055990622       31.3413674936      -12.5897660492  MEMB      383             0.0000000000
     47680       383  PMPE      H6R           -61.3939395725       32.1483970978      -12.9202381426  MEMB      383             0.0000000000
     47681       383  PMPE      H6S           -59.8822103550       31.3061335635      -13.3348231722  MEMB      383             0.0000000000
     47682       383  PMPE      C27           -60.0718879719       31.6196125563      -11.1795690706  MEMB      383             0.0000000000
     47683       383  PMPE      H7R           -60.9014304667       31.8574085641      -10.4798305998  MEMB      383             0.0000000000
     47684       383  PMPE      H7S           -59.4621335698       32.5253188895      -11.3850351153  MEMB      383             0.0000000000
     47685       383  PMPE      C28           -59.1052796649       30.5256000605      -10.5185374957  MEMB      383             0.0000000000
     47686       383  PMPE      H8R           -58.1857175888       30.3942873761      -11.1280322744  MEMB      383             0.0000000000
     47687       383  PMPE      H8S           -59.6738937309       29.5819140145      -10.3755150669  MEMB      383             0.0000000000
     47688       383  PMPE      C29           -58.4685340531       31.0715812765       -9.1900679158  MEMB      383             0.0000000000
     47689       383  PMPE      H9R           -57.8927527563       32.0214382381       -9.1662209145  MEMB      383             0.0000000000
     47690       383  PMPE      C217          -57.8515834625       30.0089023226       -8.2855291482  MEMB      383             0.0000000000
     47691       383  PMPE      H17R          -56.8336808361       30.3271124660       -8.0971000725  MEMB      383             0.0000000000
     47692       383  PMPE      H17S          -58.0947870904       29.0860153960       -8.7974089248  MEMB      383             0.0000000000
     47693       383  PMPE      C210          -59.1061471080       30.8043268327       -7.8985972446  MEMB      383             0.0000000000
     47694       383  PMPE      H10R          -58.9719519946       31.7239181123       -7.2897751664  MEMB      383             0.0000000000
     47695       383  PMPE      C211          -60.3658932728       29.8919791636       -7.7604455647  MEMB      383             0.0000000000
     47696       383  PMPE      H11R          -60.0761111080       28.8465776839       -8.0002020165  MEMB      383             0.0000000000
     47697       383  PMPE      H11S          -61.1334893484       30.2998704926       -8.4523577723  MEMB      383             0.0000000000
     47698       383  PMPE      C212          -60.8963500642       29.9178342565       -6.3752915802  MEMB      383             0.0000000000
     47699       383  PMPE      H12R          -60.0442996834       29.5827000991       -5.7459931599  MEMB      383             0.0000000000
     47700       383  PMPE      H12S          -61.6899834404       29.1452274292       -6.2884229561  MEMB      383             0.0000000000
     47701       383  PMPE      C213          -61.3842836582       31.3409969177       -5.8776126244  MEMB      383             0.0000000000
     47702       383  PMPE      H13R          -62.3971869473       31.4718058298       -6.3149192222  MEMB      383             0.0000000000
     47703       383  PMPE      H13S          -60.7174756210       32.1174383200       -6.3098483431  MEMB      383             0.0000000000
     47704       383  PMPE      C214          -61.4655151650       31.4543059753       -4.3735222687  MEMB      383             0.0000000000
     47705       383  PMPE      H14R          -61.8258134922       32.4826436035       -4.1566635968  MEMB      383             0.0000000000
     47706       383  PMPE      H14S          -60.4418803397       31.4931466964       -3.9434246504  MEMB      383             0.0000000000
     47707       383  PMPE      C215          -62.2238475744       30.3086588583       -3.6502232501  MEMB      383             0.0000000000
     47708       383  PMPE      H15R          -61.7623574682       29.3287392822       -3.8974170662  MEMB      383             0.0000000000
     47709       383  PMPE      H15S          -63.2750020246       30.2774587531       -4.0085828502  MEMB      383             0.0000000000
     47710       383  PMPE      C216          -62.1928735087       30.2464723926       -2.1467600646  MEMB      383             0.0000000000
     47711       383  PMPE      H16R          -62.4493861456       29.2145471119       -1.8248085993  MEMB      383             0.0000000000
     47712       383  PMPE      H16S          -61.1452533470       30.4145716742       -1.8172823099  MEMB      383             0.0000000000
     47713       383  PMPE      H16T          -62.9092232861       30.9904562059       -1.7373074083  MEMB      383             0.0000000000
     47714       383  PMPE      C33           -58.9619362048       36.8375099175      -12.0882550984  MEMB      383             0.0000000000
     47715       383  PMPE      H3X           -59.6988859395       37.5689448986      -11.6929964890  MEMB      383             0.0000000000
     47716       383  PMPE      H3Y           -58.0786597526       37.3119921885      -12.5668046802  MEMB      383             0.0000000000
     47717       383  PMPE      C34           -58.3612615353       36.1818605511      -10.8333918845  MEMB      383             0.0000000000
     47718       383  PMPE      H4X           -57.6744711671       35.3645640798      -11.1410714373  MEMB      383             0.0000000000
     47719       383  PMPE      H4Y           -59.2055939515       35.7082601989      -10.2882990544  MEMB      383             0.0000000000
     47720       383  PMPE      C35           -57.5652324354       37.2409204743      -10.0105191178  MEMB      383             0.0000000000
     47721       383  PMPE      H5X           -58.3300812005       37.9750657738       -9.6783172744  MEMB      383             0.0000000000
     47722       383  PMPE      H5Y           -56.7949648044       37.7817888455      -10.6008329306  MEMB      383             0.0000000000
     47723       383  PMPE      C36           -56.7970792488       36.6059935724       -8.8159416303  MEMB      383             0.0000000000
     47724       383  PMPE      H6X           -56.3892212163       37.4378030742       -8.2026993122  MEMB      383             0.0000000000
     47725       383  PMPE      H6Y           -55.9284572086       35.9786658756       -9.1096701063  MEMB      383             0.0000000000
     47726       383  PMPE      C37           -57.7567238075       35.8617839516       -7.8373587412  MEMB      383             0.0000000000
     47727       383  PMPE      H7X           -58.2049564209       34.9213096938       -8.2232556416  MEMB      383             0.0000000000
     47728       383  PMPE      H7Y           -58.5534597638       36.5346401809       -7.4542168222  MEMB      383             0.0000000000
     47729       383  PMPE      C38           -56.9546053116       35.2714094952       -6.5976177978  MEMB      383             0.0000000000
     47730       383  PMPE      H8X           -56.3735754246       36.0889187433       -6.1197014908  MEMB      383             0.0000000000
     47731       383  PMPE      H8Y           -56.2858522174       34.4809725251       -7.0004818778  MEMB      383             0.0000000000
     47732       383  PMPE      C39           -57.9860100787       34.6502667863       -5.6021281450  MEMB      383             0.0000000000
     47733       383  PMPE      H9X           -58.8749933696       34.1550821196       -6.0480225407  MEMB      383             0.0000000000
     47734       383  PMPE      H9Y           -58.3216452633       35.4656527678       -4.9262468009  MEMB      383             0.0000000000
     47735       383  PMPE      C310          -57.4872462604       33.6306493903       -4.5267480371  MEMB      383             0.0000000000
     47736       383  PMPE      H10X          -57.2019692030       32.7301810336       -5.1116361921  MEMB      383             0.0000000000
     47737       383  PMPE      H10Y          -58.3686254640       33.4025151720       -3.8900006768  MEMB      383             0.0000000000
     47738       383  PMPE      C311          -56.4025503245       34.0916800252       -3.6403715765  MEMB      383             0.0000000000
     47739       383  PMPE      H11X          -56.7526737046       35.0611890580       -3.2258995530  MEMB      383             0.0000000000
     47740       383  PMPE      H11Y          -55.5418909109       34.3116419144       -4.3076068902  MEMB      383             0.0000000000
     47741       383  PMPE      C312          -56.1484565343       33.0768023331       -2.4728537719  MEMB      383             0.0000000000
     47742       383  PMPE      H12X          -55.0708567371       33.1169561683       -2.2054824892  MEMB      383             0.0000000000
     47743       383  PMPE      H12Y          -56.4701358354       32.0807556232       -2.8453244735  MEMB      383             0.0000000000
     47744       383  PMPE      C313          -56.8129622931       33.4376261611       -1.0958833582  MEMB      383             0.0000000000
     47745       383  PMPE      H13X          -57.8917683433       33.6410334073       -1.2665413543  MEMB      383             0.0000000000
     47746       383  PMPE      H13Y          -56.3891996151       34.4041962579       -0.7487682420  MEMB      383             0.0000000000
     47747       383  PMPE      C314          -56.7301340717       32.3096159232       -0.0874814058  MEMB      383             0.0000000000
     47748       383  PMPE      H14X          -55.6327122003       32.2377363177        0.0700611529  MEMB      383             0.0000000000
     47749       383  PMPE      H14Y          -57.1598106243       31.4212517631       -0.5978817025  MEMB      383             0.0000000000
     47750       383  PMPE      C315          -57.6039526012       32.6562927726        1.0525221445  MEMB      383             0.0000000000
     47751       383  PMPE      H15X          -58.6133230443       32.9038983033        0.6598594469  MEMB      383             0.0000000000
     47752       383  PMPE      H15Y          -57.2942095581       33.6301042986        1.4884947070  MEMB      383             0.0000000000
     47753       383  PMPE      C316          -57.8172908788       31.6355106021        2.2074565680  MEMB      383             0.0000000000
     47754       383  PMPE      H16X          -56.9464333309       31.0149478631        2.5088361725  MEMB      383             0.0000000000
     47755       383  PMPE      H16Y          -58.6263650428       30.9388215306        1.9003009686  MEMB      383             0.0000000000
     47756       383  PMPE      H16Z          -58.1875270083       32.1918065801        3.0950271812  MEMB      383             0.0000000000
     47757       384  PMPE      N             -31.9313363609      -54.4905176424      -21.2109104320  MEMB      384             0.0000000000
     47758       384  PMPE      HN1           -32.8440870635      -54.4163166598      -21.7038409546  MEMB      384             0.0000000000
     47759       384  PMPE      HN2           -31.8953719978      -53.8336411720      -20.4054170103  MEMB      384             0.0000000000
     47760       384  PMPE      HN3           -31.1351974619      -54.1422308776      -21.7822767089  MEMB      384             0.0000000000
     47761       384  PMPE      C12           -31.5088538693      -55.8257541422      -20.9243802102  MEMB      384             0.0000000000
     47762       384  PMPE      H12A          -30.5245683059      -55.8735235316      -20.4113291658  MEMB      384             0.0000000000
     47763       384  PMPE      H12B          -31.3748910350      -56.3297306405      -21.9053912091  MEMB      384             0.0000000000
     47764       384  PMPE      C11           -32.5370449939      -56.5712922357      -20.1595692957  MEMB      384             0.0000000000
     47765       384  PMPE      H11A          -32.2033950181      -57.6014496982      -19.9110250908  MEMB      384             0.0000000000
     47766       384  PMPE      H11B          -33.5027007855      -56.7031398350      -20.6929041330  MEMB      384             0.0000000000
     47767       384  PMPE      P             -33.9064827537      -56.3804752160      -17.9097885600  MEMB      384             0.0000000000
     47768       384  PMPE      O13           -33.3303557341      -57.5338822542      -17.1828726414  MEMB      384             0.0000000000
     47769       384  PMPE      O14           -35.2058810082      -56.6619615533      -18.6553436021  MEMB      384             0.0000000000
     47770       384  PMPE      O11           -33.9884675993      -55.0681381216      -17.0096165118  MEMB      384             0.0000000000
     47771       384  PMPE      O12           -32.8355488818      -55.8248756341      -18.9475187158  MEMB      384             0.0000000000
     47772       384  PMPE      C1            -34.9059065601      -54.9771652054      -15.9547635007  MEMB      384             0.0000000000
     47773       384  PMPE      HA            -35.4334513536      -55.9264172266      -15.7203748306  MEMB      384             0.0000000000
     47774       384  PMPE      HB            -35.6587011594      -54.1630185152      -16.0239476422  MEMB      384             0.0000000000
     47775       384  PMPE      C2            -34.1079410037      -54.6431694021      -14.5821686574  MEMB      384             0.0000000000
     47776       384  PMPE      HS            -33.8540251432      -53.5957429646      -14.8518825117  MEMB      384             0.0000000000
     47777       384  PMPE      O21           -32.9314745356      -55.4660273090      -14.4230839920  MEMB      384             0.0000000000
     47778       384  PMPE      C21           -31.8360306824      -55.0010691095      -14.9079037349  MEMB      384             0.0000000000
     47779       384  PMPE      O22           -31.6357186441      -53.9543740651      -15.4571848028  MEMB      384             0.0000000000
     47780       384  PMPE      C22           -30.7313399836      -56.0350618375      -14.5979562996  MEMB      384             0.0000000000
     47781       384  PMPE      H2R           -29.8642029119      -55.8407271704      -15.2647608402  MEMB      384             0.0000000000
     47782       384  PMPE      H2S           -31.1001722530      -57.0732795412      -14.7407420917  MEMB      384             0.0000000000
     47783       384  PMPE      C3            -34.9446289081      -54.7205129911      -13.2978187208  MEMB      384             0.0000000000
     47784       384  PMPE      HX            -35.0418350738      -55.7778250977      -12.9707665457  MEMB      384             0.0000000000
     47785       384  PMPE      HY            -35.9559834289      -54.3119525234      -13.5089144647  MEMB      384             0.0000000000
     47786       384  PMPE      O31           -34.2786089099      -53.9422219531      -12.3173514987  MEMB      384             0.0000000000
     47787       384  PMPE      C31           -34.6257454988      -54.0557951464      -10.9811559876  MEMB      384             0.0000000000
     47788       384  PMPE      O32           -35.2424215244      -55.0227029532      -10.6153692114  MEMB      384             0.0000000000
     47789       384  PMPE      C32           -34.0444904770      -52.9277481516      -10.2141384214  MEMB      384             0.0000000000
     47790       384  PMPE      H2X           -34.8541390718      -52.2436396591       -9.8812923267  MEMB      384             0.0000000000
     47791       384  PMPE      H2Y           -33.2303276845      -52.4688597581      -10.8148715924  MEMB      384             0.0000000000
     47792       384  PMPE      C23           -30.1852634958      -55.8501827401      -13.1843348312  MEMB      384             0.0000000000
     47793       384  PMPE      H3R           -29.8222037178      -54.8434888197      -12.8858790527  MEMB      384             0.0000000000
     47794       384  PMPE      H3S           -29.2824505637      -56.4946629576      -13.1219263334  MEMB      384             0.0000000000
     47795       384  PMPE      C24           -31.1578434364      -56.5079581048      -12.1288974438  MEMB      384             0.0000000000
     47796       384  PMPE      H4R           -31.3867707398      -57.5386291902      -12.4747736510  MEMB      384             0.0000000000
     47797       384  PMPE      H4S           -32.0865532157      -55.9002728430      -12.0785210637  MEMB      384             0.0000000000
     47798       384  PMPE      C25           -30.6242596458      -56.5157877140      -10.7306951117  MEMB      384             0.0000000000
     47799       384  PMPE      H5R           -30.4522740826      -55.5047470026      -10.3034493580  MEMB      384             0.0000000000
     47800       384  PMPE      H5S           -29.7016566506      -57.1326400973      -10.6795272361  MEMB      384             0.0000000000
     47801       384  PMPE      C26           -31.6933161352      -57.1031435853       -9.7996450986  MEMB      384             0.0000000000
     47802       384  PMPE      H6R           -31.9733985573      -58.1223613979      -10.1417998745  MEMB      384             0.0000000000
     47803       384  PMPE      H6S           -32.5988412376      -56.4894783800       -9.6053247601  MEMB      384             0.0000000000
     47804       384  PMPE      C27           -31.1596724823      -57.2785309845       -8.3820711717  MEMB      384             0.0000000000
     47805       384  PMPE      H7R           -30.6026248779      -56.3633286090       -8.0880925567  MEMB      384             0.0000000000
     47806       384  PMPE      H7S           -30.3681700408      -58.0476348327       -8.5098376844  MEMB      384             0.0000000000
     47807       384  PMPE      C28           -32.3128317403      -57.5511827668       -7.3977649724  MEMB      384             0.0000000000
     47808       384  PMPE      H8R           -33.0584469451      -58.2854350762       -7.7709304792  MEMB      384             0.0000000000
     47809       384  PMPE      H8S           -32.8089626402      -56.5938697129       -7.1299464526  MEMB      384             0.0000000000
     47810       384  PMPE      C29           -31.8567505072      -57.9951609989       -5.9977357158  MEMB      384             0.0000000000
     47811       384  PMPE      H9R           -31.1390215658      -57.2990100327       -5.5134221767  MEMB      384             0.0000000000
     47812       384  PMPE      C217          -31.4065328134      -59.4702999372       -6.0521302284  MEMB      384             0.0000000000
     47813       384  PMPE      H17R          -30.4008506870      -59.5103808361       -5.6522719576  MEMB      384             0.0000000000
     47814       384  PMPE      H17S          -31.8027811763      -60.1540164737       -6.7926758626  MEMB      384             0.0000000000
     47815       384  PMPE      C210          -32.5688954552      -58.9733216119       -5.1304836757  MEMB      384             0.0000000000
     47816       384  PMPE      H10R          -32.3001973697      -58.7670217986       -4.0723895400  MEMB      384             0.0000000000
     47817       384  PMPE      C211          -34.0458995971      -59.1552856294       -5.4714894786  MEMB      384             0.0000000000
     47818       384  PMPE      H11R          -34.4977454822      -59.9787793945       -4.8781807637  MEMB      384             0.0000000000
     47819       384  PMPE      H11S          -34.1708361547      -59.5553260136       -6.5004110099  MEMB      384             0.0000000000
     47820       384  PMPE      C212          -34.9992121417      -57.9660850805       -5.4598819941  MEMB      384             0.0000000000
     47821       384  PMPE      H12R          -36.0661333813      -58.2648679909       -5.5419123423  MEMB      384             0.0000000000
     47822       384  PMPE      H12S          -34.6382532565      -57.2754369752       -6.2517366516  MEMB      384             0.0000000000
     47823       384  PMPE      C213          -34.9721714995      -57.3467434345       -4.1311171776  MEMB      384             0.0000000000
     47824       384  PMPE      H13R          -34.1382018238      -56.6132405992       -4.1030309186  MEMB      384             0.0000000000
     47825       384  PMPE      H13S          -34.9290456119      -57.9725476800       -3.2141485350  MEMB      384             0.0000000000
     47826       384  PMPE      C214          -36.1737680565      -56.4751329784       -3.9570176744  MEMB      384             0.0000000000
     47827       384  PMPE      H14R          -36.9048719955      -56.8987193590       -3.2356422654  MEMB      384             0.0000000000
     47828       384  PMPE      H14S          -36.6558441898      -56.3551717433       -4.9507646085  MEMB      384             0.0000000000
     47829       384  PMPE      C215          -36.0144939456      -55.1175746750       -3.2528460215  MEMB      384             0.0000000000
     47830       384  PMPE      H15R          -37.0121215049      -54.6328377838       -3.1888897201  MEMB      384             0.0000000000
     47831       384  PMPE      H15S          -35.3474559443      -54.5512308251       -3.9374157338  MEMB      384             0.0000000000
     47832       384  PMPE      C216          -35.3630909137      -55.1237141346       -1.8511935010  MEMB      384             0.0000000000
     47833       384  PMPE      H16R          -34.2936350284      -55.4068392597       -1.7490902476  MEMB      384             0.0000000000
     47834       384  PMPE      H16S          -35.5971845007      -54.1913473155       -1.2942251853  MEMB      384             0.0000000000
     47835       384  PMPE      H16T          -35.7386929037      -56.0622668776       -1.3903637465  MEMB      384             0.0000000000
     47836       384  PMPE      C33           -33.5325919472      -53.5476932262       -8.8979468784  MEMB      384             0.0000000000
     47837       384  PMPE      H3X           -33.0242318173      -54.5288811175       -9.0126704835  MEMB      384             0.0000000000
     47838       384  PMPE      H3Y           -34.3864599394      -53.8356000176       -8.2480695146  MEMB      384             0.0000000000
     47839       384  PMPE      C34           -32.7303396713      -52.6878533473       -7.9617162448  MEMB      384             0.0000000000
     47840       384  PMPE      H4X           -33.2594724388      -51.7212584428       -7.8201756334  MEMB      384             0.0000000000
     47841       384  PMPE      H4Y           -31.7603480348      -52.4882500317       -8.4652981429  MEMB      384             0.0000000000
     47842       384  PMPE      C35           -32.3991524415      -53.4594767067       -6.6454803645  MEMB      384             0.0000000000
     47843       384  PMPE      H5X           -31.9837248530      -54.4297347495       -6.9923817369  MEMB      384             0.0000000000
     47844       384  PMPE      H5Y           -33.3695964907      -53.5821585113       -6.1186900478  MEMB      384             0.0000000000
     47845       384  PMPE      C36           -31.4933819646      -52.6764779003       -5.7064397056  MEMB      384             0.0000000000
     47846       384  PMPE      H6X           -32.0370060732      -51.7554275531       -5.4056736272  MEMB      384             0.0000000000
     47847       384  PMPE      H6Y           -30.6768288616      -52.2665703394       -6.3385294350  MEMB      384             0.0000000000
     47848       384  PMPE      C37           -30.8667727250      -53.3460930323       -4.5270366932  MEMB      384             0.0000000000
     47849       384  PMPE      H7X           -30.2707075694      -52.6806559008       -3.8665669385  MEMB      384             0.0000000000
     47850       384  PMPE      H7Y           -30.1172372990      -54.0606935280       -4.9293596751  MEMB      384             0.0000000000
     47851       384  PMPE      C38           -31.8333024752      -54.0751052803       -3.5434611319  MEMB      384             0.0000000000
     47852       384  PMPE      H8X           -32.4525789825      -54.8171115287       -4.0914068954  MEMB      384             0.0000000000
     47853       384  PMPE      H8Y           -32.4957034751      -53.2851416501       -3.1293308972  MEMB      384             0.0000000000
     47854       384  PMPE      C39           -31.1512737317      -54.6531598282       -2.3152015010  MEMB      384             0.0000000000
     47855       384  PMPE      H9X           -32.0062860033      -55.0327116613       -1.7158554457  MEMB      384             0.0000000000
     47856       384  PMPE      H9Y           -30.6364582046      -53.8870451505       -1.6968543376  MEMB      384             0.0000000000
     47857       384  PMPE      C310          -30.3543767474      -55.8674414507       -2.7655698659  MEMB      384             0.0000000000
     47858       384  PMPE      H10X          -29.3148980292      -55.5455599058       -2.9896160715  MEMB      384             0.0000000000
     47859       384  PMPE      H10Y          -30.9075401663      -56.3272766850       -3.6122589121  MEMB      384             0.0000000000
     47860       384  PMPE      C311          -30.3162400278      -56.8960712221       -1.6148164604  MEMB      384             0.0000000000
     47861       384  PMPE      H11X          -29.7451963791      -57.7580012768       -2.0213954229  MEMB      384             0.0000000000
     47862       384  PMPE      H11Y          -31.3891221261      -57.1767705304       -1.5480862298  MEMB      384             0.0000000000
     47863       384  PMPE      C312          -29.8957093100      -56.4944885263       -0.2123534040  MEMB      384             0.0000000000
     47864       384  PMPE      H12X          -30.3931787311      -55.5699639043        0.1511011214  MEMB      384             0.0000000000
     47865       384  PMPE      H12Y          -28.8418148782      -56.1680033607       -0.3428769388  MEMB      384             0.0000000000
     47866       384  PMPE      C313          -29.9604071355      -57.5788117515        0.8812220068  MEMB      384             0.0000000000
     47867       384  PMPE      H13X          -29.8264594882      -57.1267705339        1.8872221235  MEMB      384             0.0000000000
     47868       384  PMPE      H13Y          -29.1225857253      -58.2949925051        0.7417169545  MEMB      384             0.0000000000
     47869       384  PMPE      C314          -31.1612745901      -58.5281289727        0.8213916849  MEMB      384             0.0000000000
     47870       384  PMPE      H14X          -30.9456154531      -59.3218914986        1.5682214043  MEMB      384             0.0000000000
     47871       384  PMPE      H14Y          -31.2479906532      -59.0584778360       -0.1509919113  MEMB      384             0.0000000000
     47872       384  PMPE      C315          -32.5378320459      -57.8001762342        1.0582838165  MEMB      384             0.0000000000
     47873       384  PMPE      H15X          -32.4998028700      -56.8072812802        0.5612585741  MEMB      384             0.0000000000
     47874       384  PMPE      H15Y          -32.6737198293      -57.5616318296        2.1348291027  MEMB      384             0.0000000000
     47875       384  PMPE      C316          -33.6625034808      -58.7225789925        0.5732869013  MEMB      384             0.0000000000
     47876       384  PMPE      H16X          -33.8313273698      -58.4694053139       -0.4952281827  MEMB      384             0.0000000000
     47877       384  PMPE      H16Y          -34.6181405844      -58.4323683991        1.0599649515  MEMB      384             0.0000000000
     47878       384  PMPE      H16Z          -33.5204126921      -59.8222886863        0.6423471514  MEMB      384             0.0000000000
     47879       385  PMPE      N              39.4025876860       56.6247113971      -20.0695866247  MEMB      385             0.0000000000
     47880       385  PMPE      HN1            39.0420390592       56.6703300025      -19.0951515605  MEMB      385             0.0000000000
     47881       385  PMPE      HN2            40.4105135866       56.4337333199      -19.8986689647  MEMB      385             0.0000000000
     47882       385  PMPE      HN3            39.2774043539       57.4584219758      -20.6785657664  MEMB      385             0.0000000000
     47883       385  PMPE      C12            38.8496244814       55.4218267875      -20.7873992434  MEMB      385             0.0000000000
     47884       385  PMPE      H12A           39.6402889500       55.1999746366      -21.5356987615  MEMB      385             0.0000000000
     47885       385  PMPE      H12B           37.9855707682       55.8212922596      -21.3602512363  MEMB      385             0.0000000000
     47886       385  PMPE      C11            38.6609766652       54.1571590033      -19.8791683107  MEMB      385             0.0000000000
     47887       385  PMPE      H11A           39.6080577388       53.9925854059      -19.3221459872  MEMB      385             0.0000000000
     47888       385  PMPE      H11B           38.4510566240       53.2333836584      -20.4595938118  MEMB      385             0.0000000000
     47889       385  PMPE      P              36.7437350798       53.4581392752      -18.2426662680  MEMB      385             0.0000000000
     47890       385  PMPE      O13            35.8216502742       52.7745385020      -19.1726080318  MEMB      385             0.0000000000
     47891       385  PMPE      O14            36.0921641445       54.1430334295      -17.1621254430  MEMB      385             0.0000000000
     47892       385  PMPE      O11            37.8207912173       52.4667059609      -17.6901536546  MEMB      385             0.0000000000
     47893       385  PMPE      O12            37.6424592872       54.4609208424      -18.9962924266  MEMB      385             0.0000000000
     47894       385  PMPE      C1             38.9009292287       52.8620389387      -16.7308493206  MEMB      385             0.0000000000
     47895       385  PMPE      HA             39.1528822058       53.9438571090      -16.7534358693  MEMB      385             0.0000000000
     47896       385  PMPE      HB             39.8205611336       52.3157343053      -17.0310979715  MEMB      385             0.0000000000
     47897       385  PMPE      C2             38.5442836607       52.3405097710      -15.2906066300  MEMB      385             0.0000000000
     47898       385  PMPE      HS             38.6666097270       51.2420283078      -15.4032835085  MEMB      385             0.0000000000
     47899       385  PMPE      O21            37.1845996838       52.6265849782      -14.9510905686  MEMB      385             0.0000000000
     47900       385  PMPE      C21            36.6291360292       52.0778096140      -13.9088096271  MEMB      385             0.0000000000
     47901       385  PMPE      O22            37.1254990361       51.2610849904      -13.1989254657  MEMB      385             0.0000000000
     47902       385  PMPE      C22            35.2018326441       52.6318312416      -13.7296679202  MEMB      385             0.0000000000
     47903       385  PMPE      H2R            34.6980312725       51.7543496725      -13.2708311096  MEMB      385             0.0000000000
     47904       385  PMPE      H2S            34.8564038614       52.9979627178      -14.7200956297  MEMB      385             0.0000000000
     47905       385  PMPE      C3             39.4616675433       52.9354323358      -14.1895130284  MEMB      385             0.0000000000
     47906       385  PMPE      HX             40.5000011955       52.7626016330      -14.5449198594  MEMB      385             0.0000000000
     47907       385  PMPE      HY             39.2661586456       52.4685353359      -13.2005215647  MEMB      385             0.0000000000
     47908       385  PMPE      O31            39.1078894157       54.3138170240      -14.0622989562  MEMB      385             0.0000000000
     47909       385  PMPE      C31            38.6587411300       54.7396356934      -12.7954340418  MEMB      385             0.0000000000
     47910       385  PMPE      O32            38.4872828484       54.0615397792      -11.8407624757  MEMB      385             0.0000000000
     47911       385  PMPE      C32            38.3483190353       56.2257685074      -12.8599129638  MEMB      385             0.0000000000
     47912       385  PMPE      H2X            37.3659101692       56.4327411831      -13.3356818993  MEMB      385             0.0000000000
     47913       385  PMPE      H2Y            39.1402845780       56.6642370358      -13.5040067606  MEMB      385             0.0000000000
     47914       385  PMPE      C23            35.1135115835       53.8143719627      -12.7431896802  MEMB      385             0.0000000000
     47915       385  PMPE      H3R            35.8595511239       54.5263498273      -13.1565098019  MEMB      385             0.0000000000
     47916       385  PMPE      H3S            35.4105118090       53.5948307889      -11.6953762318  MEMB      385             0.0000000000
     47917       385  PMPE      C24            33.7800051695       54.5812461549      -12.8386104611  MEMB      385             0.0000000000
     47918       385  PMPE      H4R            33.5292877114       54.6960431478      -13.9148465008  MEMB      385             0.0000000000
     47919       385  PMPE      H4S            33.7809575511       55.6067644570      -12.4112552884  MEMB      385             0.0000000000
     47920       385  PMPE      C25            32.6776003796       53.8881072865      -12.0900630586  MEMB      385             0.0000000000
     47921       385  PMPE      H5R            32.4504663051       52.8724459206      -12.4788596166  MEMB      385             0.0000000000
     47922       385  PMPE      H5S            31.7710178673       54.5273137446      -12.0280608242  MEMB      385             0.0000000000
     47923       385  PMPE      C26            32.9333431238       53.5648655706      -10.6295904541  MEMB      385             0.0000000000
     47924       385  PMPE      H6R            33.6882167764       52.7535047943      -10.5509743973  MEMB      385             0.0000000000
     47925       385  PMPE      H6S            31.9796594577       53.1599246855      -10.2285530161  MEMB      385             0.0000000000
     47926       385  PMPE      C27            33.3433409858       54.8463367744       -9.8000046152  MEMB      385             0.0000000000
     47927       385  PMPE      H7R            32.6521879761       55.6888582435      -10.0163059905  MEMB      385             0.0000000000
     47928       385  PMPE      H7S            34.3233956212       55.2688149609      -10.1087541344  MEMB      385             0.0000000000
     47929       385  PMPE      C28            33.3053840250       54.6940190627       -8.2597446088  MEMB      385             0.0000000000
     47930       385  PMPE      H8R            33.6273512569       55.6482206219       -7.7905345293  MEMB      385             0.0000000000
     47931       385  PMPE      H8S            34.0261881499       53.8654188900       -8.0918633048  MEMB      385             0.0000000000
     47932       385  PMPE      C29            31.9124678221       54.4704942619       -7.7167088856  MEMB      385             0.0000000000
     47933       385  PMPE      H9R            31.1016035062       53.9676635673       -8.2859016428  MEMB      385             0.0000000000
     47934       385  PMPE      C217           31.3013289626       55.8425265584       -7.3654578598  MEMB      385             0.0000000000
     47935       385  PMPE      H17R           30.3197795388       55.9343963126       -7.8137987422  MEMB      385             0.0000000000
     47936       385  PMPE      H17S           32.0098105572       56.6404265824       -7.1802595753  MEMB      385             0.0000000000
     47937       385  PMPE      C210           31.5449563030       54.7561272536       -6.3048794658  MEMB      385             0.0000000000
     47938       385  PMPE      H10R           30.5924772820       54.3352332731       -5.9176415721  MEMB      385             0.0000000000
     47939       385  PMPE      C211           32.5984004468       54.8998946121       -5.2502432029  MEMB      385             0.0000000000
     47940       385  PMPE      H11R           32.1882089918       55.4911251447       -4.4037739911  MEMB      385             0.0000000000
     47941       385  PMPE      H11S           33.5196542708       55.4014109920       -5.6164308016  MEMB      385             0.0000000000
     47942       385  PMPE      C212           33.1338982191       53.4952285679       -4.7541517728  MEMB      385             0.0000000000
     47943       385  PMPE      H12R           33.8993210636       53.2269265665       -5.5134025602  MEMB      385             0.0000000000
     47944       385  PMPE      H12S           32.3702243095       52.6895136059       -4.7100320435  MEMB      385             0.0000000000
     47945       385  PMPE      C213           33.9559733203       53.6491931032       -3.4273521037  MEMB      385             0.0000000000
     47946       385  PMPE      H13R           33.3012406312       54.0383881224       -2.6185415049  MEMB      385             0.0000000000
     47947       385  PMPE      H13S           34.8063807678       54.3375768110       -3.6203702067  MEMB      385             0.0000000000
     47948       385  PMPE      C214           34.5092171125       52.2967755335       -2.9160816615  MEMB      385             0.0000000000
     47949       385  PMPE      H14R           35.4182753115       51.8816602485       -3.4014830161  MEMB      385             0.0000000000
     47950       385  PMPE      H14S           33.6713224626       51.5695493735       -2.9743521966  MEMB      385             0.0000000000
     47951       385  PMPE      C215           34.8444475781       52.2341220655       -1.3324824168  MEMB      385             0.0000000000
     47952       385  PMPE      H15R           33.8671060664       52.2787127626       -0.8060461184  MEMB      385             0.0000000000
     47953       385  PMPE      H15S           35.4533476772       53.1356057656       -1.1068965666  MEMB      385             0.0000000000
     47954       385  PMPE      C216           35.6818909943       51.1116244827       -0.6753766077  MEMB      385             0.0000000000
     47955       385  PMPE      H16R           36.7499165008       51.0504172400       -0.9752020748  MEMB      385             0.0000000000
     47956       385  PMPE      H16S           35.6977100272       51.0291622859        0.4324454945  MEMB      385             0.0000000000
     47957       385  PMPE      H16T           35.2055667562       50.1510184317       -0.9663606202  MEMB      385             0.0000000000
     47958       385  PMPE      C33            38.3385564006       56.8541625748      -11.4757106884  MEMB      385             0.0000000000
     47959       385  PMPE      H3X            38.5485395618       57.9373470138      -11.6058619031  MEMB      385             0.0000000000
     47960       385  PMPE      H3Y            39.2163255860       56.4375094129      -10.9369688568  MEMB      385             0.0000000000
     47961       385  PMPE      C34            37.0564088995       56.7225850991      -10.7132528823  MEMB      385             0.0000000000
     47962       385  PMPE      H4X            36.7946160463       55.6451219529      -10.7829572605  MEMB      385             0.0000000000
     47963       385  PMPE      H4Y            36.2370581352       57.2573835726      -11.2395378541  MEMB      385             0.0000000000
     47964       385  PMPE      C35            37.0972234566       57.1684295579       -9.2786673628  MEMB      385             0.0000000000
     47965       385  PMPE      H5X            36.0405081237       57.2688911785       -8.9506706820  MEMB      385             0.0000000000
     47966       385  PMPE      H5Y            37.6624646983       58.1138738977       -9.1338965771  MEMB      385             0.0000000000
     47967       385  PMPE      C36            37.7220604502       56.1119850886       -8.3926603612  MEMB      385             0.0000000000
     47968       385  PMPE      H6X            38.7333096460       55.8919490661       -8.7967389617  MEMB      385             0.0000000000
     47969       385  PMPE      H6Y            37.1226151743       55.1778417289       -8.4412657763  MEMB      385             0.0000000000
     47970       385  PMPE      C37            37.8750326732       56.5456058735       -6.8772672906  MEMB      385             0.0000000000
     47971       385  PMPE      H7X            38.2747433835       57.5813989709       -6.9183148652  MEMB      385             0.0000000000
     47972       385  PMPE      H7Y            38.6387712266       55.8540861812       -6.4615454288  MEMB      385             0.0000000000
     47973       385  PMPE      C38            36.6365998045       56.5050040797       -5.9537905969  MEMB      385             0.0000000000
     47974       385  PMPE      H8X            36.1019687018       55.5496357127       -6.1428987219  MEMB      385             0.0000000000
     47975       385  PMPE      H8Y            35.9579145702       57.2559746374       -6.4117764216  MEMB      385             0.0000000000
     47976       385  PMPE      C39            36.9474156477       56.8693405094       -4.5315568453  MEMB      385             0.0000000000
     47977       385  PMPE      H9X            36.1055209826       57.3854432444       -4.0224664120  MEMB      385             0.0000000000
     47978       385  PMPE      H9Y            37.7746591972       57.6042588979       -4.6309752177  MEMB      385             0.0000000000
     47979       385  PMPE      C310           37.5860769243       55.8140639555       -3.6217620760  MEMB      385             0.0000000000
     47980       385  PMPE      H10X           38.4775194773       55.3874660448       -4.1293701423  MEMB      385             0.0000000000
     47981       385  PMPE      H10Y           36.8930263106       54.9636789899       -3.4461289668  MEMB      385             0.0000000000
     47982       385  PMPE      C311           37.9359559541       56.2677482533       -2.2286369956  MEMB      385             0.0000000000
     47983       385  PMPE      H11X           37.0060341818       56.0690734105       -1.6540983423  MEMB      385             0.0000000000
     47984       385  PMPE      H11Y           38.2844275378       57.3215682463       -2.1801397398  MEMB      385             0.0000000000
     47985       385  PMPE      C312           39.0439529130       55.4903577677       -1.7505264987  MEMB      385             0.0000000000
     47986       385  PMPE      H12X           40.0065458939       55.6407843910       -2.2844814414  MEMB      385             0.0000000000
     47987       385  PMPE      H12Y           38.9109542568       54.4046602019       -1.5558644197  MEMB      385             0.0000000000
     47988       385  PMPE      C313           39.5107043571       56.1430733804       -0.3467497004  MEMB      385             0.0000000000
     47989       385  PMPE      H13X           39.6149962438       57.2386934423       -0.4986088039  MEMB      385             0.0000000000
     47990       385  PMPE      H13Y           40.4775856319       55.6628421376       -0.0843776530  MEMB      385             0.0000000000
     47991       385  PMPE      C314           38.5215116773       55.8293259439        0.8479893408  MEMB      385             0.0000000000
     47992       385  PMPE      H14X           38.5502867780       54.7247836041        0.9640890150  MEMB      385             0.0000000000
     47993       385  PMPE      H14Y           37.5104325310       56.2335900232        0.6275118048  MEMB      385             0.0000000000
     47994       385  PMPE      C315           38.8658956715       56.3202023608        2.1954499575  MEMB      385             0.0000000000
     47995       385  PMPE      H15X           39.8189627130       55.8125489594        2.4567401094  MEMB      385             0.0000000000
     47996       385  PMPE      H15Y           38.1739192645       55.8752725368        2.9421280082  MEMB      385             0.0000000000
     47997       385  PMPE      C316           39.0490258672       57.8621102787        2.2381426581  MEMB      385             0.0000000000
     47998       385  PMPE      H16X           39.8982306382       58.1772650866        1.5948313103  MEMB      385             0.0000000000
     47999       385  PMPE      H16Y           39.2533915417       58.0654215396        3.3110922712  MEMB      385             0.0000000000
     48000       385  PMPE      H16Z           38.1640388793       58.4695923863        1.9516389228  MEMB      385             0.0000000000
     48001       386  POPE      N              39.9580926117      -51.7876155119      -16.9311228133  MEMB      386             0.0000000000
     48002       386  POPE      HN1            39.1439664439      -51.4885855894      -16.3572066291  MEMB      386             0.0000000000
     48003       386  POPE      HN2            40.0736412690      -52.8199502710      -16.8807894068  MEMB      386             0.0000000000
     48004       386  POPE      HN3            40.7891242056      -51.2343174771      -16.6398361798  MEMB      386             0.0000000000
     48005       386  POPE      C12            39.6066243388      -51.5565487795      -18.3610991283  MEMB      386             0.0000000000
     48006       386  POPE      H12A           39.7540576483      -50.4881965208      -18.6279469987  MEMB      386             0.0000000000
     48007       386  POPE      H12B           38.5588439228      -51.8465171690      -18.5899994242  MEMB      386             0.0000000000
     48008       386  POPE      C11            40.5398220102      -52.3003762573      -19.3442372903  MEMB      386             0.0000000000
     48009       386  POPE      H11A           40.0897218140      -52.3325986595      -20.3594675746  MEMB      386             0.0000000000
     48010       386  POPE      H11B           40.7236618960      -53.3559807997      -19.0505999311  MEMB      386             0.0000000000
     48011       386  POPE      P              43.1724819289      -52.3394098895      -19.5213104507  MEMB      386             0.0000000000
     48012       386  POPE      O13            44.3151971728      -51.4360397609      -19.7263781596  MEMB      386             0.0000000000
     48013       386  POPE      O14            42.9557533582      -53.3381143469      -20.5520742680  MEMB      386             0.0000000000
     48014       386  POPE      O11            43.3300282073      -53.0999982702      -18.1304553521  MEMB      386             0.0000000000
     48015       386  POPE      O12            41.7902848165      -51.5420875159      -19.4333225362  MEMB      386             0.0000000000
     48016       386  POPE      C1             44.4975276890      -53.8692863710      -17.9257704720  MEMB      386             0.0000000000
     48017       386  POPE      HA             45.2661742390      -53.8036642304      -18.7252684272  MEMB      386             0.0000000000
     48018       386  POPE      HB             44.1337026053      -54.9188060236      -17.9472361273  MEMB      386             0.0000000000
     48019       386  POPE      C2             45.1815604198      -53.6323395190      -16.5104639029  MEMB      386             0.0000000000
     48020       386  POPE      HS             46.2544551714      -53.9028395513      -16.6107026886  MEMB      386             0.0000000000
     48021       386  POPE      O21            44.4740411022      -54.4245449222      -15.5150664088  MEMB      386             0.0000000000
     48022       386  POPE      C21            45.1547003118      -54.8417226829      -14.5232647488  MEMB      386             0.0000000000
     48023       386  POPE      O22            46.3394538769      -54.6256834064      -14.2761433774  MEMB      386             0.0000000000
     48024       386  POPE      C22            44.1865602076      -55.5522387172      -13.5457570718  MEMB      386             0.0000000000
     48025       386  POPE      H2R            44.8019279738      -56.1226750125      -12.8175772540  MEMB      386             0.0000000000
     48026       386  POPE      H2S            43.6178817292      -56.3879166190      -14.0068082344  MEMB      386             0.0000000000
     48027       386  POPE      C3             45.1386771738      -52.1096265390      -16.2326083671  MEMB      386             0.0000000000
     48028       386  POPE      HX             45.5088144228      -51.5650349424      -17.1274486217  MEMB      386             0.0000000000
     48029       386  POPE      HY             45.8727071701      -52.0268985461      -15.4027426599  MEMB      386             0.0000000000
     48030       386  POPE      O31            43.8110713715      -51.7477574319      -15.6684425383  MEMB      386             0.0000000000
     48031       386  POPE      C31            43.5480120498      -50.4974445204      -15.7051750524  MEMB      386             0.0000000000
     48032       386  POPE      O32            44.2641136781      -49.5769441431      -16.1452628177  MEMB      386             0.0000000000
     48033       386  POPE      C32            42.1885534174      -50.3613974500      -14.9847778572  MEMB      386             0.0000000000
     48034       386  POPE      H2X            41.8021679233      -51.3404443889      -14.6291175980  MEMB      386             0.0000000000
     48035       386  POPE      H2Y            41.4443399402      -49.9388462773      -15.6932393238  MEMB      386             0.0000000000
     48036       386  POPE      C23            43.3114188941      -54.5621752059      -12.7408590318  MEMB      386             0.0000000000
     48037       386  POPE      H3R            42.5206743475      -55.2088858759      -12.3040416902  MEMB      386             0.0000000000
     48038       386  POPE      H3S            42.7835442587      -53.9474689611      -13.5009944615  MEMB      386             0.0000000000
     48039       386  POPE      C24            43.9844825019      -53.7821448961      -11.6129790118  MEMB      386             0.0000000000
     48040       386  POPE      H4R            44.6990368554      -54.4235688225      -11.0541331982  MEMB      386             0.0000000000
     48041       386  POPE      H4S            43.2428769687      -53.4896274913      -10.8391729650  MEMB      386             0.0000000000
     48042       386  POPE      C25            44.7344691276      -52.5669307875      -12.0888916948  MEMB      386             0.0000000000
     48043       386  POPE      H5R            44.1450969772      -52.1764671290      -12.9459212167  MEMB      386             0.0000000000
     48044       386  POPE      H5S            45.7017685844      -52.8799987987      -12.5368213982  MEMB      386             0.0000000000
     48045       386  POPE      C26            44.9377923366      -51.5068769884      -11.0341269586  MEMB      386             0.0000000000
     48046       386  POPE      H6R            45.6629638879      -51.7956715574      -10.2435297485  MEMB      386             0.0000000000
     48047       386  POPE      H6S            43.9879914698      -51.2497307432      -10.5183018910  MEMB      386             0.0000000000
     48048       386  POPE      C27            45.4917466104      -50.2057589951      -11.6926810592  MEMB      386             0.0000000000
     48049       386  POPE      H7R            44.9337400694      -49.8610469739      -12.5894106430  MEMB      386             0.0000000000
     48050       386  POPE      H7S            46.5005647672      -50.5070644223      -12.0473948614  MEMB      386             0.0000000000
     48051       386  POPE      C28            45.8425323528      -49.1095495470      -10.6277897565  MEMB      386             0.0000000000
     48052       386  POPE      H8R            46.5117251006      -48.3658222078      -11.1108753707  MEMB      386             0.0000000000
     48053       386  POPE      H8S            46.4126472569      -49.5801440230       -9.7984338095  MEMB      386             0.0000000000
     48054       386  POPE      C29            44.6066014765      -48.5462041938       -9.9050202452  MEMB      386             0.0000000000
     48055       386  POPE      H91            43.8658924199      -48.0006751763      -10.5081365489  MEMB      386             0.0000000000
     48056       386  POPE      C210           44.2999423723      -48.8167640418       -8.6379475462  MEMB      386             0.0000000000
     48057       386  POPE      H101           43.3692873336      -48.3576014093       -8.2731859795  MEMB      386             0.0000000000
     48058       386  POPE      C211           45.0859668341      -49.7174654674       -7.6809681054  MEMB      386             0.0000000000
     48059       386  POPE      H11R           45.9848553719      -49.2221393704       -7.2555598680  MEMB      386             0.0000000000
     48060       386  POPE      H11S           45.5791275214      -50.5098006687       -8.2837279145  MEMB      386             0.0000000000
     48061       386  POPE      C212           44.4520344153      -50.4929846669       -6.5185171191  MEMB      386             0.0000000000
     48062       386  POPE      H12R           43.7753589737      -49.8652348554       -5.9001632277  MEMB      386             0.0000000000
     48063       386  POPE      H12S           45.2912349235      -50.6662455541       -5.8113792201  MEMB      386             0.0000000000
     48064       386  POPE      C213           43.6544950436      -51.7644618602       -6.8910807920  MEMB      386             0.0000000000
     48065       386  POPE      H13R           44.0318070472      -52.2155480047       -7.8336722299  MEMB      386             0.0000000000
     48066       386  POPE      H13S           42.5927138565      -51.4407015124       -6.9371359388  MEMB      386             0.0000000000
     48067       386  POPE      C214           43.7997891699      -52.8751856772       -5.8193164283  MEMB      386             0.0000000000
     48068       386  POPE      H14R           44.8393517254      -52.8941239583       -5.4278162697  MEMB      386             0.0000000000
     48069       386  POPE      H14S           43.6226767967      -53.8429542836       -6.3354323139  MEMB      386             0.0000000000
     48070       386  POPE      C215           42.8038546650      -52.5901607134       -4.6697061016  MEMB      386             0.0000000000
     48071       386  POPE      H15R           41.7991555144      -52.4582404277       -5.1252256882  MEMB      386             0.0000000000
     48072       386  POPE      H15S           42.9940889225      -51.6272807678       -4.1491348736  MEMB      386             0.0000000000
     48073       386  POPE      C216           42.6426285432      -53.5756686763       -3.4917418557  MEMB      386             0.0000000000
     48074       386  POPE      H16R           41.8754158944      -53.2202783353       -2.7710456244  MEMB      386             0.0000000000
     48075       386  POPE      H16S           43.6282220571      -53.5108801335       -2.9830878792  MEMB      386             0.0000000000
     48076       386  POPE      C217           42.1991916605      -55.0491748848       -3.7822219084  MEMB      386             0.0000000000
     48077       386  POPE      H17R           42.9495997453      -55.4208953394       -4.5123123969  MEMB      386             0.0000000000
     48078       386  POPE      H17S           41.2151537303      -54.9120100812       -4.2793899586  MEMB      386             0.0000000000
     48079       386  POPE      C218           42.1420429427      -55.9291572962       -2.5800170091  MEMB      386             0.0000000000
     48080       386  POPE      H18R           43.1639244790      -56.0035112043       -2.1504246605  MEMB      386             0.0000000000
     48081       386  POPE      H18S           41.8113119470      -56.9691435840       -2.7882632642  MEMB      386             0.0000000000
     48082       386  POPE      H18T           41.4790105909      -55.5909316735       -1.7552060192  MEMB      386             0.0000000000
     48083       386  POPE      C33            42.3313868445      -49.3989525274      -13.8119373531  MEMB      386             0.0000000000
     48084       386  POPE      H3X            42.7164264609      -48.4385782608      -14.2165938433  MEMB      386             0.0000000000
     48085       386  POPE      H3Y            43.0632052895      -49.7812014642      -13.0685339050  MEMB      386             0.0000000000
     48086       386  POPE      C34            40.9433071200      -49.0955038744      -13.1182064697  MEMB      386             0.0000000000
     48087       386  POPE      H4X            40.2671778227      -48.7386446214      -13.9243217407  MEMB      386             0.0000000000
     48088       386  POPE      H4Y            41.1426349559      -48.4501404127      -12.2361096745  MEMB      386             0.0000000000
     48089       386  POPE      C35            40.2375534788      -50.3759954533      -12.5144012126  MEMB      386             0.0000000000
     48090       386  POPE      H5X            39.9911580296      -51.0625182915      -13.3524326437  MEMB      386             0.0000000000
     48091       386  POPE      H5Y            39.2477655202      -50.0148822258      -12.1619273035  MEMB      386             0.0000000000
     48092       386  POPE      C36            40.9970746808      -51.0702058871      -11.3466775545  MEMB      386             0.0000000000
     48093       386  POPE      H6X            41.4033621802      -50.3093786905      -10.6463967231  MEMB      386             0.0000000000
     48094       386  POPE      H6Y            41.9079073871      -51.5411644772      -11.7743489267  MEMB      386             0.0000000000
     48095       386  POPE      C37            40.1443909147      -52.0155911276      -10.5021528658  MEMB      386             0.0000000000
     48096       386  POPE      H7X            39.9175769578      -52.8562994140      -11.1921425789  MEMB      386             0.0000000000
     48097       386  POPE      H7Y            39.1530803186      -51.5871708452      -10.2412296800  MEMB      386             0.0000000000
     48098       386  POPE      C38            40.8254484464      -52.4933252975       -9.1654176219  MEMB      386             0.0000000000
     48099       386  POPE      H8X            41.1313766368      -51.6780967927       -8.4753953043  MEMB      386             0.0000000000
     48100       386  POPE      H8Y            41.7797162982      -52.8694661617       -9.5922802750  MEMB      386             0.0000000000
     48101       386  POPE      C39            39.9835355102      -53.5812005317       -8.4893927048  MEMB      386             0.0000000000
     48102       386  POPE      H9X            40.7562747625      -54.2651323280       -8.0777718271  MEMB      386             0.0000000000
     48103       386  POPE      H9Y            39.4101637842      -54.1697476768       -9.2371755018  MEMB      386             0.0000000000
     48104       386  POPE      C310           39.1054839448      -53.0569319022       -7.3323576617  MEMB      386             0.0000000000
     48105       386  POPE      H10X           38.3617608194      -52.3180422525       -7.7001058029  MEMB      386             0.0000000000
     48106       386  POPE      H10Y           39.7272609593      -52.5416807799       -6.5693165047  MEMB      386             0.0000000000
     48107       386  POPE      C311           38.2772945924      -54.2890192353       -6.7864917682  MEMB      386             0.0000000000
     48108       386  POPE      H11X           38.9270311919      -55.1812647117       -6.6597582595  MEMB      386             0.0000000000
     48109       386  POPE      H11Y           37.5161458213      -54.4948232586       -7.5691911538  MEMB      386             0.0000000000
     48110       386  POPE      C312           37.4560892832      -53.9162131099       -5.5326210036  MEMB      386             0.0000000000
     48111       386  POPE      H12X           36.7880374373      -54.7931649000       -5.3948431303  MEMB      386             0.0000000000
     48112       386  POPE      H12Y           36.9601984571      -52.9431458458       -5.7364672240  MEMB      386             0.0000000000
     48113       386  POPE      C313           38.3164536340      -53.7368849170       -4.2436164794  MEMB      386             0.0000000000
     48114       386  POPE      H13X           39.0748589694      -52.9815965768       -4.5414126072  MEMB      386             0.0000000000
     48115       386  POPE      H13Y           38.7537337698      -54.7383093488       -4.0429783340  MEMB      386             0.0000000000
     48116       386  POPE      C314           37.5316305701      -53.0744499883       -3.0456362872  MEMB      386             0.0000000000
     48117       386  POPE      H14X           36.7117570699      -53.7431619827       -2.7065892075  MEMB      386             0.0000000000
     48118       386  POPE      H14Y           37.2385605987      -52.0698154089       -3.4186514817  MEMB      386             0.0000000000
     48119       386  POPE      C315           38.3639437125      -53.0032843016       -1.7431475737  MEMB      386             0.0000000000
     48120       386  POPE      H15X           39.3100508287      -52.4588647571       -1.9500517619  MEMB      386             0.0000000000
     48121       386  POPE      H15Y           38.5793981709      -54.0516917309       -1.4452510014  MEMB      386             0.0000000000
     48122       386  POPE      C316           37.6637150549      -52.4488286125       -0.5149449537  MEMB      386             0.0000000000
     48123       386  POPE      H16X           38.4662110041      -52.2924536898        0.2372977696  MEMB      386             0.0000000000
     48124       386  POPE      H16Y           36.9298823374      -53.2294051290       -0.2208165541  MEMB      386             0.0000000000
     48125       386  POPE      H16Z           37.0818959313      -51.5734396203       -0.8748081599  MEMB      386             0.0000000000
     48126       387  QMPE      N              56.4746457130      -37.6518730719      -19.1958325221  MEMB      387             0.0000000000
     48127       387  QMPE      HN1            56.3100990378      -38.6535058586      -19.4222309608  MEMB      387             0.0000000000
     48128       387  QMPE      HN2            57.4867456004      -37.4141932836      -19.2234390646  MEMB      387             0.0000000000
     48129       387  QMPE      HN3            56.1536909338      -37.4957076048      -18.2190007056  MEMB      387             0.0000000000
     48130       387  QMPE      C12            55.7286351338      -36.9010276625      -20.2610555432  MEMB      387             0.0000000000
     48131       387  QMPE      H12A           54.7936049197      -37.4543046940      -20.4932709670  MEMB      387             0.0000000000
     48132       387  QMPE      H12B           56.4646361650      -36.7718422919      -21.0832081038  MEMB      387             0.0000000000
     48133       387  QMPE      C11            55.2993535324      -35.4798831258      -19.8851605866  MEMB      387             0.0000000000
     48134       387  QMPE      H11A           54.3908191709      -35.6933365033      -19.2823970157  MEMB      387             0.0000000000
     48135       387  QMPE      H11B           55.0278055514      -34.8837314965      -20.7824821288  MEMB      387             0.0000000000
     48136       387  QMPE      P              55.8620046013      -33.3665333020      -18.5690959297  MEMB      387             0.0000000000
     48137       387  QMPE      O13            54.3995775758      -33.4314868851      -18.2494740963  MEMB      387             0.0000000000
     48138       387  QMPE      O14            56.3301701567      -32.3804204678      -19.5868104894  MEMB      387             0.0000000000
     48139       387  QMPE      O11            56.7561750212      -33.0386713798      -17.2784716122  MEMB      387             0.0000000000
     48140       387  QMPE      O12            56.2929782105      -34.8118840823      -18.9740992166  MEMB      387             0.0000000000
     48141       387  QMPE      C1             56.5497144684      -33.7341243597      -16.0570115597  MEMB      387             0.0000000000
     48142       387  QMPE      HA             57.5321700408      -33.7455502362      -15.5383867532  MEMB      387             0.0000000000
     48143       387  QMPE      HB             56.1954163586      -34.7871151770      -16.0590459572  MEMB      387             0.0000000000
     48144       387  QMPE      C2             55.5555491399      -32.9738629356      -15.1830224797  MEMB      387             0.0000000000
     48145       387  QMPE      HS             54.5075861723      -33.1194593946      -15.5219859811  MEMB      387             0.0000000000
     48146       387  QMPE      O21            55.9107063591      -31.5873884827      -15.1257930710  MEMB      387             0.0000000000
     48147       387  QMPE      C21            54.8746038553      -30.6884496675      -15.0252903710  MEMB      387             0.0000000000
     48148       387  QMPE      O22            53.7189475412      -31.0443118270      -15.0585191075  MEMB      387             0.0000000000
     48149       387  QMPE      C22            55.4289753000      -29.3493589223      -14.7163342990  MEMB      387             0.0000000000
     48150       387  QMPE      H2R            55.4444938531      -28.6295672466      -15.5624902135  MEMB      387             0.0000000000
     48151       387  QMPE      H2S            56.4883021405      -29.4509800855      -14.3972402280  MEMB      387             0.0000000000
     48152       387  QMPE      C3             55.5249432776      -33.5732134611      -13.7391071190  MEMB      387             0.0000000000
     48153       387  QMPE      HX             56.6077307062      -33.4642219230      -13.5154708617  MEMB      387             0.0000000000
     48154       387  QMPE      HY             55.3166792505      -34.6644218448      -13.7536438901  MEMB      387             0.0000000000
     48155       387  QMPE      O31            54.8750605870      -32.7566306157      -12.7516839714  MEMB      387             0.0000000000
     48156       387  QMPE      C31            53.6365839789      -33.2848633703      -12.4123453244  MEMB      387             0.0000000000
     48157       387  QMPE      O32            53.2753771073      -34.4168201723      -12.6372223677  MEMB      387             0.0000000000
     48158       387  QMPE      C32            52.8070006455      -32.3243598814      -11.6014314099  MEMB      387             0.0000000000
     48159       387  QMPE      H2X            53.3151051945      -31.3538499787      -11.4163334390  MEMB      387             0.0000000000
     48160       387  QMPE      H2Y            51.8668491714      -32.1161831125      -12.1555962934  MEMB      387             0.0000000000
     48161       387  QMPE      C23            54.7010220547      -28.6924223026      -13.5138200460  MEMB      387             0.0000000000
     48162       387  QMPE      H3R            53.6202560911      -28.8020078117      -13.7467511302  MEMB      387             0.0000000000
     48163       387  QMPE      H3S            54.7894710115      -27.5917365168      -13.6362473116  MEMB      387             0.0000000000
     48164       387  QMPE      C24            55.1588890938      -29.3354659319      -12.1837469182  MEMB      387             0.0000000000
     48165       387  QMPE      H4R            56.2296875150      -29.0436733975      -12.1330635948  MEMB      387             0.0000000000
     48166       387  QMPE      H4S            55.1183231384      -30.4431015627      -12.2600280075  MEMB      387             0.0000000000
     48167       387  QMPE      C25            54.3950371923      -28.8315448857      -10.9949823732  MEMB      387             0.0000000000
     48168       387  QMPE      H5R            53.3543748891      -29.1786277675      -11.1706994122  MEMB      387             0.0000000000
     48169       387  QMPE      H5S            54.5086408162      -27.7264583633      -11.0090836731  MEMB      387             0.0000000000
     48170       387  QMPE      C26            54.9590503124      -29.4843055560       -9.7483854846  MEMB      387             0.0000000000
     48171       387  QMPE      H6R            55.1562373587      -30.5603081627       -9.9424398263  MEMB      387             0.0000000000
     48172       387  QMPE      H6S            54.2284497057      -29.5610363905       -8.9149258612  MEMB      387             0.0000000000
     48173       387  QMPE      C27            56.3405968168      -28.8836479023       -9.1692999109  MEMB      387             0.0000000000
     48174       387  QMPE      H7R            56.2381826739      -27.8597916340       -8.7503119106  MEMB      387             0.0000000000
     48175       387  QMPE      H7S            57.1502476607      -28.7598657840       -9.9199420174  MEMB      387             0.0000000000
     48176       387  QMPE      C28            56.9754852012      -29.7343386570       -8.0437023026  MEMB      387             0.0000000000
     48177       387  QMPE      H8R            57.2322442731      -30.7279259161       -8.4693548466  MEMB      387             0.0000000000
     48178       387  QMPE      H8S            56.2676730466      -29.8328462664       -7.1930446921  MEMB      387             0.0000000000
     48179       387  QMPE      C29            58.3270475248      -29.1360224671       -7.5826888900  MEMB      387             0.0000000000
     48180       387  QMPE      H9R            58.8844501698      -28.4407013598       -8.2461280139  MEMB      387             0.0000000000
     48181       387  QMPE      C217           59.1663941079      -30.2110916846       -6.9210200383  MEMB      387             0.0000000000
     48182       387  QMPE      H17R           58.6281811220      -31.1390733458       -6.7724743335  MEMB      387             0.0000000000
     48183       387  QMPE      H17S           60.1822346585      -30.1623735917       -7.2932873941  MEMB      387             0.0000000000
     48184       387  QMPE      C210           58.7237997637      -29.0196841998       -6.1208089349  MEMB      387             0.0000000000
     48185       387  QMPE      H10R           59.5735586824      -28.3106503981       -6.0233333506  MEMB      387             0.0000000000
     48186       387  QMPE      C211           57.8151804062      -29.3844902128       -4.9190794937  MEMB      387             0.0000000000
     48187       387  QMPE      H11R           57.3311060731      -30.3498316448       -5.1800566774  MEMB      387             0.0000000000
     48188       387  QMPE      H11S           58.5713620350      -29.6787758209       -4.1601947407  MEMB      387             0.0000000000
     48189       387  QMPE      C212           56.9009689853      -28.2577931118       -4.6416680605  MEMB      387             0.0000000000
     48190       387  QMPE      H12R           56.2644136381      -28.0064220376       -5.5168428499  MEMB      387             0.0000000000
     48191       387  QMPE      H12S           57.3258800648      -27.3468101063       -4.1685081687  MEMB      387             0.0000000000
     48192       387  QMPE      C213           56.0119449970      -28.7202157603       -3.4867675415  MEMB      387             0.0000000000
     48193       387  QMPE      H13R           56.6478449706      -29.1904986243       -2.7065204983  MEMB      387             0.0000000000
     48194       387  QMPE      H13S           55.2585454388      -29.4245451599       -3.8998418763  MEMB      387             0.0000000000
     48195       387  QMPE      C214           55.3173763525      -27.4249300842       -2.9635462126  MEMB      387             0.0000000000
     48196       387  QMPE      H14R           54.8357839779      -26.8714606161       -3.7978492687  MEMB      387             0.0000000000
     48197       387  QMPE      H14S           56.1839283469      -26.8212326441       -2.6186440619  MEMB      387             0.0000000000
     48198       387  QMPE      C215           54.2334630416      -27.5336959997       -1.8874977152  MEMB      387             0.0000000000
     48199       387  QMPE      H15R           54.0148135338      -26.4913389213       -1.5712608544  MEMB      387             0.0000000000
     48200       387  QMPE      H15S           54.6416933442      -28.1354103433       -1.0474919841  MEMB      387             0.0000000000
     48201       387  QMPE      C216           53.0405378610      -28.3422490646       -2.4073291257  MEMB      387             0.0000000000
     48202       387  QMPE      H16R           52.0787232214      -28.0044332851       -1.9656114128  MEMB      387             0.0000000000
     48203       387  QMPE      H16S           53.1702524156      -29.4094000547       -2.1268230489  MEMB      387             0.0000000000
     48204       387  QMPE      H16T           52.9809677797      -28.1956154563       -3.5069963554  MEMB      387             0.0000000000
     48205       387  QMPE      C33            52.3357318490      -32.9696294020      -10.2556370831  MEMB      387             0.0000000000
     48206       387  QMPE      H3X            51.9432376318      -33.9822738937      -10.4897750219  MEMB      387             0.0000000000
     48207       387  QMPE      H3Y            51.6765148431      -32.3301542708       -9.6304768706  MEMB      387             0.0000000000
     48208       387  QMPE      C34            53.4761058570      -33.2480884508       -9.2654245986  MEMB      387             0.0000000000
     48209       387  QMPE      H4X            53.7671356203      -32.2426644017       -8.8929401167  MEMB      387             0.0000000000
     48210       387  QMPE      H4Y            54.3377771455      -33.6820698362       -9.8163373845  MEMB      387             0.0000000000
     48211       387  QMPE      C35            53.1147356408      -34.2643060883       -8.1829535554  MEMB      387             0.0000000000
     48212       387  QMPE      H5X            53.3179934853      -35.2608417771       -8.6300829087  MEMB      387             0.0000000000
     48213       387  QMPE      H5Y            52.0332528117      -34.2771044181       -7.9288831522  MEMB      387             0.0000000000
     48214       387  QMPE      C36            53.9840348678      -34.0261542621       -6.9371504490  MEMB      387             0.0000000000
     48215       387  QMPE      H6X            53.7251304529      -33.0860301701       -6.4047438075  MEMB      387             0.0000000000
     48216       387  QMPE      H6Y            55.0579902170      -33.8786869958       -7.1804488416  MEMB      387             0.0000000000
     48217       387  QMPE      C37            53.8163213099      -35.2784475089       -6.0119469024  MEMB      387             0.0000000000
     48218       387  QMPE      H7X            52.8594212062      -35.1816671148       -5.4558020759  MEMB      387             0.0000000000
     48219       387  QMPE      H7Y            53.7558457175      -36.2355600591       -6.5728382330  MEMB      387             0.0000000000
     48220       387  QMPE      C38            54.9054831303      -35.4528811932       -4.9095278641  MEMB      387             0.0000000000
     48221       387  QMPE      H8X            54.6118003508      -36.1585233447       -4.1032150152  MEMB      387             0.0000000000
     48222       387  QMPE      H8Y            55.7185863956      -35.9986245167       -5.4342643498  MEMB      387             0.0000000000
     48223       387  QMPE      C39            55.3744396082      -34.2829463627       -4.1953367337  MEMB      387             0.0000000000
     48224       387  QMPE      H9X            54.4562526030      -33.9529803687       -3.6639461893  MEMB      387             0.0000000000
     48225       387  QMPE      H9Y            55.7280690320      -33.4365268951       -4.8221077015  MEMB      387             0.0000000000
     48226       387  QMPE      C310           56.4729587243      -34.6099366815       -3.1509125746  MEMB      387             0.0000000000
     48227       387  QMPE      H10X           56.1923108811      -35.4226849902       -2.4473519601  MEMB      387             0.0000000000
     48228       387  QMPE      H10Y           56.5106787802      -33.6438389995       -2.6035969219  MEMB      387             0.0000000000
     48229       387  QMPE      C311           57.8120093604      -34.9931758734       -3.7533769905  MEMB      387             0.0000000000
     48230       387  QMPE      H11X           58.3676647963      -34.1505167283       -4.2175897887  MEMB      387             0.0000000000
     48231       387  QMPE      H11Y           57.6783995070      -35.7325802959       -4.5717595060  MEMB      387             0.0000000000
     48232       387  QMPE      C312           58.7753532869      -35.6969871310       -2.7467290799  MEMB      387             0.0000000000
     48233       387  QMPE      H12X           59.7151649516      -35.9097271956       -3.2997365632  MEMB      387             0.0000000000
     48234       387  QMPE      H12Y           58.3650250655      -36.7082051523       -2.5384274716  MEMB      387             0.0000000000
     48235       387  QMPE      C313           59.0899582223      -34.9939531878       -1.4266394137  MEMB      387             0.0000000000
     48236       387  QMPE      H13X           58.1249765525      -34.9700715491       -0.8765828414  MEMB      387             0.0000000000
     48237       387  QMPE      H13Y           59.7200141373      -35.6220764185       -0.7611977146  MEMB      387             0.0000000000
     48238       387  QMPE      C314           59.6378580641      -33.6272537922       -1.5676111231  MEMB      387             0.0000000000
     48239       387  QMPE      H14X           59.1149860119      -33.0228066265       -2.3393427814  MEMB      387             0.0000000000
     48240       387  QMPE      H14Y           60.6707431293      -33.7326275053       -1.9630419225  MEMB      387             0.0000000000
     48241       387  QMPE      C315           59.6976231633      -32.8249764947       -0.2495089612  MEMB      387             0.0000000000
     48242       387  QMPE      H15X           58.7235791114      -32.6448657380        0.2536012572  MEMB      387             0.0000000000
     48243       387  QMPE      H15Y           60.3888970991      -33.2795244806        0.4920076699  MEMB      387             0.0000000000
     48244       387  QMPE      H15Z           60.0177257252      -31.7978627560       -0.5268042667  MEMB      387             0.0000000000
     48245       388  PMPG      C13           -46.9606579000       46.2996858552      -18.4160862833  MEMB      388             0.0000000000
     48246       388  PMPG      H13A          -47.7860807398       46.2062884528      -19.1538362810  MEMB      388             0.0000000000
     48247       388  PMPG      H13B          -46.9115302009       45.4130891009      -17.7483633069  MEMB      388             0.0000000000
     48248       388  PMPG      OC3           -47.2574815795       47.4081587212      -17.5396287682  MEMB      388             0.0000000000
     48249       388  PMPG      HO3           -46.4930769739       47.9761918328      -17.4186996692  MEMB      388             0.0000000000
     48250       388  PMPG      C12           -45.5773851497       46.5153078500      -19.0649085996  MEMB      388             0.0000000000
     48251       388  PMPG      H12A          -45.3595262475       45.6160962231      -19.6867888042  MEMB      388             0.0000000000
     48252       388  PMPG      OC2           -44.5700898814       46.6083490115      -18.0565731025  MEMB      388             0.0000000000
     48253       388  PMPG      HO2           -43.7732612913       46.8765569847      -18.5643580187  MEMB      388             0.0000000000
     48254       388  PMPG      C11           -45.6670505591       47.8126283742      -19.9812310471  MEMB      388             0.0000000000
     48255       388  PMPG      H11A          -46.2786034940       48.6075743853      -19.5033347828  MEMB      388             0.0000000000
     48256       388  PMPG      H11B          -46.2434498999       47.5108853354      -20.8818063178  MEMB      388             0.0000000000
     48257       388  PMPG      P             -43.4305384571       49.0838523695      -19.3914649844  MEMB      388             0.0000000000
     48258       388  PMPG      O13           -43.2999404998       50.4404765022      -19.9484329942  MEMB      388             0.0000000000
     48259       388  PMPG      O14           -42.1941925567       48.2841703663      -19.2828249881  MEMB      388             0.0000000000
     48260       388  PMPG      O11           -44.1843726591       49.1976371749      -18.0346610571  MEMB      388             0.0000000000
     48261       388  PMPG      O12           -44.4637127624       48.3015344092      -20.2841881433  MEMB      388             0.0000000000
     48262       388  PMPG      C1            -43.2917931033       49.6306873852      -16.9535937735  MEMB      388             0.0000000000
     48263       388  PMPG      HA            -42.6191686401       50.4614016272      -17.2565980602  MEMB      388             0.0000000000
     48264       388  PMPG      HB            -42.7082940382       48.8517810023      -16.4177256057  MEMB      388             0.0000000000
     48265       388  PMPG      C2            -44.2580087419       50.2263032522      -15.9037278201  MEMB      388             0.0000000000
     48266       388  PMPG      HS            -43.6467598045       50.6032710427      -15.0560301720  MEMB      388             0.0000000000
     48267       388  PMPG      O21           -45.1312360898       49.2755023175      -15.3402020805  MEMB      388             0.0000000000
     48268       388  PMPG      C21           -44.6127632371       48.3123018056      -14.5341973336  MEMB      388             0.0000000000
     48269       388  PMPG      O22           -43.4511278800       48.1007153812      -14.3112317118  MEMB      388             0.0000000000
     48270       388  PMPG      C22           -45.7569244675       47.5196043969      -13.9671593396  MEMB      388             0.0000000000
     48271       388  PMPG      H2R           -46.1531770311       46.9875432458      -14.8583471905  MEMB      388             0.0000000000
     48272       388  PMPG      H2S           -46.4806569371       48.2059498432      -13.4778106412  MEMB      388             0.0000000000
     48273       388  PMPG      C3            -45.1819685674       51.3187161945      -16.4784039138  MEMB      388             0.0000000000
     48274       388  PMPG      HX            -45.6856637444       50.8683551626      -17.3603265111  MEMB      388             0.0000000000
     48275       388  PMPG      HY            -44.6468090422       52.2318751125      -16.8161404265  MEMB      388             0.0000000000
     48276       388  PMPG      O31           -46.2535927619       51.7190170128      -15.4998020479  MEMB      388             0.0000000000
     48277       388  PMPG      C31           -46.0343438853       52.7028370103      -14.7505265411  MEMB      388             0.0000000000
     48278       388  PMPG      O32           -44.9688327559       53.2801406758      -14.5841517527  MEMB      388             0.0000000000
     48279       388  PMPG      C32           -47.3483459861       53.0794709200      -14.0440150700  MEMB      388             0.0000000000
     48280       388  PMPG      H2X           -48.1155054347       53.0578199298      -14.8473324213  MEMB      388             0.0000000000
     48281       388  PMPG      H2Y           -47.3731357124       54.1384984715      -13.7091014967  MEMB      388             0.0000000000
     48282       388  PMPG      C23           -45.3191501601       46.5259927793      -12.8533552909  MEMB      388             0.0000000000
     48283       388  PMPG      H3R           -44.8688734363       47.1395631457      -12.0439707558  MEMB      388             0.0000000000
     48284       388  PMPG      H3S           -44.5301565316       45.8164179673      -13.1824651233  MEMB      388             0.0000000000
     48285       388  PMPG      C24           -46.5144921150       45.7904186433      -12.2314726130  MEMB      388             0.0000000000
     48286       388  PMPG      H4R           -47.0321025742       45.1127013541      -12.9435816244  MEMB      388             0.0000000000
     48287       388  PMPG      H4S           -47.2412524154       46.5894979509      -11.9714477597  MEMB      388             0.0000000000
     48288       388  PMPG      C25           -46.2416148908       45.0995210095      -10.8655637786  MEMB      388             0.0000000000
     48289       388  PMPG      H5R           -45.8800348009       45.8007494947      -10.0833498547  MEMB      388             0.0000000000
     48290       388  PMPG      H5S           -45.5288996446       44.2762195505      -11.0858663822  MEMB      388             0.0000000000
     48291       388  PMPG      C26           -47.3860488845       44.1696186449      -10.3635038877  MEMB      388             0.0000000000
     48292       388  PMPG      H6R           -47.0557306892       43.8028778002       -9.3681582058  MEMB      388             0.0000000000
     48293       388  PMPG      H6S           -47.4880174105       43.2987933137      -11.0458429505  MEMB      388             0.0000000000
     48294       388  PMPG      C27           -48.7025630317       44.8550899076      -10.2647227571  MEMB      388             0.0000000000
     48295       388  PMPG      H7R           -49.4091084602       44.0725646512       -9.9143392527  MEMB      388             0.0000000000
     48296       388  PMPG      H7S           -49.0697031749       45.2316025125      -11.2433789501  MEMB      388             0.0000000000
     48297       388  PMPG      C28           -48.6671548135       46.0296405294       -9.2758599502  MEMB      388             0.0000000000
     48298       388  PMPG      H8R           -48.2218772146       46.8655876972       -9.8565852600  MEMB      388             0.0000000000
     48299       388  PMPG      H8S           -47.9912896210       45.6896378328       -8.4622722678  MEMB      388             0.0000000000
     48300       388  PMPG      C29           -50.0365504389       46.3498582394       -8.7305787690  MEMB      388             0.0000000000
     48301       388  PMPG      H9R           -50.9887057955       46.1561995634       -9.2692961333  MEMB      388             0.0000000000
     48302       388  PMPG      C217          -50.2027223109       45.8399791138       -7.2377211014  MEMB      388             0.0000000000
     48303       388  PMPG      H17R          -51.2417351261       45.5622165256       -7.1104836675  MEMB      388             0.0000000000
     48304       388  PMPG      H17S          -49.3540144490       45.4945604510       -6.6604256709  MEMB      388             0.0000000000
     48305       388  PMPG      C210          -50.1286784814       47.3496623378       -7.6196101017  MEMB      388             0.0000000000
     48306       388  PMPG      H10R          -51.1802740175       47.6801139418       -7.4807944180  MEMB      388             0.0000000000
     48307       388  PMPG      C211          -48.8437018311       48.1460556611       -7.2923680080  MEMB      388             0.0000000000
     48308       388  PMPG      H11R          -47.8957878214       47.6014291738       -7.4902607754  MEMB      388             0.0000000000
     48309       388  PMPG      H11S          -48.7730861470       48.9058556783       -8.0998561848  MEMB      388             0.0000000000
     48310       388  PMPG      C212          -48.9298141655       48.6069466523       -5.9053628019  MEMB      388             0.0000000000
     48311       388  PMPG      H12R          -48.6825732875       47.7750792907       -5.2116852625  MEMB      388             0.0000000000
     48312       388  PMPG      H12S          -49.9877249446       48.9079001331       -5.7486061880  MEMB      388             0.0000000000
     48313       388  PMPG      C213          -48.0651436357       49.8062123789       -5.5203465173  MEMB      388             0.0000000000
     48314       388  PMPG      H13R          -48.3800838212       50.6163810631       -6.2122720880  MEMB      388             0.0000000000
     48315       388  PMPG      H13S          -46.9822770410       49.6877679231       -5.7387312241  MEMB      388             0.0000000000
     48316       388  PMPG      C214          -48.0548613593       50.2391371321       -4.0745558510  MEMB      388             0.0000000000
     48317       388  PMPG      H14R          -47.2241843746       50.9063261645       -3.7596661467  MEMB      388             0.0000000000
     48318       388  PMPG      H14S          -47.8170785280       49.3695117462       -3.4252999393  MEMB      388             0.0000000000
     48319       388  PMPG      C215          -49.2336198817       51.0157060733       -3.6270505868  MEMB      388             0.0000000000
     48320       388  PMPG      H15R          -50.0445125290       50.2692208823       -3.4872860505  MEMB      388             0.0000000000
     48321       388  PMPG      H15S          -49.6348554263       51.6743691775       -4.4267333040  MEMB      388             0.0000000000
     48322       388  PMPG      C216          -49.0370260458       51.8019863527       -2.3500189815  MEMB      388             0.0000000000
     48323       388  PMPG      H16R          -50.0074313218       52.1938173937       -1.9770518521  MEMB      388             0.0000000000
     48324       388  PMPG      H16S          -48.3977688699       52.7038472225       -2.4610063351  MEMB      388             0.0000000000
     48325       388  PMPG      H16T          -48.5558006387       51.0843094315       -1.6516747351  MEMB      388             0.0000000000
     48326       388  PMPG      C33           -47.5090026811       52.1461070497      -12.8926551553  MEMB      388             0.0000000000
     48327       388  PMPG      H3X           -47.2167357866       51.1285956469      -13.2296594510  MEMB      388             0.0000000000
     48328       388  PMPG      H3Y           -48.5599429022       52.0756816699      -12.5392632042  MEMB      388             0.0000000000
     48329       388  PMPG      C34           -46.8004285370       52.6203044732      -11.6710635941  MEMB      388             0.0000000000
     48330       388  PMPG      H4X           -47.3406523681       53.4863003707      -11.2322817186  MEMB      388             0.0000000000
     48331       388  PMPG      H4Y           -45.7661280821       52.8915746987      -11.9726528577  MEMB      388             0.0000000000
     48332       388  PMPG      C35           -46.8029535701       51.5459098726      -10.5924013386  MEMB      388             0.0000000000
     48333       388  PMPG      H5X           -47.5474520388       50.7770384184      -10.8905279786  MEMB      388             0.0000000000
     48334       388  PMPG      H5Y           -47.0568008506       52.0713443695       -9.6469904688  MEMB      388             0.0000000000
     48335       388  PMPG      C36           -45.4388552781       50.9036196559      -10.4341043021  MEMB      388             0.0000000000
     48336       388  PMPG      H6X           -44.6981490834       51.7235843721      -10.3186343072  MEMB      388             0.0000000000
     48337       388  PMPG      H6Y           -45.1861692609       50.3668048897      -11.3734131390  MEMB      388             0.0000000000
     48338       388  PMPG      C37           -45.3901360838       49.8516308749       -9.3040010098  MEMB      388             0.0000000000
     48339       388  PMPG      H7X           -46.1266488008       49.0655735987       -9.5760013935  MEMB      388             0.0000000000
     48340       388  PMPG      H7Y           -45.6288527991       50.2483032044       -8.2940573345  MEMB      388             0.0000000000
     48341       388  PMPG      C38           -43.9798917700       49.1357863084       -9.2723145149  MEMB      388             0.0000000000
     48342       388  PMPG      H8X           -43.3326303664       50.0347744928       -9.1874977024  MEMB      388             0.0000000000
     48343       388  PMPG      H8Y           -43.8289129263       48.6440333513      -10.2570502997  MEMB      388             0.0000000000
     48344       388  PMPG      C39           -43.8118382946       47.9544137865       -8.2235470639  MEMB      388             0.0000000000
     48345       388  PMPG      H9X           -42.7910385541       47.5213798277       -8.2926157178  MEMB      388             0.0000000000
     48346       388  PMPG      H9Y           -44.6574723640       47.2891412238       -8.5003799458  MEMB      388             0.0000000000
     48347       388  PMPG      C310          -44.0442168877       48.3710768493       -6.6956346026  MEMB      388             0.0000000000
     48348       388  PMPG      H10X          -45.0074770046       48.9093860149       -6.5665076846  MEMB      388             0.0000000000
     48349       388  PMPG      H10Y          -43.1831290893       49.0376791071       -6.4754300871  MEMB      388             0.0000000000
     48350       388  PMPG      C311          -43.8889879170       47.2289323608       -5.7593132140  MEMB      388             0.0000000000
     48351       388  PMPG      H11X          -43.9265483920       47.6749373189       -4.7424604184  MEMB      388             0.0000000000
     48352       388  PMPG      H11Y          -42.8386725473       46.8806846661       -5.8587244164  MEMB      388             0.0000000000
     48353       388  PMPG      C312          -44.9630020273       46.1138347068       -5.8353419740  MEMB      388             0.0000000000
     48354       388  PMPG      H12X          -44.7558149070       45.5818794199       -6.7884514424  MEMB      388             0.0000000000
     48355       388  PMPG      H12Y          -46.0026326155       46.4976650311       -5.9138497903  MEMB      388             0.0000000000
     48356       388  PMPG      C313          -44.7746526811       45.0431433559       -4.8314887867  MEMB      388             0.0000000000
     48357       388  PMPG      H13X          -43.8132669103       44.5050981539       -4.9748956730  MEMB      388             0.0000000000
     48358       388  PMPG      H13Y          -45.5708000182       44.2795735630       -4.9635152705  MEMB      388             0.0000000000
     48359       388  PMPG      C314          -44.9780038430       45.4213003642       -3.3353075179  MEMB      388             0.0000000000
     48360       388  PMPG      H14X          -46.0612931083       45.6343624958       -3.2111708075  MEMB      388             0.0000000000
     48361       388  PMPG      H14Y          -44.4134112598       46.3576983569       -3.1385471223  MEMB      388             0.0000000000
     48362       388  PMPG      C315          -44.4746937528       44.2235432800       -2.5025415021  MEMB      388             0.0000000000
     48363       388  PMPG      H15X          -43.4070871152       44.0933673043       -2.7810938990  MEMB      388             0.0000000000
     48364       388  PMPG      H15Y          -45.1284383890       43.3612100866       -2.7541766939  MEMB      388             0.0000000000
     48365       388  PMPG      C316          -44.5282313699       44.5054115091       -1.0663297263  MEMB      388             0.0000000000
     48366       388  PMPG      H16X          -44.0424019802       45.4326169126       -0.6940655983  MEMB      388             0.0000000000
     48367       388  PMPG      H16Y          -44.0010241405       43.6991439562       -0.5128798524  MEMB      388             0.0000000000
     48368       388  PMPG      H16Z          -45.5764303923       44.5320558391       -0.6990565089  MEMB      388             0.0000000000
     48369       389  PMPG      C13           -48.1870051020      -43.1629039164      -19.4684686198  MEMB      389             0.0000000000
     48370       389  PMPG      H13A          -47.7439412600      -42.9877223910      -18.4648118689  MEMB      389             0.0000000000
     48371       389  PMPG      H13B          -47.6292777396      -44.0132817694      -19.9158148196  MEMB      389             0.0000000000
     48372       389  PMPG      OC3           -47.9481861896      -41.9474773658      -20.1819570328  MEMB      389             0.0000000000
     48373       389  PMPG      HO3           -48.6152721146      -41.3149322808      -19.9054014484  MEMB      389             0.0000000000
     48374       389  PMPG      C12           -49.7067851929      -43.3873049085      -19.4592400428  MEMB      389             0.0000000000
     48375       389  PMPG      H12A          -49.9032537364      -44.2986110869      -18.8479298101  MEMB      389             0.0000000000
     48376       389  PMPG      OC2           -50.1753794284      -43.6366762107      -20.7852393965  MEMB      389             0.0000000000
     48377       389  PMPG      HO2           -51.1518655675      -43.6277990989      -20.6798218601  MEMB      389             0.0000000000
     48378       389  PMPG      C11           -50.6597332383      -42.2229299155      -18.8175926657  MEMB      389             0.0000000000
     48379       389  PMPG      H11A          -50.2531093763      -41.2587644005      -19.1909061560  MEMB      389             0.0000000000
     48380       389  PMPG      H11B          -50.4535652600      -42.1459332963      -17.7286081453  MEMB      389             0.0000000000
     48381       389  PMPG      P             -53.0604278836      -41.6831032081      -18.2742067461  MEMB      389             0.0000000000
     48382       389  PMPG      O13           -54.4662337008      -41.8250570728      -18.7759353818  MEMB      389             0.0000000000
     48383       389  PMPG      O14           -52.5817695926      -40.3099485078      -17.9757543798  MEMB      389             0.0000000000
     48384       389  PMPG      O11           -52.9602225586      -42.6691752906      -17.0260320123  MEMB      389             0.0000000000
     48385       389  PMPG      O12           -52.0541041177      -42.4032336041      -19.2355737180  MEMB      389             0.0000000000
     48386       389  PMPG      C1            -53.4384744410      -44.0094708527      -17.2182983825  MEMB      389             0.0000000000
     48387       389  PMPG      HA            -52.6835602798      -44.4640687441      -17.8948826388  MEMB      389             0.0000000000
     48388       389  PMPG      HB            -54.4177087242      -44.0488865024      -17.7416219165  MEMB      389             0.0000000000
     48389       389  PMPG      C2            -53.4932674226      -44.7951452290      -15.9071730315  MEMB      389             0.0000000000
     48390       389  PMPG      HS            -54.4050623389      -45.4243019410      -15.9915114824  MEMB      389             0.0000000000
     48391       389  PMPG      O21           -53.4870780132      -43.9943245705      -14.6982434931  MEMB      389             0.0000000000
     48392       389  PMPG      C21           -54.8019018228      -43.5170404619      -14.3954512731  MEMB      389             0.0000000000
     48393       389  PMPG      O22           -55.7496227031      -43.5074157243      -15.1878252216  MEMB      389             0.0000000000
     48394       389  PMPG      C22           -54.7562842812      -42.8399482037      -13.0065531390  MEMB      389             0.0000000000
     48395       389  PMPG      H2R           -55.3237891733      -41.9077770574      -13.2146793570  MEMB      389             0.0000000000
     48396       389  PMPG      H2S           -53.7707313916      -42.4871990505      -12.6342974986  MEMB      389             0.0000000000
     48397       389  PMPG      C3            -52.1624606380      -45.6570828177      -15.8202423263  MEMB      389             0.0000000000
     48398       389  PMPG      HX            -52.2211327900      -46.2031948698      -16.7859751969  MEMB      389             0.0000000000
     48399       389  PMPG      HY            -52.2845098085      -46.2553105755      -14.8920458782  MEMB      389             0.0000000000
     48400       389  PMPG      O31           -51.0380209824      -44.8117420650      -15.9092047502  MEMB      389             0.0000000000
     48401       389  PMPG      C31           -50.3477637716      -44.4514022867      -14.7703786897  MEMB      389             0.0000000000
     48402       389  PMPG      O32           -50.4257228283      -45.0846152363      -13.7158910433  MEMB      389             0.0000000000
     48403       389  PMPG      C32           -49.2452694102      -43.5465409865      -15.2303390996  MEMB      389             0.0000000000
     48404       389  PMPG      H2X           -49.4965310885      -42.6464209586      -15.8311489985  MEMB      389             0.0000000000
     48405       389  PMPG      H2Y           -48.4357462768      -44.1413819758      -15.7048466432  MEMB      389             0.0000000000
     48406       389  PMPG      C23           -55.4993555293      -43.7781692662      -12.0323241700  MEMB      389             0.0000000000
     48407       389  PMPG      H3R           -56.3720124203      -44.2549087033      -12.5278143028  MEMB      389             0.0000000000
     48408       389  PMPG      H3S           -55.8759437292      -43.0742466207      -11.2596698797  MEMB      389             0.0000000000
     48409       389  PMPG      C24           -54.7331454176      -44.9647066597      -11.5371922686  MEMB      389             0.0000000000
     48410       389  PMPG      H4R           -53.7498036410      -44.5101167963      -11.2908028145  MEMB      389             0.0000000000
     48411       389  PMPG      H4S           -54.4314180478      -45.6623298411      -12.3475030852  MEMB      389             0.0000000000
     48412       389  PMPG      C25           -55.3468777552      -45.6715516131      -10.2990139310  MEMB      389             0.0000000000
     48413       389  PMPG      H5R           -56.1542770351      -46.4118397758      -10.4844889006  MEMB      389             0.0000000000
     48414       389  PMPG      H5S           -55.8638798729      -44.8463457692       -9.7641637436  MEMB      389             0.0000000000
     48415       389  PMPG      C26           -54.2251652698      -46.3195035556       -9.4849244277  MEMB      389             0.0000000000
     48416       389  PMPG      H6R           -53.7105080705      -45.4871330417       -8.9589886657  MEMB      389             0.0000000000
     48417       389  PMPG      H6S           -53.5451176498      -46.7108138593      -10.2715203646  MEMB      389             0.0000000000
     48418       389  PMPG      C27           -54.6645887172      -47.4518840551       -8.5660848656  MEMB      389             0.0000000000
     48419       389  PMPG      H7R           -55.2523180582      -48.0942066519       -9.2562421305  MEMB      389             0.0000000000
     48420       389  PMPG      H7S           -55.3889607570      -47.0046293611       -7.8522433560  MEMB      389             0.0000000000
     48421       389  PMPG      C28           -53.6132065207      -48.2519894602       -7.7709446138  MEMB      389             0.0000000000
     48422       389  PMPG      H8R           -52.9511958498      -47.5560380456       -7.2126308200  MEMB      389             0.0000000000
     48423       389  PMPG      H8S           -53.0562136228      -48.7558004722       -8.5896351281  MEMB      389             0.0000000000
     48424       389  PMPG      C29           -54.1959367606      -49.2747471543       -6.7923603928  MEMB      389             0.0000000000
     48425       389  PMPG      H9R           -54.4353539799      -50.3248614573       -7.0648674365  MEMB      389             0.0000000000
     48426       389  PMPG      C217          -53.2207518597      -49.5408356182       -5.5999561831  MEMB      389             0.0000000000
     48427       389  PMPG      H17R          -53.2728675947      -50.4536705914       -5.0195198919  MEMB      389             0.0000000000
     48428       389  PMPG      H17S          -52.5133491409      -48.7356366393       -5.4446344647  MEMB      389             0.0000000000
     48429       389  PMPG      C210          -54.6555792154      -48.9488026789       -5.4054643856  MEMB      389             0.0000000000
     48430       389  PMPG      H10R          -55.3983612428      -49.7000320564       -5.0615885607  MEMB      389             0.0000000000
     48431       389  PMPG      C211          -54.8781779426      -47.5345338946       -4.9181682203  MEMB      389             0.0000000000
     48432       389  PMPG      H11R          -54.1255148494      -46.8462070102       -5.3586514360  MEMB      389             0.0000000000
     48433       389  PMPG      H11S          -55.8826651751      -47.2150187651       -5.2692190295  MEMB      389             0.0000000000
     48434       389  PMPG      C212          -54.8931130221      -47.3951751562       -3.3568912593  MEMB      389             0.0000000000
     48435       389  PMPG      H12R          -53.9760329015      -47.6944882064       -2.8058037637  MEMB      389             0.0000000000
     48436       389  PMPG      H12S          -55.7258456570      -48.0611206025       -3.0448114396  MEMB      389             0.0000000000
     48437       389  PMPG      C213          -55.3133036451      -46.0250146260       -2.8059163466  MEMB      389             0.0000000000
     48438       389  PMPG      H13R          -56.3199982152      -45.7634637796       -3.1964007433  MEMB      389             0.0000000000
     48439       389  PMPG      H13S          -54.5811367429      -45.2028910351       -2.9554702284  MEMB      389             0.0000000000
     48440       389  PMPG      C214          -55.5075164573      -45.9533697765       -1.2614591473  MEMB      389             0.0000000000
     48441       389  PMPG      H14R          -54.5087398130      -46.0208243622       -0.7795716663  MEMB      389             0.0000000000
     48442       389  PMPG      H14S          -56.0980699230      -46.8290634775       -0.9168919817  MEMB      389             0.0000000000
     48443       389  PMPG      C215          -56.2272792388      -44.6286477910       -0.7323596037  MEMB      389             0.0000000000
     48444       389  PMPG      H15R          -55.7899824894      -43.6248064390       -0.9204930788  MEMB      389             0.0000000000
     48445       389  PMPG      H15S          -56.2060621038      -44.6575759962        0.3780613446  MEMB      389             0.0000000000
     48446       389  PMPG      C216          -57.6943859794      -44.6236595337       -1.1896865153  MEMB      389             0.0000000000
     48447       389  PMPG      H16R          -58.2473104721      -43.7850074138       -0.7150726824  MEMB      389             0.0000000000
     48448       389  PMPG      H16S          -58.2606975353      -45.5794770748       -1.1946644752  MEMB      389             0.0000000000
     48449       389  PMPG      H16T          -57.5914621324      -44.3596351221       -2.2639389969  MEMB      389             0.0000000000
     48450       389  PMPG      C33           -48.5673287932      -42.8542899891      -13.8867090717  MEMB      389             0.0000000000
     48451       389  PMPG      H3X           -49.2918079019      -42.5984407558      -13.0842177506  MEMB      389             0.0000000000
     48452       389  PMPG      H3Y           -47.9872769237      -42.0037358552      -14.3043433201  MEMB      389             0.0000000000
     48453       389  PMPG      C34           -47.5447089807      -43.6401982389      -13.0906061858  MEMB      389             0.0000000000
     48454       389  PMPG      H4X           -46.7661774253      -43.9206153563      -13.8319399819  MEMB      389             0.0000000000
     48455       389  PMPG      H4Y           -47.9669424525      -44.5299511124      -12.5764272791  MEMB      389             0.0000000000
     48456       389  PMPG      C35           -46.8713332253      -42.7176855942      -11.9791361886  MEMB      389             0.0000000000
     48457       389  PMPG      H5X           -46.5795906276      -41.7852497265      -12.5080695842  MEMB      389             0.0000000000
     48458       389  PMPG      H5Y           -45.9494683555      -43.2252333826      -11.6229315533  MEMB      389             0.0000000000
     48459       389  PMPG      C36           -47.7447722747      -42.2903397433      -10.7990262391  MEMB      389             0.0000000000
     48460       389  PMPG      H6X           -48.5307767082      -41.5860629381      -11.1461747161  MEMB      389             0.0000000000
     48461       389  PMPG      H6Y           -47.1192976123      -41.7661605646      -10.0451435551  MEMB      389             0.0000000000
     48462       389  PMPG      C37           -48.6052917908      -43.3402351905      -10.1332305707  MEMB      389             0.0000000000
     48463       389  PMPG      H7X           -47.9460327245      -44.0322943771       -9.5668796837  MEMB      389             0.0000000000
     48464       389  PMPG      H7Y           -49.1562741383      -43.8488598508      -10.9530108619  MEMB      389             0.0000000000
     48465       389  PMPG      C38           -49.7424837033      -42.8488098593       -9.2116373323  MEMB      389             0.0000000000
     48466       389  PMPG      H8X           -50.4882399568      -42.3350484546       -9.8552347051  MEMB      389             0.0000000000
     48467       389  PMPG      H8Y           -49.4447690387      -41.9636854429       -8.6097724099  MEMB      389             0.0000000000
     48468       389  PMPG      C39           -50.5202152396      -43.9260826035       -8.5174362329  MEMB      389             0.0000000000
     48469       389  PMPG      H9X           -49.7450418675      -44.5397191642       -8.0106049500  MEMB      389             0.0000000000
     48470       389  PMPG      H9Y           -51.1652542970      -44.6249932409       -9.0916918858  MEMB      389             0.0000000000
     48471       389  PMPG      C310          -51.5564114678      -43.3254861395       -7.4957343501  MEMB      389             0.0000000000
     48472       389  PMPG      H10X          -52.4211266699      -42.8417599644       -7.9983252791  MEMB      389             0.0000000000
     48473       389  PMPG      H10Y          -50.9461108875      -42.5895086050       -6.9298797327  MEMB      389             0.0000000000
     48474       389  PMPG      C311          -51.9872197520      -44.4066058722       -6.5307810605  MEMB      389             0.0000000000
     48475       389  PMPG      H11X          -51.0858035822      -44.8051733652       -6.0180300307  MEMB      389             0.0000000000
     48476       389  PMPG      H11Y          -52.6932481592      -45.1492739222       -6.9600703336  MEMB      389             0.0000000000
     48477       389  PMPG      C312          -52.8014522506      -43.7380878106       -5.3713921860  MEMB      389             0.0000000000
     48478       389  PMPG      H12X          -53.0640166985      -44.6302153917       -4.7635358029  MEMB      389             0.0000000000
     48479       389  PMPG      H12Y          -53.7199356826      -43.2272997673       -5.7316766035  MEMB      389             0.0000000000
     48480       389  PMPG      C313          -52.1517061345      -42.6908970312       -4.3626147366  MEMB      389             0.0000000000
     48481       389  PMPG      H13X          -52.9198922995      -42.4709776181       -3.5907038901  MEMB      389             0.0000000000
     48482       389  PMPG      H13Y          -52.0731650835      -41.7337136098       -4.9211406942  MEMB      389             0.0000000000
     48483       389  PMPG      C314          -50.7690013582      -43.1124557739       -3.7198215061  MEMB      389             0.0000000000
     48484       389  PMPG      H14X          -50.5589542067      -42.2274272304       -3.0819146865  MEMB      389             0.0000000000
     48485       389  PMPG      H14Y          -50.0256134837      -43.2637296977       -4.5314944170  MEMB      389             0.0000000000
     48486       389  PMPG      C315          -50.8563252493      -44.4641625047       -2.9451122304  MEMB      389             0.0000000000
     48487       389  PMPG      H15X          -50.7125886929      -45.3015813242       -3.6609266467  MEMB      389             0.0000000000
     48488       389  PMPG      H15Y          -51.8571464378      -44.5753657241       -2.4757372301  MEMB      389             0.0000000000
     48489       389  PMPG      C316          -49.7735072503      -44.5495586150       -1.7852411399  MEMB      389             0.0000000000
     48490       389  PMPG      H16X          -49.8021759469      -43.6126812843       -1.1887843564  MEMB      389             0.0000000000
     48491       389  PMPG      H16Y          -48.7517030836      -44.7433669174       -2.1759779283  MEMB      389             0.0000000000
     48492       389  PMPG      H16Z          -50.1137096991      -45.3848991552       -1.1365584670  MEMB      389             0.0000000000
     48493       390  PMPG      C13            51.8380964852       40.4225873632      -21.3241884954  MEMB      390             0.0000000000
     48494       390  PMPG      H13A           52.2090754252       39.4459663259      -21.7022191146  MEMB      390             0.0000000000
     48495       390  PMPG      H13B           51.1607238186       40.8563559421      -22.0905646174  MEMB      390             0.0000000000
     48496       390  PMPG      OC3            52.8860371290       41.3693747185      -21.1474880940  MEMB      390             0.0000000000
     48497       390  PMPG      HO3            53.1658028006       41.6235596095      -22.0299399801  MEMB      390             0.0000000000
     48498       390  PMPG      C12            51.1399543673       40.0592608678      -20.0185017738  MEMB      390             0.0000000000
     48499       390  PMPG      H12A           50.3237834427       39.3419942262      -20.2678461680  MEMB      390             0.0000000000
     48500       390  PMPG      OC2            50.5440383720       41.2209611516      -19.4393839385  MEMB      390             0.0000000000
     48501       390  PMPG      HO2            50.2504430049       40.9025474343      -18.5578334266  MEMB      390             0.0000000000
     48502       390  PMPG      C11            51.9938974950       39.3754472168      -18.9481757286  MEMB      390             0.0000000000
     48503       390  PMPG      H11A           52.2489663766       38.3908467172      -19.3951911311  MEMB      390             0.0000000000
     48504       390  PMPG      H11B           51.4326576659       39.1756256562      -18.0104112730  MEMB      390             0.0000000000
     48505       390  PMPG      P              54.3064227283       39.3088898556      -17.7904522272  MEMB      390             0.0000000000
     48506       390  PMPG      O13            54.8227701636       38.0707560200      -18.4419261138  MEMB      390             0.0000000000
     48507       390  PMPG      O14            53.8335036684       39.1693276691      -16.3791327846  MEMB      390             0.0000000000
     48508       390  PMPG      O11            55.4688051069       40.4731291223      -17.7885301661  MEMB      390             0.0000000000
     48509       390  PMPG      O12            53.2055199399       40.0886500400      -18.7222207038  MEMB      390             0.0000000000
     48510       390  PMPG      C1             55.3716515739       41.5765586237      -16.9349272042  MEMB      390             0.0000000000
     48511       390  PMPG      HA             54.3576747275       41.7319211143      -16.5082719361  MEMB      390             0.0000000000
     48512       390  PMPG      HB             55.4572589476       42.4714023666      -17.5878031709  MEMB      390             0.0000000000
     48513       390  PMPG      C2             56.4823119372       41.5006354218      -15.8508806961  MEMB      390             0.0000000000
     48514       390  PMPG      HS             57.4275101329       41.7900225147      -16.3580071111  MEMB      390             0.0000000000
     48515       390  PMPG      O21            56.5357208523       40.1789043622      -15.2858816801  MEMB      390             0.0000000000
     48516       390  PMPG      C21            57.6834162939       39.7791718069      -14.6998852607  MEMB      390             0.0000000000
     48517       390  PMPG      O22            58.7166308784       40.3898749223      -14.7013348276  MEMB      390             0.0000000000
     48518       390  PMPG      C22            57.5256855508       38.4415719850      -13.9469586857  MEMB      390             0.0000000000
     48519       390  PMPG      H2R            58.4360761005       38.1790244931      -13.3668042766  MEMB      390             0.0000000000
     48520       390  PMPG      H2S            57.1901184142       37.6821571269      -14.6852029047  MEMB      390             0.0000000000
     48521       390  PMPG      C3             56.3686818813       42.4255554861      -14.6029324679  MEMB      390             0.0000000000
     48522       390  PMPG      HX             56.1824415687       43.4964035494      -14.8329760731  MEMB      390             0.0000000000
     48523       390  PMPG      HY             57.3007975976       42.4560584932      -13.9991518725  MEMB      390             0.0000000000
     48524       390  PMPG      O31            55.2846253913       41.9571532752      -13.8030358777  MEMB      390             0.0000000000
     48525       390  PMPG      C31            54.1184083509       42.5079930674      -13.9169405534  MEMB      390             0.0000000000
     48526       390  PMPG      O32            53.6587747256       43.2553382304      -14.7749973229  MEMB      390             0.0000000000
     48527       390  PMPG      C32            53.3074934147       41.7762572781      -12.8156142239  MEMB      390             0.0000000000
     48528       390  PMPG      H2X            53.5948106652       41.9082159492      -11.7505523405  MEMB      390             0.0000000000
     48529       390  PMPG      H2Y            53.3434078621       40.7275503389      -13.1806416212  MEMB      390             0.0000000000
     48530       390  PMPG      C23            56.4020025549       38.7695674386      -12.9949310504  MEMB      390             0.0000000000
     48531       390  PMPG      H3R            56.1240515202       37.7951337964      -12.5393613354  MEMB      390             0.0000000000
     48532       390  PMPG      H3S            55.5090234672       39.1263293824      -13.5513753344  MEMB      390             0.0000000000
     48533       390  PMPG      C24            56.8979484780       39.7131868713      -11.8233136919  MEMB      390             0.0000000000
     48534       390  PMPG      H4R            57.0641551616       40.7378037754      -12.2193645505  MEMB      390             0.0000000000
     48535       390  PMPG      H4S            57.7779772816       39.1950982747      -11.3857581314  MEMB      390             0.0000000000
     48536       390  PMPG      C25            55.9751460288       39.9154323427      -10.6324945146  MEMB      390             0.0000000000
     48537       390  PMPG      H5R            55.6911055931       38.8903319552      -10.3118522961  MEMB      390             0.0000000000
     48538       390  PMPG      H5S            54.9947627066       40.4259491888      -10.7444860288  MEMB      390             0.0000000000
     48539       390  PMPG      C26            56.8642675054       40.5018914070       -9.4137268302  MEMB      390             0.0000000000
     48540       390  PMPG      H6R            57.2146856213       41.5426405900       -9.5821582178  MEMB      390             0.0000000000
     48541       390  PMPG      H6S            57.7963332839       39.9093541073       -9.2934196407  MEMB      390             0.0000000000
     48542       390  PMPG      C27            56.0965989267       40.5331098645       -8.0348201509  MEMB      390             0.0000000000
     48543       390  PMPG      H7R            56.9093116456       40.5990344036       -7.2801850688  MEMB      390             0.0000000000
     48544       390  PMPG      H7S            55.5898725254       39.5460043267       -7.9785041167  MEMB      390             0.0000000000
     48545       390  PMPG      C28            55.3115297070       41.8457098580       -7.6950946807  MEMB      390             0.0000000000
     48546       390  PMPG      H8R            54.8690450377       41.6893560820       -6.6880785233  MEMB      390             0.0000000000
     48547       390  PMPG      H8S            54.4227964236       41.9647873997       -8.3510638782  MEMB      390             0.0000000000
     48548       390  PMPG      C29            56.1671029746       43.0832695488       -7.8644897653  MEMB      390             0.0000000000
     48549       390  PMPG      H9R            57.2439474583       43.0034502219       -7.6030413123  MEMB      390             0.0000000000
     48550       390  PMPG      C217           55.9222365293       43.9876685922       -9.0346144913  MEMB      390             0.0000000000
     48551       390  PMPG      H17R           56.8857731338       44.2844267902       -9.4301149854  MEMB      390             0.0000000000
     48552       390  PMPG      H17S           54.9829601005       43.6283526234       -9.4365357363  MEMB      390             0.0000000000
     48553       390  PMPG      C210           55.6658080606       44.4966090114       -7.6287732068  MEMB      390             0.0000000000
     48554       390  PMPG      H10R           56.3581306677       44.9387465629       -6.8807595607  MEMB      390             0.0000000000
     48555       390  PMPG      C211           54.2542965380       44.6533645389       -7.1291665401  MEMB      390             0.0000000000
     48556       390  PMPG      H11R           53.9207237344       45.6673077635       -7.4373371575  MEMB      390             0.0000000000
     48557       390  PMPG      H11S           53.5400410673       43.9500090924       -7.6081771449  MEMB      390             0.0000000000
     48558       390  PMPG      C212           54.1177914599       44.7406137674       -5.5672350624  MEMB      390             0.0000000000
     48559       390  PMPG      H12R           54.3477634908       45.8140427359       -5.3964009545  MEMB      390             0.0000000000
     48560       390  PMPG      H12S           54.8439438433       44.0141752226       -5.1437836692  MEMB      390             0.0000000000
     48561       390  PMPG      C213           52.7509229328       44.4586757840       -4.9086403983  MEMB      390             0.0000000000
     48562       390  PMPG      H13R           52.3764639914       43.4711610101       -5.2534816362  MEMB      390             0.0000000000
     48563       390  PMPG      H13S           52.0239575930       45.2201946182       -5.2635084032  MEMB      390             0.0000000000
     48564       390  PMPG      C214           52.8446307562       44.6279119352       -3.3869765117  MEMB      390             0.0000000000
     48565       390  PMPG      H14R           53.8047134882       44.3030047305       -2.9320060275  MEMB      390             0.0000000000
     48566       390  PMPG      H14S           52.0097632566       43.9379486366       -3.1394528512  MEMB      390             0.0000000000
     48567       390  PMPG      C215           52.5152442648       45.9281444075       -2.7689823950  MEMB      390             0.0000000000
     48568       390  PMPG      H15R           52.0741829258       45.9918801493       -1.7512771839  MEMB      390             0.0000000000
     48569       390  PMPG      H15S           51.7334034558       46.2807105902       -3.4751993861  MEMB      390             0.0000000000
     48570       390  PMPG      C216           53.5563921506       47.0919935516       -2.8497726593  MEMB      390             0.0000000000
     48571       390  PMPG      H16R           53.0843895543       48.0250239702       -2.4742890862  MEMB      390             0.0000000000
     48572       390  PMPG      H16S           53.8067105183       47.3025425459       -3.9115318254  MEMB      390             0.0000000000
     48573       390  PMPG      H16T           54.5285354147       46.9121113860       -2.3429200121  MEMB      390             0.0000000000
     48574       390  PMPG      C33            51.8663672489       42.2729426815      -12.8476787631  MEMB      390             0.0000000000
     48575       390  PMPG      H3X            51.4056314696       42.0357375163      -13.8304182692  MEMB      390             0.0000000000
     48576       390  PMPG      H3Y            51.8693955197       43.3700259372      -12.6724064907  MEMB      390             0.0000000000
     48577       390  PMPG      C34            50.9704115218       41.5217383301      -11.7474264427  MEMB      390             0.0000000000
     48578       390  PMPG      H4X            49.9267069020       41.9009862294      -11.7131826276  MEMB      390             0.0000000000
     48579       390  PMPG      H4Y            51.3775125476       41.6517664696      -10.7219107296  MEMB      390             0.0000000000
     48580       390  PMPG      C35            50.8423593825       39.9771326833      -12.1120732624  MEMB      390             0.0000000000
     48581       390  PMPG      H5X            51.8862074979       39.6141278872      -11.9983648962  MEMB      390             0.0000000000
     48582       390  PMPG      H5Y            50.5031092264       39.8630255778      -13.1638387947  MEMB      390             0.0000000000
     48583       390  PMPG      C36            49.8549056580       39.2306001378      -11.1485675919  MEMB      390             0.0000000000
     48584       390  PMPG      H6X            49.7244642121       38.2266065102      -11.6060638453  MEMB      390             0.0000000000
     48585       390  PMPG      H6Y            48.8975081582       39.7933469555      -11.1806196761  MEMB      390             0.0000000000
     48586       390  PMPG      C37            50.2212906306       39.0429748404       -9.7225345345  MEMB      390             0.0000000000
     48587       390  PMPG      H7X            49.3663168589       38.5709477923       -9.1928824607  MEMB      390             0.0000000000
     48588       390  PMPG      H7Y            50.5281958347       40.0387002974       -9.3369687852  MEMB      390             0.0000000000
     48589       390  PMPG      C38            51.4751224951       38.1650396322       -9.5456790950  MEMB      390             0.0000000000
     48590       390  PMPG      H8X            52.3219907467       38.7148757268      -10.0091609083  MEMB      390             0.0000000000
     48591       390  PMPG      H8Y            51.2253479725       37.1792977273       -9.9931676063  MEMB      390             0.0000000000
     48592       390  PMPG      C39            51.8060109848       37.8529885027       -8.1267528862  MEMB      390             0.0000000000
     48593       390  PMPG      H9X            52.8242548889       37.4128498521       -8.0652829402  MEMB      390             0.0000000000
     48594       390  PMPG      H9Y            50.9961976926       37.2083228216       -7.7231078459  MEMB      390             0.0000000000
     48595       390  PMPG      C310           51.8056325832       39.1193937982       -7.2812482830  MEMB      390             0.0000000000
     48596       390  PMPG      H10X           50.7800060622       39.5464050766       -7.2727203173  MEMB      390             0.0000000000
     48597       390  PMPG      H10Y           52.4880835517       39.7979835768       -7.8363141753  MEMB      390             0.0000000000
     48598       390  PMPG      C311           52.3414589364       38.8177148930       -5.8890150950  MEMB      390             0.0000000000
     48599       390  PMPG      H11X           53.3458241681       38.3463651364       -5.9473344989  MEMB      390             0.0000000000
     48600       390  PMPG      H11Y           51.6778170609       38.0643051095       -5.4133325127  MEMB      390             0.0000000000
     48601       390  PMPG      C312           52.2875798268       40.0179517384       -4.8863908608  MEMB      390             0.0000000000
     48602       390  PMPG      H12X           51.3298755435       40.5133543676       -5.1541599423  MEMB      390             0.0000000000
     48603       390  PMPG      H12Y           53.0780689073       40.7409926423       -5.1807714300  MEMB      390             0.0000000000
     48604       390  PMPG      C313           52.4506002976       39.6246655910       -3.4134393014  MEMB      390             0.0000000000
     48605       390  PMPG      H13X           53.4560811546       40.0149879168       -3.1470238983  MEMB      390             0.0000000000
     48606       390  PMPG      H13Y           52.4530568872       38.5188930039       -3.3058189729  MEMB      390             0.0000000000
     48607       390  PMPG      C314           51.3778238028       40.1364942201       -2.3879457942  MEMB      390             0.0000000000
     48608       390  PMPG      H14X           50.3425813365       39.8182494109       -2.6355631932  MEMB      390             0.0000000000
     48609       390  PMPG      H14Y           51.3580753551       41.2436985932       -2.4775548038  MEMB      390             0.0000000000
     48610       390  PMPG      C315           51.5198614624       39.7206345916       -0.9555208712  MEMB      390             0.0000000000
     48611       390  PMPG      H15X           51.1993758952       38.6621187196       -0.8499084551  MEMB      390             0.0000000000
     48612       390  PMPG      H15Y           50.7002899292       40.2900743317       -0.4672958627  MEMB      390             0.0000000000
     48613       390  PMPG      C316           52.7355470773       40.0660346113       -0.1246772351  MEMB      390             0.0000000000
     48614       390  PMPG      H16X           53.5841797077       39.4188293458       -0.4333335370  MEMB      390             0.0000000000
     48615       390  PMPG      H16Y           52.5330138907       40.1222794765        0.9662586138  MEMB      390             0.0000000000
     48616       390  PMPG      H16Z           53.0740830669       41.1064229877       -0.3178257032  MEMB      390             0.0000000000
     48617       391  PMPE      N             -49.0271571795      -48.6161440800      -18.5814834084  MEMB      391             0.0000000000
     48618       391  PMPE      HN1           -49.4648867548      -48.5943776470      -17.6383402735  MEMB      391             0.0000000000
     48619       391  PMPE      HN2           -49.7976046159      -48.4808503186      -19.2668346270  MEMB      391             0.0000000000
     48620       391  PMPE      HN3           -48.5705719486      -49.5490344127      -18.6348267857  MEMB      391             0.0000000000
     48621       391  PMPE      C12           -47.9740652058      -47.6161445757      -18.8252482234  MEMB      391             0.0000000000
     48622       391  PMPE      H12A          -47.7456729719      -47.0704127385      -17.8848575338  MEMB      391             0.0000000000
     48623       391  PMPE      H12B          -48.3380898132      -46.8296797373      -19.5204319265  MEMB      391             0.0000000000
     48624       391  PMPE      C11           -46.7127075791      -48.3112820157      -19.4050058149  MEMB      391             0.0000000000
     48625       391  PMPE      H11A          -45.9140838256      -47.5395628395      -19.3738506057  MEMB      391             0.0000000000
     48626       391  PMPE      H11B          -46.9443777514      -48.6882444619      -20.4240982069  MEMB      391             0.0000000000
     48627       391  PMPE      P             -45.4815843185      -50.6073804304      -19.1388864970  MEMB      391             0.0000000000
     48628       391  PMPE      O13           -44.1850040749      -50.0438519808      -19.5689143937  MEMB      391             0.0000000000
     48629       391  PMPE      O14           -46.2799170113      -51.3318111407      -20.0994063142  MEMB      391             0.0000000000
     48630       391  PMPE      O11           -45.2405361671      -51.4528064763      -17.8036681800  MEMB      391             0.0000000000
     48631       391  PMPE      O12           -46.3674108635      -49.4445961040      -18.5773871702  MEMB      391             0.0000000000
     48632       391  PMPE      C1            -46.1921404533      -52.4426342596      -17.3767498424  MEMB      391             0.0000000000
     48633       391  PMPE      HA            -45.6890460589      -53.0493547384      -16.5937382954  MEMB      391             0.0000000000
     48634       391  PMPE      HB            -46.6127456477      -53.1573386866      -18.1160803564  MEMB      391             0.0000000000
     48635       391  PMPE      C2            -47.4670829807      -51.7565088582      -16.7026831533  MEMB      391             0.0000000000
     48636       391  PMPE      HS            -47.9433147325      -51.2176806428      -17.5495529618  MEMB      391             0.0000000000
     48637       391  PMPE      O21           -46.9747393387      -50.8380994339      -15.6444829749  MEMB      391             0.0000000000
     48638       391  PMPE      C21           -47.7969961198      -49.9329783797      -15.2182509754  MEMB      391             0.0000000000
     48639       391  PMPE      O22           -48.9728009754      -49.8420249676      -15.5258533821  MEMB      391             0.0000000000
     48640       391  PMPE      C22           -47.2298238056      -48.9649295100      -14.1176407471  MEMB      391             0.0000000000
     48641       391  PMPE      H2R           -46.7747223127      -48.0668167841      -14.5873183857  MEMB      391             0.0000000000
     48642       391  PMPE      H2S           -46.5138209299      -49.4371283202      -13.4114613673  MEMB      391             0.0000000000
     48643       391  PMPE      C3            -48.4403489968      -52.8643730259      -16.1350743793  MEMB      391             0.0000000000
     48644       391  PMPE      HX            -49.0627468563      -53.3973447208      -16.8853299415  MEMB      391             0.0000000000
     48645       391  PMPE      HY            -49.2599555318      -52.3995408277      -15.5464343116  MEMB      391             0.0000000000
     48646       391  PMPE      O31           -47.7931201172      -53.6999224891      -15.2577586937  MEMB      391             0.0000000000
     48647       391  PMPE      C31           -47.8948574346      -53.6851481135      -13.9289762497  MEMB      391             0.0000000000
     48648       391  PMPE      O32           -48.6395863434      -52.9656752173      -13.3457554559  MEMB      391             0.0000000000
     48649       391  PMPE      C32           -47.0342410747      -54.7337858407      -13.3047606982  MEMB      391             0.0000000000
     48650       391  PMPE      H2X           -45.9765678926      -54.4878147187      -13.5395935903  MEMB      391             0.0000000000
     48651       391  PMPE      H2Y           -47.2843153143      -55.7261600213      -13.7371689677  MEMB      391             0.0000000000
     48652       391  PMPE      C23           -48.3645475283      -48.4777466711      -13.2255961431  MEMB      391             0.0000000000
     48653       391  PMPE      H3R           -48.8411528453      -49.3976234265      -12.8243547283  MEMB      391             0.0000000000
     48654       391  PMPE      H3S           -49.1713558970      -47.9112921272      -13.7379542792  MEMB      391             0.0000000000
     48655       391  PMPE      C24           -48.1566101140      -47.7400214828      -11.9246444196  MEMB      391             0.0000000000
     48656       391  PMPE      H4R           -48.7250500451      -46.7854556723      -11.9256251457  MEMB      391             0.0000000000
     48657       391  PMPE      H4S           -47.1037083399      -47.4017851500      -12.0310169531  MEMB      391             0.0000000000
     48658       391  PMPE      C25           -48.4942621725      -48.4289980508      -10.6175234180  MEMB      391             0.0000000000
     48659       391  PMPE      H5R           -47.8003217202      -49.2960050925      -10.5848648938  MEMB      391             0.0000000000
     48660       391  PMPE      H5S           -49.5222007320      -48.8502857301      -10.6309330095  MEMB      391             0.0000000000
     48661       391  PMPE      C26           -48.2766230091      -47.5381477613       -9.3994926632  MEMB      391             0.0000000000
     48662       391  PMPE      H6R           -48.9693700124      -46.6713158302       -9.3444951577  MEMB      391             0.0000000000
     48663       391  PMPE      H6S           -47.2084840133      -47.3040749789       -9.5959868678  MEMB      391             0.0000000000
     48664       391  PMPE      C27           -48.4477859627      -48.3680159704       -8.1432686076  MEMB      391             0.0000000000
     48665       391  PMPE      H7R           -47.8759734350      -49.2989043493       -8.3452550193  MEMB      391             0.0000000000
     48666       391  PMPE      H7S           -49.5193506851      -48.6018060869       -7.9660327142  MEMB      391             0.0000000000
     48667       391  PMPE      C28           -47.8539915016      -47.7990225937       -6.7726005570  MEMB      391             0.0000000000
     48668       391  PMPE      H8R           -46.7488130118      -47.9113538967       -6.7894308027  MEMB      391             0.0000000000
     48669       391  PMPE      H8S           -48.2769449071      -48.4616231701       -5.9874936509  MEMB      391             0.0000000000
     48670       391  PMPE      C29           -48.3337743074      -46.3532612934       -6.5438465448  MEMB      391             0.0000000000
     48671       391  PMPE      H9R           -49.3587141917      -46.0999210655       -6.8897338392  MEMB      391             0.0000000000
     48672       391  PMPE      C217          -47.3134782097      -45.3419103608       -7.1211337591  MEMB      391             0.0000000000
     48673       391  PMPE      H17R          -47.6742654430      -44.4664429163       -7.6467555629  MEMB      391             0.0000000000
     48674       391  PMPE      H17S          -46.4008675708      -45.8119294546       -7.4662605375  MEMB      391             0.0000000000
     48675       391  PMPE      C210          -47.5651089765      -45.4560105319       -5.6013952642  MEMB      391             0.0000000000
     48676       391  PMPE      H10R          -48.1333459767      -44.6083703710       -5.1621522632  MEMB      391             0.0000000000
     48677       391  PMPE      C211          -46.4373702002      -45.9027521581       -4.7296765459  MEMB      391             0.0000000000
     48678       391  PMPE      H11R          -45.9577210109      -45.0020396241       -4.2903875632  MEMB      391             0.0000000000
     48679       391  PMPE      H11S          -45.6288234214      -46.3363011656       -5.3562609681  MEMB      391             0.0000000000
     48680       391  PMPE      C212          -46.7047032524      -46.7913464540       -3.5563626613  MEMB      391             0.0000000000
     48681       391  PMPE      H12R          -46.0121235274      -46.6979731793       -2.6926864602  MEMB      391             0.0000000000
     48682       391  PMPE      H12S          -46.8345245452      -47.8592754783       -3.8338422822  MEMB      391             0.0000000000
     48683       391  PMPE      C213          -47.9765304317      -46.3868992390       -2.8470971837  MEMB      391             0.0000000000
     48684       391  PMPE      H13R          -48.8834975785      -46.6187680983       -3.4454023033  MEMB      391             0.0000000000
     48685       391  PMPE      H13S          -47.8720150080      -45.2938627920       -2.6777785549  MEMB      391             0.0000000000
     48686       391  PMPE      C214          -48.2692237163      -47.1909344256       -1.5641046730  MEMB      391             0.0000000000
     48687       391  PMPE      H14R          -48.4426570980      -48.2427129938       -1.8771610385  MEMB      391             0.0000000000
     48688       391  PMPE      H14S          -49.2875939080      -46.9938685902       -1.1660986038  MEMB      391             0.0000000000
     48689       391  PMPE      C215          -47.2617910037      -46.9654243672       -0.4165969571  MEMB      391             0.0000000000
     48690       391  PMPE      H15R          -47.3003424052      -45.8666058007       -0.2571211731  MEMB      391             0.0000000000
     48691       391  PMPE      H15S          -46.2033571299      -47.2345448750       -0.6205901076  MEMB      391             0.0000000000
     48692       391  PMPE      C216          -47.5887149514      -47.6785921259        0.8745563076  MEMB      391             0.0000000000
     48693       391  PMPE      H16R          -48.6892300959      -47.6319733047        1.0195175124  MEMB      391             0.0000000000
     48694       391  PMPE      H16S          -47.2433610996      -48.7325103929        0.9401923804  MEMB      391             0.0000000000
     48695       391  PMPE      H16T          -47.1125670442      -47.2770157013        1.7945241316  MEMB      391             0.0000000000
     48696       391  PMPE      C33           -47.1031041509      -54.8232366940      -11.7682884164  MEMB      391             0.0000000000
     48697       391  PMPE      H3X           -46.7514667680      -55.7976267967      -11.3667464392  MEMB      391             0.0000000000
     48698       391  PMPE      H3Y           -48.1994131529      -54.7515554797      -11.6030930843  MEMB      391             0.0000000000
     48699       391  PMPE      C34           -46.3604704795      -53.6358080697      -11.0955908354  MEMB      391             0.0000000000
     48700       391  PMPE      H4X           -46.8487860539      -52.6995712576      -11.4410315647  MEMB      391             0.0000000000
     48701       391  PMPE      H4Y           -45.3150975277      -53.6133219826      -11.4711046133  MEMB      391             0.0000000000
     48702       391  PMPE      C35           -46.4808723825      -53.7040090932       -9.6073738461  MEMB      391             0.0000000000
     48703       391  PMPE      H5X           -46.1312976582      -54.7147266966       -9.3064279008  MEMB      391             0.0000000000
     48704       391  PMPE      H5Y           -47.5380540443      -53.5716135685       -9.2924782708  MEMB      391             0.0000000000
     48705       391  PMPE      C36           -45.5992284110      -52.6186661818       -8.9459962186  MEMB      391             0.0000000000
     48706       391  PMPE      H6X           -46.0647467936      -51.6200924887       -9.0890492514  MEMB      391             0.0000000000
     48707       391  PMPE      H6Y           -44.5211386485      -52.5957421242       -9.2134242275  MEMB      391             0.0000000000
     48708       391  PMPE      C37           -45.8451227169      -52.6899813458       -7.4638682704  MEMB      391             0.0000000000
     48709       391  PMPE      H7X           -45.3905605736      -53.6069694261       -7.0316325305  MEMB      391             0.0000000000
     48710       391  PMPE      H7Y           -46.9301665711      -52.6863417559       -7.2251469356  MEMB      391             0.0000000000
     48711       391  PMPE      C38           -45.3529480860      -51.4384037701       -6.7439845329  MEMB      391             0.0000000000
     48712       391  PMPE      H8X           -46.0386152735      -50.5752092843       -6.8821039729  MEMB      391             0.0000000000
     48713       391  PMPE      H8Y           -44.3991833581      -51.0847819004       -7.1907567749  MEMB      391             0.0000000000
     48714       391  PMPE      C39           -45.3223983449      -51.5468971052       -5.2311390487  MEMB      391             0.0000000000
     48715       391  PMPE      H9X           -44.8626854447      -52.5186818599       -4.9507468088  MEMB      391             0.0000000000
     48716       391  PMPE      H9Y           -46.3381304080      -51.4943070661       -4.7841007999  MEMB      391             0.0000000000
     48717       391  PMPE      C310          -44.6149306859      -50.3647169870       -4.5161869939  MEMB      391             0.0000000000
     48718       391  PMPE      H10X          -45.0053682389      -49.3529593421       -4.7574870962  MEMB      391             0.0000000000
     48719       391  PMPE      H10Y          -43.5611893699      -50.4209884493       -4.8637272099  MEMB      391             0.0000000000
     48720       391  PMPE      C311          -44.7664698524      -50.5575738073       -3.0141249569  MEMB      391             0.0000000000
     48721       391  PMPE      H11X          -44.5215776231      -51.5942551761       -2.6984660523  MEMB      391             0.0000000000
     48722       391  PMPE      H11Y          -45.8562271279      -50.5048066459       -2.8044458694  MEMB      391             0.0000000000
     48723       391  PMPE      C312          -44.0573235990      -49.6106391258       -2.1002565836  MEMB      391             0.0000000000
     48724       391  PMPE      H12X          -44.2821842245      -48.5587898705       -2.3784136713  MEMB      391             0.0000000000
     48725       391  PMPE      H12Y          -42.9709686618      -49.7535648627       -2.2839017631  MEMB      391             0.0000000000
     48726       391  PMPE      C313          -44.4845945288      -49.7532642088       -0.6329538886  MEMB      391             0.0000000000
     48727       391  PMPE      H13X          -44.6734649536      -50.8374491095       -0.4806645468  MEMB      391             0.0000000000
     48728       391  PMPE      H13Y          -45.4824465311      -49.3402401458       -0.3721412907  MEMB      391             0.0000000000
     48729       391  PMPE      C314          -43.5030574308      -49.1983014176        0.3412710853  MEMB      391             0.0000000000
     48730       391  PMPE      H14X          -43.0618954236      -48.2062762304        0.1055109646  MEMB      391             0.0000000000
     48731       391  PMPE      H14Y          -42.7462329947      -49.9939400234        0.5100815673  MEMB      391             0.0000000000
     48732       391  PMPE      C315          -44.0614248446      -49.0643453351        1.7532880613  MEMB      391             0.0000000000
     48733       391  PMPE      H15X          -44.7205334523      -48.1700335453        1.7431311765  MEMB      391             0.0000000000
     48734       391  PMPE      H15Y          -43.1930634447      -48.8784085954        2.4208940518  MEMB      391             0.0000000000
     48735       391  PMPE      C316          -44.6963491817      -50.3630882081        2.3913198836  MEMB      391             0.0000000000
     48736       391  PMPE      H16X          -44.8166210340      -50.1874235461        3.4817305747  MEMB      391             0.0000000000
     48737       391  PMPE      H16Y          -43.9863109390      -51.2063455135        2.2531748850  MEMB      391             0.0000000000
     48738       391  PMPE      H16Z          -45.6201521320      -50.6466424989        1.8431346218  MEMB      391             0.0000000000
     48739       392  PMPE      N              52.2070713271      -44.1959309694      -21.0757062884  MEMB      392             0.0000000000
     48740       392  PMPE      HN1            52.1927712148      -44.0757503537      -22.1086400268  MEMB      392             0.0000000000
     48741       392  PMPE      HN2            53.0867493950      -44.5968152842      -20.6922245707  MEMB      392             0.0000000000
     48742       392  PMPE      HN3            51.5312207285      -44.9237082852      -20.7672161868  MEMB      392             0.0000000000
     48743       392  PMPE      C12            51.6630110960      -42.9236401949      -20.4383543689  MEMB      392             0.0000000000
     48744       392  PMPE      H12A           50.6179572926      -42.8712370498      -20.8117671792  MEMB      392             0.0000000000
     48745       392  PMPE      H12B           52.0072882590      -41.9904744995      -20.9333250012  MEMB      392             0.0000000000
     48746       392  PMPE      C11            51.7705576651      -42.9029914920      -18.9741259503  MEMB      392             0.0000000000
     48747       392  PMPE      H11A           51.3065665862      -43.8499295498      -18.6243526118  MEMB      392             0.0000000000
     48748       392  PMPE      H11B           51.2993400179      -42.0399952791      -18.4569098931  MEMB      392             0.0000000000
     48749       392  PMPE      P              53.8615461447      -41.5585407612      -18.3779760292  MEMB      392             0.0000000000
     48750       392  PMPE      O13            53.6428733934      -40.7387926131      -19.5478548125  MEMB      392             0.0000000000
     48751       392  PMPE      O14            55.2461304175      -41.8251381119      -17.8509671708  MEMB      392             0.0000000000
     48752       392  PMPE      O11            53.1007899469      -40.9558282780      -17.1658661304  MEMB      392             0.0000000000
     48753       392  PMPE      O12            53.1786367351      -42.9297999117      -18.5691492524  MEMB      392             0.0000000000
     48754       392  PMPE      C1             53.0926394585      -41.5700374951      -15.8914282473  MEMB      392             0.0000000000
     48755       392  PMPE      HA             53.3259627771      -40.8126208191      -15.1128390413  MEMB      392             0.0000000000
     48756       392  PMPE      HB             53.8605349585      -42.3615732101      -15.7567857249  MEMB      392             0.0000000000
     48757       392  PMPE      C2             51.6990636210      -42.2214463493      -15.5782278020  MEMB      392             0.0000000000
     48758       392  PMPE      HS             51.3411692943      -42.8141235367      -16.4471158746  MEMB      392             0.0000000000
     48759       392  PMPE      O21            50.8535089051      -41.0994375936      -15.3570005120  MEMB      392             0.0000000000
     48760       392  PMPE      C21            49.5544983905      -41.4008739152      -15.2463332632  MEMB      392             0.0000000000
     48761       392  PMPE      O22            49.0485354359      -42.3501709728      -15.7433722341  MEMB      392             0.0000000000
     48762       392  PMPE      C22            48.8955261779      -40.3895609433      -14.3129127966  MEMB      392             0.0000000000
     48763       392  PMPE      H2R            47.8249319975      -40.6575682331      -14.1851604368  MEMB      392             0.0000000000
     48764       392  PMPE      H2S            48.9933669011      -39.3946604450      -14.7976000246  MEMB      392             0.0000000000
     48765       392  PMPE      C3             51.9564611639      -43.1042370952      -14.2885654689  MEMB      392             0.0000000000
     48766       392  PMPE      HX             52.8003300613      -43.7732999671      -14.5616247254  MEMB      392             0.0000000000
     48767       392  PMPE      HY             51.0133235392      -43.6769190618      -14.1587665525  MEMB      392             0.0000000000
     48768       392  PMPE      O31            52.3123167532      -42.2771351113      -13.1930901650  MEMB      392             0.0000000000
     48769       392  PMPE      C31            53.4471641055      -42.5492068063      -12.4925207125  MEMB      392             0.0000000000
     48770       392  PMPE      O32            54.1058682478      -43.5473528648      -12.6524323700  MEMB      392             0.0000000000
     48771       392  PMPE      C32            53.4046328001      -41.5965772065      -11.2770483011  MEMB      392             0.0000000000
     48772       392  PMPE      H2X            53.9769840252      -42.0114915633      -10.4199714513  MEMB      392             0.0000000000
     48773       392  PMPE      H2Y            52.3501054507      -41.4691610660      -10.9513825349  MEMB      392             0.0000000000
     48774       392  PMPE      C23            49.6228713512      -40.4224564714      -12.8908977942  MEMB      392             0.0000000000
     48775       392  PMPE      H3R            50.7325888829      -40.4671881754      -12.9199985681  MEMB      392             0.0000000000
     48776       392  PMPE      H3S            49.3736629609      -41.3393664838      -12.3151440067  MEMB      392             0.0000000000
     48777       392  PMPE      C24            48.9206701047      -39.4675572348      -11.9966404805  MEMB      392             0.0000000000
     48778       392  PMPE      H4R            47.8337964565      -39.6839116982      -12.0754943002  MEMB      392             0.0000000000
     48779       392  PMPE      H4S            49.1294896438      -38.3994409231      -12.2198954620  MEMB      392             0.0000000000
     48780       392  PMPE      C25            49.3534132906      -39.6755407755      -10.5498799880  MEMB      392             0.0000000000
     48781       392  PMPE      H5R            49.1211076735      -38.7684717602       -9.9518997135  MEMB      392             0.0000000000
     48782       392  PMPE      H5S            50.4249315079      -39.9660330577      -10.5076428041  MEMB      392             0.0000000000
     48783       392  PMPE      C26            48.6127862151      -40.8234650468       -9.7823355922  MEMB      392             0.0000000000
     48784       392  PMPE      H6R            48.6581866955      -41.8037140220      -10.3032691045  MEMB      392             0.0000000000
     48785       392  PMPE      H6S            47.5098492384      -40.7399689181       -9.8866401522  MEMB      392             0.0000000000
     48786       392  PMPE      C27            48.9580958154      -40.8955077349       -8.2453721758  MEMB      392             0.0000000000
     48787       392  PMPE      H7R            48.2447375787      -41.6263361137       -7.8079585212  MEMB      392             0.0000000000
     48788       392  PMPE      H7S            48.6508737192      -39.9388993846       -7.7712031967  MEMB      392             0.0000000000
     48789       392  PMPE      C28            50.3071178729      -41.6042096833       -7.9551152828  MEMB      392             0.0000000000
     48790       392  PMPE      H8R            50.5026364080      -41.5095823428       -6.8655565436  MEMB      392             0.0000000000
     48791       392  PMPE      H8S            51.1017438608      -41.0391545488       -8.4876595665  MEMB      392             0.0000000000
     48792       392  PMPE      C29            50.3341274791      -43.0769983296       -8.3409948885  MEMB      392             0.0000000000
     48793       392  PMPE      H9R            50.0713247907      -43.4967386106       -9.3355164400  MEMB      392             0.0000000000
     48794       392  PMPE      C217           49.8658714581      -43.9863531151       -7.1687625636  MEMB      392             0.0000000000
     48795       392  PMPE      H17R           49.2713180202      -44.6488150578       -7.7856416838  MEMB      392             0.0000000000
     48796       392  PMPE      H17S           49.5089324514      -43.3508649279       -6.3677392262  MEMB      392             0.0000000000
     48797       392  PMPE      C210           51.3178799872      -43.9527127212       -7.6383945591  MEMB      392             0.0000000000
     48798       392  PMPE      H10R           51.6201757673      -44.8527496363       -8.2153455623  MEMB      392             0.0000000000
     48799       392  PMPE      C211           52.2850214529      -43.3120461450       -6.6458994090  MEMB      392             0.0000000000
     48800       392  PMPE      H11R           52.0001675330      -42.5572366707       -5.8820652705  MEMB      392             0.0000000000
     48801       392  PMPE      H11S           52.9048362670      -42.6860432642       -7.3228566373  MEMB      392             0.0000000000
     48802       392  PMPE      C212           53.0953147547      -44.4853182340       -6.0467033809  MEMB      392             0.0000000000
     48803       392  PMPE      H12R           53.6453005564      -45.0513725230       -6.8286371067  MEMB      392             0.0000000000
     48804       392  PMPE      H12S           52.4353664229      -45.2555773780       -5.5933929129  MEMB      392             0.0000000000
     48805       392  PMPE      C213           54.0269021289      -44.0674671002       -4.8429830255  MEMB      392             0.0000000000
     48806       392  PMPE      H13R           54.8589275962      -43.5400909041       -5.3567237291  MEMB      392             0.0000000000
     48807       392  PMPE      H13S           54.4102657899      -44.9996436832       -4.3756503907  MEMB      392             0.0000000000
     48808       392  PMPE      C214           53.3022724014      -43.2299972179       -3.7909243660  MEMB      392             0.0000000000
     48809       392  PMPE      H14R           52.4356964668      -43.8672480182       -3.5129357214  MEMB      392             0.0000000000
     48810       392  PMPE      H14S           52.8879357588      -42.2939348046       -4.2227036387  MEMB      392             0.0000000000
     48811       392  PMPE      C215           54.1553806635      -42.8632887994       -2.5771928350  MEMB      392             0.0000000000
     48812       392  PMPE      H15R           53.5062086682      -42.3102663752       -1.8651103054  MEMB      392             0.0000000000
     48813       392  PMPE      H15S           54.9557004545      -42.2035494452       -2.9753802537  MEMB      392             0.0000000000
     48814       392  PMPE      C216           54.7061214841      -44.0872566585       -1.8623808315  MEMB      392             0.0000000000
     48815       392  PMPE      H16R           55.5875931364      -43.6821081787       -1.3209172984  MEMB      392             0.0000000000
     48816       392  PMPE      H16S           53.8944624086      -44.5227002764       -1.2411581166  MEMB      392             0.0000000000
     48817       392  PMPE      H16T           55.0290329464      -44.9474631346       -2.4869560625  MEMB      392             0.0000000000
     48818       392  PMPE      C33            54.0913813283      -40.3685217970      -11.7712517568  MEMB      392             0.0000000000
     48819       392  PMPE      H3X            53.4592486114      -39.8296479914      -12.5090489012  MEMB      392             0.0000000000
     48820       392  PMPE      H3Y            55.0158505639      -40.6639364657      -12.3119992895  MEMB      392             0.0000000000
     48821       392  PMPE      C34            54.4412984117      -39.3847715905      -10.6799195849  MEMB      392             0.0000000000
     48822       392  PMPE      H4X            54.6671048750      -38.4460402723      -11.2295704988  MEMB      392             0.0000000000
     48823       392  PMPE      H4Y            55.4162757351      -39.7321130472      -10.2760707332  MEMB      392             0.0000000000
     48824       392  PMPE      C35            53.4090835629      -39.0425735988       -9.5929916390  MEMB      392             0.0000000000
     48825       392  PMPE      H5X            53.1329920487      -40.0320434132       -9.1698554098  MEMB      392             0.0000000000
     48826       392  PMPE      H5Y            52.4422847396      -38.7345928514      -10.0455054639  MEMB      392             0.0000000000
     48827       392  PMPE      C36            53.8791235815      -38.0160146099       -8.5919526781  MEMB      392             0.0000000000
     48828       392  PMPE      H6X            54.2688997947      -37.1316695793       -9.1399756728  MEMB      392             0.0000000000
     48829       392  PMPE      H6Y            54.6817547316      -38.3444630953       -7.8975273302  MEMB      392             0.0000000000
     48830       392  PMPE      C37            52.8278092132      -37.3540811895       -7.7068106153  MEMB      392             0.0000000000
     48831       392  PMPE      H7X            52.0159650608      -36.8833011221       -8.3014503825  MEMB      392             0.0000000000
     48832       392  PMPE      H7Y            53.2204385192      -36.5827185026       -7.0102745418  MEMB      392             0.0000000000
     48833       392  PMPE      C38            52.0413302183      -38.3541212711       -6.6947127790  MEMB      392             0.0000000000
     48834       392  PMPE      H8X            52.9096852118      -38.7968462122       -6.1615385142  MEMB      392             0.0000000000
     48835       392  PMPE      H8Y            51.5805562257      -39.1764143645       -7.2827968881  MEMB      392             0.0000000000
     48836       392  PMPE      C39            50.9880801274      -37.7064939095       -5.8983799445  MEMB      392             0.0000000000
     48837       392  PMPE      H9X            50.3025812419      -37.1228149047       -6.5493263684  MEMB      392             0.0000000000
     48838       392  PMPE      H9Y            51.3082513394      -36.9651916232       -5.1353057259  MEMB      392             0.0000000000
     48839       392  PMPE      C310           50.1036514395      -38.6820016598       -5.1095744766  MEMB      392             0.0000000000
     48840       392  PMPE      H10X           49.4499432963      -39.2197680936       -5.8291535689  MEMB      392             0.0000000000
     48841       392  PMPE      H10Y           49.4153547759      -38.0858845409       -4.4730104022  MEMB      392             0.0000000000
     48842       392  PMPE      C311           50.9530344449      -39.6514379089       -4.1884815359  MEMB      392             0.0000000000
     48843       392  PMPE      H11X           51.7764656527      -39.0688492829       -3.7227858254  MEMB      392             0.0000000000
     48844       392  PMPE      H11Y           51.4567768851      -40.3786457890       -4.8605930592  MEMB      392             0.0000000000
     48845       392  PMPE      C312           50.2052040914      -40.5105278721       -3.0769346355  MEMB      392             0.0000000000
     48846       392  PMPE      H12X           49.6011286357      -39.8659110480       -2.4032258699  MEMB      392             0.0000000000
     48847       392  PMPE      H12Y           50.8946355138      -41.0680455674       -2.4074725364  MEMB      392             0.0000000000
     48848       392  PMPE      C313           49.2108762690      -41.5103506422       -3.6352983734  MEMB      392             0.0000000000
     48849       392  PMPE      H13X           49.6647194853      -42.3885624346       -4.1423407017  MEMB      392             0.0000000000
     48850       392  PMPE      H13Y           48.5398800454      -40.9796814759       -4.3441537149  MEMB      392             0.0000000000
     48851       392  PMPE      C314           48.2277334106      -42.0330381518       -2.4788674060  MEMB      392             0.0000000000
     48852       392  PMPE      H14X           47.7517940671      -41.2535662247       -1.8462329979  MEMB      392             0.0000000000
     48853       392  PMPE      H14Y           48.8906759843      -42.6687035061       -1.8537606756  MEMB      392             0.0000000000
     48854       392  PMPE      C315           47.1910855543      -43.0022559596       -3.0767446395  MEMB      392             0.0000000000
     48855       392  PMPE      H15X           47.7063703782      -43.7989009930       -3.6548103624  MEMB      392             0.0000000000
     48856       392  PMPE      H15Y           46.4700180554      -42.4701100475       -3.7334053918  MEMB      392             0.0000000000
     48857       392  PMPE      C316           46.3874109405      -43.7610615297       -1.9729772206  MEMB      392             0.0000000000
     48858       392  PMPE      H16X           47.0539421965      -43.8594706183       -1.0895899474  MEMB      392             0.0000000000
     48859       392  PMPE      H16Y           45.9492083055      -44.7056677088       -2.3603000114  MEMB      392             0.0000000000
     48860       392  PMPE      H16Z           45.4699795065      -43.2234832806       -1.6510309551  MEMB      392             0.0000000000
     48861       393  QMPE      N              49.9041020678       46.3664808154      -21.0688375145  MEMB      393             0.0000000000
     48862       393  QMPE      HN1            49.4670716312       46.8016250646      -21.9062464679  MEMB      393             0.0000000000
     48863       393  QMPE      HN2            50.4885151783       45.5718887509      -21.3985112535  MEMB      393             0.0000000000
     48864       393  QMPE      HN3            49.1605634203       45.9698766760      -20.4593660191  MEMB      393             0.0000000000
     48865       393  QMPE      C12            50.6042917975       47.3676485721      -20.2534092804  MEMB      393             0.0000000000
     48866       393  QMPE      H12A           51.5980566858       47.4451223981      -20.7440720985  MEMB      393             0.0000000000
     48867       393  QMPE      H12B           50.7405011293       46.8483819014      -19.2807170443  MEMB      393             0.0000000000
     48868       393  QMPE      C11            49.7745371063       48.6603574008      -20.1431375335  MEMB      393             0.0000000000
     48869       393  QMPE      H11A           49.6525504382       48.9823083635      -21.1994461986  MEMB      393             0.0000000000
     48870       393  QMPE      H11B           50.3003225810       49.4177948964      -19.5233319438  MEMB      393             0.0000000000
     48871       393  QMPE      P              48.2048609842       48.1545891769      -18.0352170194  MEMB      393             0.0000000000
     48872       393  QMPE      O13            49.2572831935       47.1401503304      -17.5714521069  MEMB      393             0.0000000000
     48873       393  QMPE      O14            46.8275016349       47.7621150663      -17.9154958110  MEMB      393             0.0000000000
     48874       393  QMPE      O11            48.4238439729       49.5783950397      -17.4079690423  MEMB      393             0.0000000000
     48875       393  QMPE      O12            48.4489662241       48.4700356469      -19.6044816932  MEMB      393             0.0000000000
     48876       393  QMPE      C1             47.9400403115       50.8179305900      -17.8443899633  MEMB      393             0.0000000000
     48877       393  QMPE      HA             47.1107610998       50.7101747024      -18.5758309829  MEMB      393             0.0000000000
     48878       393  QMPE      HB             48.7206347930       51.3431120790      -18.4353026220  MEMB      393             0.0000000000
     48879       393  QMPE      C2             47.3949949807       51.6796895234      -16.6903863694  MEMB      393             0.0000000000
     48880       393  QMPE      HS             47.0568015901       52.6649671915      -17.0766166277  MEMB      393             0.0000000000
     48881       393  QMPE      O21            48.4018348623       51.8796655315      -15.7602180080  MEMB      393             0.0000000000
     48882       393  QMPE      C21            48.2937395001       52.8316338398      -14.8164576168  MEMB      393             0.0000000000
     48883       393  QMPE      O22            47.3326018413       53.5715124304      -14.5997384770  MEMB      393             0.0000000000
     48884       393  QMPE      C22            49.4565240783       52.6319161251      -13.8758630196  MEMB      393             0.0000000000
     48885       393  QMPE      H2R            49.4301042296       53.4333359094      -13.1068703081  MEMB      393             0.0000000000
     48886       393  QMPE      H2S            50.4603159119       52.7816720637      -14.3278539100  MEMB      393             0.0000000000
     48887       393  QMPE      C3             46.1626452820       51.0179345478      -15.9784249434  MEMB      393             0.0000000000
     48888       393  QMPE      HX             45.3773758883       50.8282755868      -16.7411192367  MEMB      393             0.0000000000
     48889       393  QMPE      HY             45.7623909960       51.7671828706      -15.2623626735  MEMB      393             0.0000000000
     48890       393  QMPE      O31            46.5459983319       49.7864439309      -15.3002288840  MEMB      393             0.0000000000
     48891       393  QMPE      C31            45.5795121743       48.9668152367      -15.0408559237  MEMB      393             0.0000000000
     48892       393  QMPE      O32            44.4189167091       49.0566577064      -15.2926943742  MEMB      393             0.0000000000
     48893       393  QMPE      C32            46.2214886443       47.6983656322      -14.4366474348  MEMB      393             0.0000000000
     48894       393  QMPE      H2X            46.4232133195       46.9888211533      -15.2674150319  MEMB      393             0.0000000000
     48895       393  QMPE      H2Y            47.1541849094       47.8836280799      -13.8621248042  MEMB      393             0.0000000000
     48896       393  QMPE      C23            49.1965531897       51.3359637302      -13.0927529475  MEMB      393             0.0000000000
     48897       393  QMPE      H3R            50.1018013716       51.1303499074      -12.4823678187  MEMB      393             0.0000000000
     48898       393  QMPE      H3S            49.0371215144       50.4302444304      -13.7161106312  MEMB      393             0.0000000000
     48899       393  QMPE      C24            47.8873826377       51.4801458239      -12.1754030708  MEMB      393             0.0000000000
     48900       393  QMPE      H4R            47.8273605279       50.5798841361      -11.5271382756  MEMB      393             0.0000000000
     48901       393  QMPE      H4S            46.9720955035       51.3333049407      -12.7877820797  MEMB      393             0.0000000000
     48902       393  QMPE      C25            47.6537197419       52.6678239311      -11.2385380205  MEMB      393             0.0000000000
     48903       393  QMPE      H5R            46.5965096782       52.6580493746      -10.8971694371  MEMB      393             0.0000000000
     48904       393  QMPE      H5S            47.7397319179       53.5535527459      -11.9036757021  MEMB      393             0.0000000000
     48905       393  QMPE      C26            48.7164593720       52.7111690136      -10.1375964841  MEMB      393             0.0000000000
     48906       393  QMPE      H6R            49.7112306271       52.5673605991      -10.6109576822  MEMB      393             0.0000000000
     48907       393  QMPE      H6S            48.6052323360       51.8627013168       -9.4290403574  MEMB      393             0.0000000000
     48908       393  QMPE      C27            48.7169165114       53.9386741852       -9.1810833753  MEMB      393             0.0000000000
     48909       393  QMPE      H7R            47.7976744731       54.0289600899       -8.5636996072  MEMB      393             0.0000000000
     48910       393  QMPE      H7S            48.8098573087       54.8726906425       -9.7754709206  MEMB      393             0.0000000000
     48911       393  QMPE      C28            49.9879010552       54.0143333931       -8.3118097528  MEMB      393             0.0000000000
     48912       393  QMPE      H8R            50.8099569148       54.1864458451       -9.0390802378  MEMB      393             0.0000000000
     48913       393  QMPE      H8S            50.1200633676       53.0551307275       -7.7670302228  MEMB      393             0.0000000000
     48914       393  QMPE      C29            49.9231101546       55.1998345300       -7.3381871492  MEMB      393             0.0000000000
     48915       393  QMPE      H9R            49.1424798996       55.2797936766       -6.5517122644  MEMB      393             0.0000000000
     48916       393  QMPE      C217           50.3528821035       56.5732833061       -7.8399774580  MEMB      393             0.0000000000
     48917       393  QMPE      H17R           50.8678449144       56.6360805021       -8.7906395002  MEMB      393             0.0000000000
     48918       393  QMPE      H17S           49.8887776453       57.4762810117       -7.4630278996  MEMB      393             0.0000000000
     48919       393  QMPE      C210           51.1899535136       55.8394008945       -6.7454770191  MEMB      393             0.0000000000
     48920       393  QMPE      H10R           51.1750299158       56.3517429486       -5.7597773340  MEMB      393             0.0000000000
     48921       393  QMPE      C211           52.5933377213       55.4227213433       -7.2277245468  MEMB      393             0.0000000000
     48922       393  QMPE      H11R           52.6397239892       55.2836770946       -8.3290128573  MEMB      393             0.0000000000
     48923       393  QMPE      H11S           53.2714814002       56.2704940123       -6.9916647381  MEMB      393             0.0000000000
     48924       393  QMPE      C212           53.0653824364       54.0079467849       -6.7564889881  MEMB      393             0.0000000000
     48925       393  QMPE      H12R           54.1748897803       54.0418629817       -6.7099604496  MEMB      393             0.0000000000
     48926       393  QMPE      H12S           52.7396200075       53.2047006450       -7.4514677877  MEMB      393             0.0000000000
     48927       393  QMPE      C213           52.5845892370       53.6286960666       -5.3580978587  MEMB      393             0.0000000000
     48928       393  QMPE      H13R           51.4995229289       53.3909864066       -5.3792202699  MEMB      393             0.0000000000
     48929       393  QMPE      H13S           52.8891902192       54.3399634799       -4.5608293346  MEMB      393             0.0000000000
     48930       393  QMPE      C214           53.1558340046       52.2763880827       -4.8864488778  MEMB      393             0.0000000000
     48931       393  QMPE      H14R           54.2547434453       52.2628096553       -5.0493417354  MEMB      393             0.0000000000
     48932       393  QMPE      H14S           52.5945236520       51.5267219087       -5.4841541161  MEMB      393             0.0000000000
     48933       393  QMPE      C215           52.9050055665       52.0509034135       -3.4527416132  MEMB      393             0.0000000000
     48934       393  QMPE      H15R           53.2541049503       51.0293141522       -3.1904324872  MEMB      393             0.0000000000
     48935       393  QMPE      H15S           51.8218470496       52.0755576875       -3.2068125826  MEMB      393             0.0000000000
     48936       393  QMPE      C216           53.6198614507       52.9834021181       -2.4865424327  MEMB      393             0.0000000000
     48937       393  QMPE      H16R           54.6772588944       52.9935713535       -2.8273185351  MEMB      393             0.0000000000
     48938       393  QMPE      H16S           53.5505758640       52.5689441693       -1.4580743883  MEMB      393             0.0000000000
     48939       393  QMPE      H16T           53.2191399224       54.0194128876       -2.4659394891  MEMB      393             0.0000000000
     48940       393  QMPE      C33            45.3987938819       46.9121568635      -13.3905582251  MEMB      393             0.0000000000
     48941       393  QMPE      H3X            45.5217716715       45.8126947300      -13.4924435465  MEMB      393             0.0000000000
     48942       393  QMPE      H3Y            44.3371452219       47.1409761752      -13.6247910391  MEMB      393             0.0000000000
     48943       393  QMPE      C34            45.6263177298       47.2037700726      -11.9235871189  MEMB      393             0.0000000000
     48944       393  QMPE      H4X            44.7203970057       47.0499078395      -11.2991230499  MEMB      393             0.0000000000
     48945       393  QMPE      H4Y            45.8418850413       48.2916713577      -11.8578449243  MEMB      393             0.0000000000
     48946       393  QMPE      C35            47.0293875862       46.5548997281      -11.4317614501  MEMB      393             0.0000000000
     48947       393  QMPE      H5X            47.8892482895       46.8636093452      -12.0639472152  MEMB      393             0.0000000000
     48948       393  QMPE      H5Y            46.8745257960       45.4582993571      -11.3434075807  MEMB      393             0.0000000000
     48949       393  QMPE      C36            47.1992695767       47.0833315885      -10.0015705916  MEMB      393             0.0000000000
     48950       393  QMPE      H6X            46.3743555520       46.8100931280       -9.3093432834  MEMB      393             0.0000000000
     48951       393  QMPE      H6Y            47.1841064936       48.1900029734      -10.0983654843  MEMB      393             0.0000000000
     48952       393  QMPE      C37            48.5420825772       46.7888359772       -9.4475732712  MEMB      393             0.0000000000
     48953       393  QMPE      H7X            48.6607941049       45.6843487440       -9.4659413413  MEMB      393             0.0000000000
     48954       393  QMPE      H7Y            49.3447041961       47.2852873263      -10.0337947937  MEMB      393             0.0000000000
     48955       393  QMPE      C38            48.8579318692       47.1241359567       -7.9765010674  MEMB      393             0.0000000000
     48956       393  QMPE      H8X            48.0991250014       46.7132056351       -7.2767369161  MEMB      393             0.0000000000
     48957       393  QMPE      H8Y            49.8686262564       46.7059911066       -7.7816355214  MEMB      393             0.0000000000
     48958       393  QMPE      C39            48.7111646540       48.7147466755       -7.7888621973  MEMB      393             0.0000000000
     48959       393  QMPE      H9X            47.7122950670       49.0509586949       -8.1403473926  MEMB      393             0.0000000000
     48960       393  QMPE      H9Y            49.4971404924       49.0900762700       -8.4785655467  MEMB      393             0.0000000000
     48961       393  QMPE      C310           48.8591509989       49.2307784571       -6.3199164683  MEMB      393             0.0000000000
     48962       393  QMPE      H10X           49.9014334240       49.0373826169       -5.9874013010  MEMB      393             0.0000000000
     48963       393  QMPE      H10Y           48.0003886840       48.8365502995       -5.7355942580  MEMB      393             0.0000000000
     48964       393  QMPE      C311           48.7359169677       50.7669470625       -6.1924585098  MEMB      393             0.0000000000
     48965       393  QMPE      H11X           47.6944942612       51.0107626069       -6.4929810651  MEMB      393             0.0000000000
     48966       393  QMPE      H11Y           49.2718304817       51.2985476906       -7.0076387780  MEMB      393             0.0000000000
     48967       393  QMPE      C312           49.1757433293       51.3133443630       -4.8250995979  MEMB      393             0.0000000000
     48968       393  QMPE      H12X           49.0568416777       52.4127295698       -4.7176995588  MEMB      393             0.0000000000
     48969       393  QMPE      H12Y           50.2120836847       51.1021279369       -4.4849424110  MEMB      393             0.0000000000
     48970       393  QMPE      C313           48.4690104749       50.8118492918       -3.5454907732  MEMB      393             0.0000000000
     48971       393  QMPE      H13X           47.7784939269       51.5645500351       -3.1085122815  MEMB      393             0.0000000000
     48972       393  QMPE      H13Y           47.7404291971       50.0197098496       -3.8211804439  MEMB      393             0.0000000000
     48973       393  QMPE      C314           49.4111780651       50.1002106832       -2.4742526060  MEMB      393             0.0000000000
     48974       393  QMPE      H14X           50.3322615784       50.6868657079       -2.2698988996  MEMB      393             0.0000000000
     48975       393  QMPE      H14Y           49.7205430659       49.1347316242       -2.9286384750  MEMB      393             0.0000000000
     48976       393  QMPE      C315           48.5436805469       49.8688294911       -1.1652299486  MEMB      393             0.0000000000
     48977       393  QMPE      H15X           48.3865599110       50.9272045957       -0.8661076758  MEMB      393             0.0000000000
     48978       393  QMPE      H15Y           47.6720128435       49.2372952650       -1.4403315432  MEMB      393             0.0000000000
     48979       393  QMPE      H15Z           49.2365714733       49.3485896618       -0.4698356256  MEMB      393             0.0000000000
     48980       394  PMPE      N             -41.2117087589      -59.7771908499      -19.2753801055  MEMB      394             0.0000000000
     48981       394  PMPE      HN1           -41.5790651903      -60.2868911038      -20.1041471839  MEMB      394             0.0000000000
     48982       394  PMPE      HN2           -40.1772282400      -59.7102554095      -19.1918958462  MEMB      394             0.0000000000
     48983       394  PMPE      HN3           -41.4985796291      -60.2605313207      -18.4003446305  MEMB      394             0.0000000000
     48984       394  PMPE      C12           -41.8387590079      -58.4260200600      -19.2371842766  MEMB      394             0.0000000000
     48985       394  PMPE      H12A          -42.2848495687      -58.1917644546      -18.2470082884  MEMB      394             0.0000000000
     48986       394  PMPE      H12B          -42.7189746375      -58.5029486083      -19.9107000076  MEMB      394             0.0000000000
     48987       394  PMPE      C11           -40.8474365789      -57.3601129775      -19.6848820627  MEMB      394             0.0000000000
     48988       394  PMPE      H11A          -40.4073275660      -57.7319894624      -20.6347940952  MEMB      394             0.0000000000
     48989       394  PMPE      H11B          -40.0568231064      -57.2689853363      -18.9096742642  MEMB      394             0.0000000000
     48990       394  PMPE      P             -41.6780397179      -55.0480735841      -18.7509038600  MEMB      394             0.0000000000
     48991       394  PMPE      O13           -42.1526694609      -53.7788739141      -19.3138915461  MEMB      394             0.0000000000
     48992       394  PMPE      O14           -40.3217839631      -55.0124513059      -18.1184669917  MEMB      394             0.0000000000
     48993       394  PMPE      O11           -42.7168654120      -55.5839865988      -17.6995229981  MEMB      394             0.0000000000
     48994       394  PMPE      O12           -41.6137634867      -56.1732011176      -19.9197681610  MEMB      394             0.0000000000
     48995       394  PMPE      C1            -44.1051392375      -55.7305894747      -18.0329118724  MEMB      394             0.0000000000
     48996       394  PMPE      HA            -44.2242303096      -56.4058200668      -18.9070983127  MEMB      394             0.0000000000
     48997       394  PMPE      HB            -44.6135318892      -54.8143764867      -18.4022511909  MEMB      394             0.0000000000
     48998       394  PMPE      C2            -44.9162287859      -56.1974520809      -16.7685695968  MEMB      394             0.0000000000
     48999       394  PMPE      HS            -45.9878000628      -56.2241499409      -17.0607063917  MEMB      394             0.0000000000
     49000       394  PMPE      O21           -44.5596806375      -55.4401632177      -15.6733626512  MEMB      394             0.0000000000
     49001       394  PMPE      C21           -44.9877251201      -54.2137423256      -15.6712718580  MEMB      394             0.0000000000
     49002       394  PMPE      O22           -45.9059783392      -53.7949238356      -16.3603414078  MEMB      394             0.0000000000
     49003       394  PMPE      C22           -44.3543989405      -53.4191831178      -14.4771359976  MEMB      394             0.0000000000
     49004       394  PMPE      H2R           -44.8782576409      -52.4656675142      -14.2519663599  MEMB      394             0.0000000000
     49005       394  PMPE      H2S           -43.2828185335      -53.2780589723      -14.7342754553  MEMB      394             0.0000000000
     49006       394  PMPE      C3            -44.7263066769      -57.7264317163      -16.3077152187  MEMB      394             0.0000000000
     49007       394  PMPE      HX            -44.9477649328      -58.3705937481      -17.1854013141  MEMB      394             0.0000000000
     49008       394  PMPE      HY            -45.5126671762      -57.9683786390      -15.5611097188  MEMB      394             0.0000000000
     49009       394  PMPE      O31           -43.4309350999      -57.9110931296      -15.7787109525  MEMB      394             0.0000000000
     49010       394  PMPE      C31           -42.9871729376      -59.1372675685      -15.5539261251  MEMB      394             0.0000000000
     49011       394  PMPE      O32           -43.5987007365      -60.1810447998      -15.7931771709  MEMB      394             0.0000000000
     49012       394  PMPE      C32           -41.6165706864      -59.1388829035      -14.8130170166  MEMB      394             0.0000000000
     49013       394  PMPE      H2X           -40.8634596038      -59.8673604257      -15.1824296521  MEMB      394             0.0000000000
     49014       394  PMPE      H2Y           -41.9618819673      -59.6167691415      -13.8713662504  MEMB      394             0.0000000000
     49015       394  PMPE      C23           -44.4304551070      -54.1999379203      -13.1743789586  MEMB      394             0.0000000000
     49016       394  PMPE      H3R           -43.9150463218      -55.1425104113      -13.4576313642  MEMB      394             0.0000000000
     49017       394  PMPE      H3S           -45.4781872533      -54.3847939726      -12.8543688275  MEMB      394             0.0000000000
     49018       394  PMPE      C24           -43.4467712038      -53.7022376334      -12.1367738717  MEMB      394             0.0000000000
     49019       394  PMPE      H4R           -44.1517296092      -52.9637932440      -11.6985338419  MEMB      394             0.0000000000
     49020       394  PMPE      H4S           -42.5846163545      -53.2644758758      -12.6839252672  MEMB      394             0.0000000000
     49021       394  PMPE      C25           -42.9797633314      -54.6275564448      -11.0276008803  MEMB      394             0.0000000000
     49022       394  PMPE      H5R           -42.1547014863      -54.1798265046      -10.4333512901  MEMB      394             0.0000000000
     49023       394  PMPE      H5S           -42.5133076383      -55.5372065951      -11.4626603824  MEMB      394             0.0000000000
     49024       394  PMPE      C26           -44.1121339222      -54.8942209818      -10.0299698294  MEMB      394             0.0000000000
     49025       394  PMPE      H6R           -43.8675557714      -55.7662485053       -9.3864867997  MEMB      394             0.0000000000
     49026       394  PMPE      H6S           -45.0177309891      -55.1868771318      -10.6031777586  MEMB      394             0.0000000000
     49027       394  PMPE      C27           -44.4393385490      -53.6544928214       -9.0965941964  MEMB      394             0.0000000000
     49028       394  PMPE      H7R           -45.2784785374      -54.0655191791       -8.4955765701  MEMB      394             0.0000000000
     49029       394  PMPE      H7S           -44.8483111284      -52.8364413304       -9.7273507672  MEMB      394             0.0000000000
     49030       394  PMPE      C28           -43.4782839863      -53.3401391447       -8.0045351275  MEMB      394             0.0000000000
     49031       394  PMPE      H8R           -42.5379320577      -52.9538956467       -8.4527260989  MEMB      394             0.0000000000
     49032       394  PMPE      H8S           -43.2643296406      -54.2718544532       -7.4384509267  MEMB      394             0.0000000000
     49033       394  PMPE      C29           -44.2258676641      -52.3401856301       -7.1221491078  MEMB      394             0.0000000000
     49034       394  PMPE      H9R           -45.3188706955      -52.5361104826       -7.1579070800  MEMB      394             0.0000000000
     49035       394  PMPE      C217          -44.1826119734      -50.8959096133       -7.5818954217  MEMB      394             0.0000000000
     49036       394  PMPE      H17R          -45.1340152051      -50.3931382432       -7.4596587135  MEMB      394             0.0000000000
     49037       394  PMPE      H17S          -43.5375594580      -50.8460582294       -8.4504063117  MEMB      394             0.0000000000
     49038       394  PMPE      C210          -43.5553223924      -51.3299987300       -6.2504840187  MEMB      394             0.0000000000
     49039       394  PMPE      H10R          -44.0872754407      -51.2524399905       -5.2782026223  MEMB      394             0.0000000000
     49040       394  PMPE      C211          -42.0022983111      -51.4163512125       -6.0906344185  MEMB      394             0.0000000000
     49041       394  PMPE      H11R          -41.6454730779      -50.6281830634       -5.3936491322  MEMB      394             0.0000000000
     49042       394  PMPE      H11S          -41.4804499178      -51.3112016668       -7.0657949610  MEMB      394             0.0000000000
     49043       394  PMPE      C212          -41.5607915301      -52.7729577333       -5.4385013333  MEMB      394             0.0000000000
     49044       394  PMPE      H12R          -40.4551303518      -52.8220837843       -5.5355632043  MEMB      394             0.0000000000
     49045       394  PMPE      H12S          -42.1075738234      -53.5236154566       -6.0483073275  MEMB      394             0.0000000000
     49046       394  PMPE      C213          -41.8377654036      -52.9337824188       -3.9530942096  MEMB      394             0.0000000000
     49047       394  PMPE      H13R          -41.4667759535      -53.9462778355       -3.6856229438  MEMB      394             0.0000000000
     49048       394  PMPE      H13S          -42.9257390185      -52.8758359763       -3.7356632456  MEMB      394             0.0000000000
     49049       394  PMPE      C214          -41.0380468198      -51.9927489318       -3.1005952863  MEMB      394             0.0000000000
     49050       394  PMPE      H14R          -40.0983941426      -51.8504162197       -3.6760209054  MEMB      394             0.0000000000
     49051       394  PMPE      H14S          -40.8731002644      -52.4832215268       -2.1174617437  MEMB      394             0.0000000000
     49052       394  PMPE      C215          -41.6326903917      -50.6295102838       -2.7755703143  MEMB      394             0.0000000000
     49053       394  PMPE      H15R          -42.4164260917      -50.8720575797       -2.0264037141  MEMB      394             0.0000000000
     49054       394  PMPE      H15S          -42.1593834665      -50.1191686996       -3.6101154136  MEMB      394             0.0000000000
     49055       394  PMPE      C216          -40.5568924007      -49.7709717924       -2.1060421701  MEMB      394             0.0000000000
     49056       394  PMPE      H16R          -39.7849741233      -49.3709483919       -2.7977379138  MEMB      394             0.0000000000
     49057       394  PMPE      H16S          -41.0582863665      -48.9296531088       -1.5815343917  MEMB      394             0.0000000000
     49058       394  PMPE      H16T          -40.0073327251      -50.4024735565       -1.3756238486  MEMB      394             0.0000000000
     49059       394  PMPE      C33           -41.0139698328      -57.7173435327      -14.8949152843  MEMB      394             0.0000000000
     49060       394  PMPE      H3X           -41.4957412040      -56.9971102203      -15.5902433789  MEMB      394             0.0000000000
     49061       394  PMPE      H3Y           -39.9743244548      -57.8122957740      -15.2749711509  MEMB      394             0.0000000000
     49062       394  PMPE      C34           -40.8365238606      -56.9780416619      -13.5023619386  MEMB      394             0.0000000000
     49063       394  PMPE      H4X           -41.8636898498      -56.9280330874      -13.0819449641  MEMB      394             0.0000000000
     49064       394  PMPE      H4Y           -40.5680571229      -55.9158548735      -13.6867687500  MEMB      394             0.0000000000
     49065       394  PMPE      C35           -39.8521765302      -57.6630287915      -12.6637792753  MEMB      394             0.0000000000
     49066       394  PMPE      H5X           -38.8576207442      -57.5557228759      -13.1471684501  MEMB      394             0.0000000000
     49067       394  PMPE      H5Y           -40.0972227101      -58.7366715401      -12.8106281600  MEMB      394             0.0000000000
     49068       394  PMPE      C36           -39.6903411321      -57.2880300586      -11.1691546114  MEMB      394             0.0000000000
     49069       394  PMPE      H6X           -39.8861107391      -56.1944561617      -11.1596060575  MEMB      394             0.0000000000
     49070       394  PMPE      H6Y           -38.6343195224      -57.5035591908      -10.8995495596  MEMB      394             0.0000000000
     49071       394  PMPE      C37           -40.8080375867      -57.8529287063      -10.2002923857  MEMB      394             0.0000000000
     49072       394  PMPE      H7X           -40.7894454809      -58.9268433210      -10.4843396315  MEMB      394             0.0000000000
     49073       394  PMPE      H7Y           -41.6831105193      -57.4042608821      -10.7172690785  MEMB      394             0.0000000000
     49074       394  PMPE      C38           -40.8096108967      -57.4151830317       -8.6942492608  MEMB      394             0.0000000000
     49075       394  PMPE      H8X           -40.0048039332      -57.9193976960       -8.1177305372  MEMB      394             0.0000000000
     49076       394  PMPE      H8Y           -41.7422115593      -57.7839070774       -8.2161069271  MEMB      394             0.0000000000
     49077       394  PMPE      C39           -40.6889324949      -55.9367395357       -8.4226384794  MEMB      394             0.0000000000
     49078       394  PMPE      H9X           -41.6981397181      -55.5004116485       -8.2631407146  MEMB      394             0.0000000000
     49079       394  PMPE      H9Y           -40.1769956502      -55.4161191045       -9.2600131386  MEMB      394             0.0000000000
     49080       394  PMPE      C310          -39.7081583445      -55.6110653674       -7.2032903493  MEMB      394             0.0000000000
     49081       394  PMPE      H10X          -39.6854357093      -54.5098941383       -7.0575963782  MEMB      394             0.0000000000
     49082       394  PMPE      H10Y          -38.6813321987      -55.9142408501       -7.4999952955  MEMB      394             0.0000000000
     49083       394  PMPE      C311          -40.0306460895      -56.2600142731       -5.8367230847  MEMB      394             0.0000000000
     49084       394  PMPE      H11X          -41.1255628427      -56.1645448493       -5.6743545878  MEMB      394             0.0000000000
     49085       394  PMPE      H11Y          -39.5492071093      -55.5672859351       -5.1137682176  MEMB      394             0.0000000000
     49086       394  PMPE      C312          -39.5507438815      -57.7192996316       -5.4519873793  MEMB      394             0.0000000000
     49087       394  PMPE      H12X          -38.5223612031      -57.9526604244       -5.8016912993  MEMB      394             0.0000000000
     49088       394  PMPE      H12Y          -40.1917578433      -58.4970541588       -5.9194476953  MEMB      394             0.0000000000
     49089       394  PMPE      C313          -39.7384180496      -58.0696698896       -3.9366190668  MEMB      394             0.0000000000
     49090       394  PMPE      H13X          -38.9578810646      -57.7099334261       -3.2325788074  MEMB      394             0.0000000000
     49091       394  PMPE      H13Y          -39.7322895592      -59.1664554278       -3.7595740666  MEMB      394             0.0000000000
     49092       394  PMPE      C314          -41.0474125144      -57.4987858561       -3.3867149187  MEMB      394             0.0000000000
     49093       394  PMPE      H14X          -41.8740167732      -57.7313718819       -4.0916624409  MEMB      394             0.0000000000
     49094       394  PMPE      H14Y          -41.0067358666      -56.3916817692       -3.4703010824  MEMB      394             0.0000000000
     49095       394  PMPE      C315          -41.3307263201      -57.9309697880       -1.9315912135  MEMB      394             0.0000000000
     49096       394  PMPE      H15X          -40.5337790474      -57.4991105897       -1.2891795916  MEMB      394             0.0000000000
     49097       394  PMPE      H15Y          -41.1740086777      -59.0240713860       -1.8095684292  MEMB      394             0.0000000000
     49098       394  PMPE      C316          -42.6396770206      -57.4844961017       -1.3861398316  MEMB      394             0.0000000000
     49099       394  PMPE      H16X          -42.7126118814      -57.7898727391       -0.3204260314  MEMB      394             0.0000000000
     49100       394  PMPE      H16Y          -43.5401439170      -57.8063049832       -1.9517540397  MEMB      394             0.0000000000
     49101       394  PMPE      H16Z          -42.8047572439      -56.3923794582       -1.5059340539  MEMB      394             0.0000000000
     49102       395  QMPE      N              47.3631265977       53.3048472843      -22.3228340484  MEMB      395             0.0000000000
     49103       395  QMPE      HN1            46.4526032384       52.8199504288      -22.4548272448  MEMB      395             0.0000000000
     49104       395  QMPE      HN2            47.3457515206       54.2152360203      -22.8253183235  MEMB      395             0.0000000000
     49105       395  QMPE      HN3            48.1545724198       52.8125593057      -22.7842076692  MEMB      395             0.0000000000
     49106       395  QMPE      C12            47.4610876931       53.5195863717      -20.8126573973  MEMB      395             0.0000000000
     49107       395  QMPE      H12A           48.3315210921       54.1921026478      -20.6564893062  MEMB      395             0.0000000000
     49108       395  QMPE      H12B           47.7028568063       52.5701681806      -20.2887548179  MEMB      395             0.0000000000
     49109       395  QMPE      C11            46.2913891600       54.3338520168      -20.1747505442  MEMB      395             0.0000000000
     49110       395  QMPE      H11A           45.2618666805       54.0503315907      -20.4813784146  MEMB      395             0.0000000000
     49111       395  QMPE      H11B           46.3664394381       55.4051114052      -20.4595168384  MEMB      395             0.0000000000
     49112       395  QMPE      P              45.2589789933       54.8232362372      -17.7242138027  MEMB      395             0.0000000000
     49113       395  QMPE      O13            44.6328486738       53.7451654473      -16.9698038152  MEMB      395             0.0000000000
     49114       395  QMPE      O14            44.3162594307       55.6727881902      -18.5094511667  MEMB      395             0.0000000000
     49115       395  QMPE      O11            46.0282012992       55.6757257106      -16.7179672115  MEMB      395             0.0000000000
     49116       395  QMPE      O12            46.4240985329       54.3361763422      -18.7683220129  MEMB      395             0.0000000000
     49117       395  QMPE      C1             46.9303818843       56.7209246896      -17.1134695935  MEMB      395             0.0000000000
     49118       395  QMPE      HA             46.4103960464       57.6015586822      -17.5475427429  MEMB      395             0.0000000000
     49119       395  QMPE      HB             47.5534322140       56.3422891729      -17.9517800641  MEMB      395             0.0000000000
     49120       395  QMPE      C2             47.8344833967       57.3617792649      -16.0598931524  MEMB      395             0.0000000000
     49121       395  QMPE      HS             48.3609975651       58.1760535347      -16.6021672912  MEMB      395             0.0000000000
     49122       395  QMPE      O21            48.7213901053       56.2705391022      -15.6098355461  MEMB      395             0.0000000000
     49123       395  QMPE      C21            49.7010892814       56.0153429012      -16.4987532182  MEMB      395             0.0000000000
     49124       395  QMPE      O22            49.9074250335       56.5396232721      -17.5755781978  MEMB      395             0.0000000000
     49125       395  QMPE      C22            50.6474819980       55.1513609520      -15.8281616021  MEMB      395             0.0000000000
     49126       395  QMPE      H2R            51.5442093556       54.9751420795      -16.4599431560  MEMB      395             0.0000000000
     49127       395  QMPE      H2S            50.1989779557       54.1476130776      -15.6679895946  MEMB      395             0.0000000000
     49128       395  QMPE      C3             47.1301579111       58.0094219782      -14.8473014865  MEMB      395             0.0000000000
     49129       395  QMPE      HX             46.6133953372       58.9358425043      -15.1774868926  MEMB      395             0.0000000000
     49130       395  QMPE      HY             47.8914229489       58.4129422348      -14.1458972220  MEMB      395             0.0000000000
     49131       395  QMPE      O31            46.3700344463       57.0072365508      -14.2188461453  MEMB      395             0.0000000000
     49132       395  QMPE      C31            46.3993317971       56.7691716085      -12.8282955648  MEMB      395             0.0000000000
     49133       395  QMPE      O32            46.7292339059       57.5801425854      -12.0108333649  MEMB      395             0.0000000000
     49134       395  QMPE      C32            45.9529759446       55.3265676312      -12.6568638470  MEMB      395             0.0000000000
     49135       395  QMPE      H2X            45.0135316217       55.1741709985      -13.2300485004  MEMB      395             0.0000000000
     49136       395  QMPE      H2Y            46.7277312716       54.5943591389      -12.9698268415  MEMB      395             0.0000000000
     49137       395  QMPE      C23            51.1920573066       55.7752594902      -14.4222511725  MEMB      395             0.0000000000
     49138       395  QMPE      H3R            51.0039083004       56.8681020735      -14.3543110660  MEMB      395             0.0000000000
     49139       395  QMPE      H3S            52.2824943829       55.5666720667      -14.3803062047  MEMB      395             0.0000000000
     49140       395  QMPE      C24            50.5144093289       55.0951808457      -13.2128215517  MEMB      395             0.0000000000
     49141       395  QMPE      H4R            50.0551010804       54.1096593327      -13.4410855005  MEMB      395             0.0000000000
     49142       395  QMPE      H4S            49.6505086525       55.7241581619      -12.9088738498  MEMB      395             0.0000000000
     49143       395  QMPE      C25            51.4670520512       55.1427422238      -12.0171175860  MEMB      395             0.0000000000
     49144       395  QMPE      H5R            52.0594193378       56.0800569364      -12.0868543000  MEMB      395             0.0000000000
     49145       395  QMPE      H5S            52.1443381746       54.2621024913      -12.0083051691  MEMB      395             0.0000000000
     49146       395  QMPE      C26            50.6688984090       55.3001630133      -10.6746827359  MEMB      395             0.0000000000
     49147       395  QMPE      H6R            50.0587442158       54.3727586758      -10.6304752051  MEMB      395             0.0000000000
     49148       395  QMPE      H6S            49.9312137239       56.1309048785      -10.6715331195  MEMB      395             0.0000000000
     49149       395  QMPE      C27            51.6698260555       55.4198316039       -9.4453400433  MEMB      395             0.0000000000
     49150       395  QMPE      H7R            52.3581217575       56.2421225949       -9.7358707413  MEMB      395             0.0000000000
     49151       395  QMPE      H7S            52.3582298098       54.5547458743       -9.5551022565  MEMB      395             0.0000000000
     49152       395  QMPE      C28            51.2093910340       55.7150627567       -8.0321706403  MEMB      395             0.0000000000
     49153       395  QMPE      H8R            52.1021792088       55.9516344459       -7.4146889006  MEMB      395             0.0000000000
     49154       395  QMPE      H8S            50.7354587537       54.8543923751       -7.5135609230  MEMB      395             0.0000000000
     49155       395  QMPE      C29            50.1276232125       56.8220683273       -7.9667548936  MEMB      395             0.0000000000
     49156       395  QMPE      H9R            49.1608418273       56.7652243596       -8.5112026890  MEMB      395             0.0000000000
     49157       395  QMPE      C217           50.7284381305       58.2560922348       -8.0638745782  MEMB      395             0.0000000000
     49158       395  QMPE      H17R           51.8109206379       58.2305168039       -8.0422722504  MEMB      395             0.0000000000
     49159       395  QMPE      H17S           50.1952827173       58.9548843191       -8.6965857539  MEMB      395             0.0000000000
     49160       395  QMPE      C210           50.0403459971       57.7788683485       -6.8514114156  MEMB      395             0.0000000000
     49161       395  QMPE      H10R           48.9848456574       58.1127216687       -6.7577004206  MEMB      395             0.0000000000
     49162       395  QMPE      C211           50.8270454402       57.6743997723       -5.5801531186  MEMB      395             0.0000000000
     49163       395  QMPE      H11R           51.9225962655       57.5442440645       -5.7111069458  MEMB      395             0.0000000000
     49164       395  QMPE      H11S           50.6028453312       58.6116558041       -5.0273354634  MEMB      395             0.0000000000
     49165       395  QMPE      C212           50.3391216380       56.5495295999       -4.7322509537  MEMB      395             0.0000000000
     49166       395  QMPE      H12R           50.4163855400       55.5869097223       -5.2815360355  MEMB      395             0.0000000000
     49167       395  QMPE      H12S           49.2585986234       56.7491168269       -4.5680684139  MEMB      395             0.0000000000
     49168       395  QMPE      C213           50.9628285783       56.4992804044       -3.3854403249  MEMB      395             0.0000000000
     49169       395  QMPE      H13R           50.1419028505       56.1724180662       -2.7119687849  MEMB      395             0.0000000000
     49170       395  QMPE      H13S           51.2564983745       57.5259933135       -3.0789438715  MEMB      395             0.0000000000
     49171       395  QMPE      C214           52.1652939554       55.5399491611       -3.4950984429  MEMB      395             0.0000000000
     49172       395  QMPE      H14R           53.0107678973       56.2544363077       -3.5899806996  MEMB      395             0.0000000000
     49173       395  QMPE      H14S           52.2213909267       54.9637934794       -4.4433705230  MEMB      395             0.0000000000
     49174       395  QMPE      C215           52.3321974496       54.6538439202       -2.2678497971  MEMB      395             0.0000000000
     49175       395  QMPE      H15R           53.2810165405       54.0773355868       -2.3090972449  MEMB      395             0.0000000000
     49176       395  QMPE      H15S           51.6049755465       53.8493824944       -2.5093283468  MEMB      395             0.0000000000
     49177       395  QMPE      C216           52.1118492804       55.2745261017       -0.9028650003  MEMB      395             0.0000000000
     49178       395  QMPE      H16R           51.2137611410       55.9074170501       -0.7379160950  MEMB      395             0.0000000000
     49179       395  QMPE      H16S           52.9957786639       55.9472051936       -0.8806646095  MEMB      395             0.0000000000
     49180       395  QMPE      H16T           52.2530184789       54.5279400471       -0.0923082831  MEMB      395             0.0000000000
     49181       395  QMPE      C33            45.6343621359       55.0204734174      -11.1254136462  MEMB      395             0.0000000000
     49182       395  QMPE      H3X            44.6230554300       54.5605611877      -11.1331780935  MEMB      395             0.0000000000
     49183       395  QMPE      H3Y            45.4769846009       56.0060124325      -10.6372881307  MEMB      395             0.0000000000
     49184       395  QMPE      C34            46.6598677862       54.1667387885      -10.3431447596  MEMB      395             0.0000000000
     49185       395  QMPE      H4X            47.6918800586       54.5143568383      -10.5632204303  MEMB      395             0.0000000000
     49186       395  QMPE      H4Y            46.5857248252       53.0952217707      -10.6271784327  MEMB      395             0.0000000000
     49187       395  QMPE      C35            46.3594889281       54.3592065605       -8.8150304860  MEMB      395             0.0000000000
     49188       395  QMPE      H5X            45.4783373507       53.7117086578       -8.6184619143  MEMB      395             0.0000000000
     49189       395  QMPE      H5Y            45.9350649041       55.3786975119       -8.6932786271  MEMB      395             0.0000000000
     49190       395  QMPE      C36            47.5222358971       54.0841472229       -7.9143992652  MEMB      395             0.0000000000
     49191       395  QMPE      H6X            47.2467564912       54.2633388224       -6.8531166028  MEMB      395             0.0000000000
     49192       395  QMPE      H6Y            48.3457394776       54.8050501933       -8.1053489341  MEMB      395             0.0000000000
     49193       395  QMPE      C37            48.0895829977       52.6713278855       -8.0177121707  MEMB      395             0.0000000000
     49194       395  QMPE      H7X            47.2528577504       51.9515816278       -7.8905222298  MEMB      395             0.0000000000
     49195       395  QMPE      H7Y            48.5223195073       52.7209446113       -9.0397680159  MEMB      395             0.0000000000
     49196       395  QMPE      C38            49.2213271414       52.3897745526       -7.0744381528  MEMB      395             0.0000000000
     49197       395  QMPE      H8X            49.3143314862       51.2827024526       -7.0823501479  MEMB      395             0.0000000000
     49198       395  QMPE      H8Y            50.1494116589       52.7852069534       -7.5398556763  MEMB      395             0.0000000000
     49199       395  QMPE      C39            49.0977595673       52.9463651101       -5.6150534158  MEMB      395             0.0000000000
     49200       395  QMPE      H9X            48.6205266500       53.9395658283       -5.4732011470  MEMB      395             0.0000000000
     49201       395  QMPE      H9Y            50.0428371471       52.9097242900       -5.0321231735  MEMB      395             0.0000000000
     49202       395  QMPE      C310           48.1220246965       52.1093568677       -4.7514981261  MEMB      395             0.0000000000
     49203       395  QMPE      H10X           48.3473171188       51.0387634226       -4.9448734902  MEMB      395             0.0000000000
     49204       395  QMPE      H10Y           47.0692484603       52.1522850300       -5.1038333275  MEMB      395             0.0000000000
     49205       395  QMPE      C311           48.2033035925       52.4635508413       -3.3016821744  MEMB      395             0.0000000000
     49206       395  QMPE      H11X           49.2598223100       52.6382178570       -3.0057406759  MEMB      395             0.0000000000
     49207       395  QMPE      H11Y           47.7529397732       51.6190879830       -2.7374348057  MEMB      395             0.0000000000
     49208       395  QMPE      C312           47.5526980854       53.7868436033       -2.8821587447  MEMB      395             0.0000000000
     49209       395  QMPE      H12X           46.5910585489       53.9502557310       -3.4140114548  MEMB      395             0.0000000000
     49210       395  QMPE      H12Y           48.3129572835       54.5016643218       -3.2634176386  MEMB      395             0.0000000000
     49211       395  QMPE      C313           47.3694906217       54.0070837667       -1.3687113722  MEMB      395             0.0000000000
     49212       395  QMPE      H13X           48.3313165064       54.0533560863       -0.8145723044  MEMB      395             0.0000000000
     49213       395  QMPE      H13Y           46.8161626534       54.9574616246       -1.2108153899  MEMB      395             0.0000000000
     49214       395  QMPE      C314           46.4857176303       52.9370989366       -0.6918642486  MEMB      395             0.0000000000
     49215       395  QMPE      H14X           46.9862930756       51.9510693328       -0.7990605836  MEMB      395             0.0000000000
     49216       395  QMPE      H14Y           45.5297215294       52.7564672471       -1.2283009291  MEMB      395             0.0000000000
     49217       395  QMPE      C315           46.2260361487       53.2249237932        0.7624828438  MEMB      395             0.0000000000
     49218       395  QMPE      H15X           47.1056983284       53.2792371584        1.4389183215  MEMB      395             0.0000000000
     49219       395  QMPE      H15Y           45.6643020731       54.1563845517        0.9886613385  MEMB      395             0.0000000000
     49220       395  QMPE      H15Z           45.6400618786       52.3561179534        1.1314437972  MEMB      395             0.0000000000
     49221       396  QMPE      N              47.3825872619      -49.0979122621      -19.1527487729  MEMB      396             0.0000000000
     49222       396  QMPE      HN1            46.4021525628      -49.4044386378      -18.9903014652  MEMB      396             0.0000000000
     49223       396  QMPE      HN2            47.8773469219      -49.1165745044      -18.2381643261  MEMB      396             0.0000000000
     49224       396  QMPE      HN3            47.5205033201      -48.1427859918      -19.5404509254  MEMB      396             0.0000000000
     49225       396  QMPE      C12            47.8659602713      -50.2484762282      -20.0968697111  MEMB      396             0.0000000000
     49226       396  QMPE      H12A           48.6199833483      -49.6989094503      -20.6999837021  MEMB      396             0.0000000000
     49227       396  QMPE      H12B           46.9566548835      -50.5582529074      -20.6550123836  MEMB      396             0.0000000000
     49228       396  QMPE      C11            48.5263758057      -51.3927524609      -19.2876868241  MEMB      396             0.0000000000
     49229       396  QMPE      H11A           48.7977827729      -52.2562603578      -19.9319021709  MEMB      396             0.0000000000
     49230       396  QMPE      H11B           47.6475913145      -51.8020812610      -18.7450001420  MEMB      396             0.0000000000
     49231       396  QMPE      P              50.9949661716      -51.3426778465      -18.8159991112  MEMB      396             0.0000000000
     49232       396  QMPE      O13            51.5173324446      -50.3128154817      -19.7169623238  MEMB      396             0.0000000000
     49233       396  QMPE      O14            51.1557871040      -52.8463294674      -19.1139817805  MEMB      396             0.0000000000
     49234       396  QMPE      O11            51.7387350962      -51.1454381108      -17.4021543576  MEMB      396             0.0000000000
     49235       396  QMPE      O12            49.5216798489      -50.9674205469      -18.4135971158  MEMB      396             0.0000000000
     49236       396  QMPE      C1             51.0927702240      -50.6145800405      -16.2610922711  MEMB      396             0.0000000000
     49237       396  QMPE      HA             50.2702775724      -51.2420820775      -15.8560391463  MEMB      396             0.0000000000
     49238       396  QMPE      HB             50.5365910118      -49.6841870390      -16.5047202565  MEMB      396             0.0000000000
     49239       396  QMPE      C2             52.0840770805      -50.4457641198      -15.0800943486  MEMB      396             0.0000000000
     49240       396  QMPE      HS             52.9884407380      -49.9461871350      -15.4885920012  MEMB      396             0.0000000000
     49241       396  QMPE      O21            52.3281443525      -51.7755529500      -14.5991424344  MEMB      396             0.0000000000
     49242       396  QMPE      C21            53.3578474255      -51.7462080424      -13.8370428694  MEMB      396             0.0000000000
     49243       396  QMPE      O22            54.1617555141      -50.8517922595      -13.6695282354  MEMB      396             0.0000000000
     49244       396  QMPE      C22            53.4007764018      -53.1392736521      -13.1797412372  MEMB      396             0.0000000000
     49245       396  QMPE      H2R            53.4810079500      -53.9887005276      -13.8913296440  MEMB      396             0.0000000000
     49246       396  QMPE      H2S            52.4578303841      -53.3009557035      -12.6149116598  MEMB      396             0.0000000000
     49247       396  QMPE      C3             51.5003553480      -49.6332118008      -13.8606762132  MEMB      396             0.0000000000
     49248       396  QMPE      HX             51.2873622812      -48.6358043909      -14.3012823087  MEMB      396             0.0000000000
     49249       396  QMPE      HY             52.2059409164      -49.4492924924      -13.0224380932  MEMB      396             0.0000000000
     49250       396  QMPE      O31            50.3204656943      -50.2725792318      -13.3765513348  MEMB      396             0.0000000000
     49251       396  QMPE      C31            49.2821464521      -49.4931413646      -13.0021643268  MEMB      396             0.0000000000
     49252       396  QMPE      O32            49.2729648553      -48.3033881774      -12.9063526832  MEMB      396             0.0000000000
     49253       396  QMPE      C32            48.1399861012      -50.3696257128      -12.7745708621  MEMB      396             0.0000000000
     49254       396  QMPE      H2X            47.2514251313      -49.8001261593      -12.4275107534  MEMB      396             0.0000000000
     49255       396  QMPE      H2Y            47.7531440109      -50.8786095736      -13.6832017571  MEMB      396             0.0000000000
     49256       396  QMPE      C23            54.4879686019      -53.1006083873      -12.1037150465  MEMB      396             0.0000000000
     49257       396  QMPE      H3R            54.3919036304      -52.1646326430      -11.5129171651  MEMB      396             0.0000000000
     49258       396  QMPE      H3S            55.5455596442      -53.1114574470      -12.4438688515  MEMB      396             0.0000000000
     49259       396  QMPE      C24            54.3600654829      -54.3189572275      -11.0907830723  MEMB      396             0.0000000000
     49260       396  QMPE      H4R            55.3046372827      -54.2312533337      -10.5124983065  MEMB      396             0.0000000000
     49261       396  QMPE      H4S            54.4010626645      -55.3099017077      -11.5914520462  MEMB      396             0.0000000000
     49262       396  QMPE      C25            53.1135464117      -54.1659103046      -10.2526224561  MEMB      396             0.0000000000
     49263       396  QMPE      H5R            52.2668630375      -54.3298081453      -10.9530411324  MEMB      396             0.0000000000
     49264       396  QMPE      H5S            53.1706247185      -53.1565320458       -9.7919505619  MEMB      396             0.0000000000
     49265       396  QMPE      C26            53.1701601654      -55.1868702676       -9.0535697464  MEMB      396             0.0000000000
     49266       396  QMPE      H6R            53.4875140305      -56.1390814346       -9.5299113865  MEMB      396             0.0000000000
     49267       396  QMPE      H6S            52.1417438791      -55.3612659791       -8.6711206976  MEMB      396             0.0000000000
     49268       396  QMPE      C27            54.1407148164      -54.7832084224       -7.9965861153  MEMB      396             0.0000000000
     49269       396  QMPE      H7R            54.1320583468      -53.7070143994       -7.7208099223  MEMB      396             0.0000000000
     49270       396  QMPE      H7S            55.1982936640      -54.9568264648       -8.2893394399  MEMB      396             0.0000000000
     49271       396  QMPE      C28            54.1053264611      -55.6277059467       -6.6407149913  MEMB      396             0.0000000000
     49272       396  QMPE      H8R            53.0728774924      -55.5187005462       -6.2451301246  MEMB      396             0.0000000000
     49273       396  QMPE      H8S            54.8437789642      -55.1955273745       -5.9320332877  MEMB      396             0.0000000000
     49274       396  QMPE      C29            54.4383533716      -57.0625352063       -6.9053457888  MEMB      396             0.0000000000
     49275       396  QMPE      H9R            54.9098087068      -57.3096739957       -7.8805246113  MEMB      396             0.0000000000
     49276       396  QMPE      C217           53.4076987123      -58.0478604810       -6.3492784165  MEMB      396             0.0000000000
     49277       396  QMPE      H17R           52.7483270617      -57.5157841520       -5.6747315494  MEMB      396             0.0000000000
     49278       396  QMPE      H17S           53.1176239661      -58.8115920211       -7.0602356081  MEMB      396             0.0000000000
     49279       396  QMPE      C210           54.8549217909      -58.0059519874       -5.7598067199  MEMB      396             0.0000000000
     49280       396  QMPE      H10R           55.5778345131      -58.7985969170       -6.0486534432  MEMB      396             0.0000000000
     49281       396  QMPE      C211           54.9870923523      -57.3993367788       -4.3063931782  MEMB      396             0.0000000000
     49282       396  QMPE      H11R           55.9640860535      -56.8767515658       -4.2244863278  MEMB      396             0.0000000000
     49283       396  QMPE      H11S           54.2336712153      -56.5859845438       -4.2347304712  MEMB      396             0.0000000000
     49284       396  QMPE      C212           54.8582554769      -58.5365707484       -3.3042756397  MEMB      396             0.0000000000
     49285       396  QMPE      H12R           55.6426831944      -59.2934521902       -3.5190418884  MEMB      396             0.0000000000
     49286       396  QMPE      H12S           53.8978668998      -59.0665081717       -3.4807453780  MEMB      396             0.0000000000
     49287       396  QMPE      C213           55.0279121231      -58.0386128517       -1.8677042236  MEMB      396             0.0000000000
     49288       396  QMPE      H13R           55.8719189129      -57.3167585230       -1.8377102897  MEMB      396             0.0000000000
     49289       396  QMPE      H13S           55.3384005161      -58.7932726093       -1.1137761175  MEMB      396             0.0000000000
     49290       396  QMPE      C214           53.6895516508      -57.3595280569       -1.4164985503  MEMB      396             0.0000000000
     49291       396  QMPE      H14R           53.0262477819      -58.2097391969       -1.1491219523  MEMB      396             0.0000000000
     49292       396  QMPE      H14S           53.3729776028      -56.7623325939       -2.2982346815  MEMB      396             0.0000000000
     49293       396  QMPE      C215           53.8270537745      -56.4234281038       -0.1785390456  MEMB      396             0.0000000000
     49294       396  QMPE      H15R           54.0444443842      -57.0512565998        0.7119073925  MEMB      396             0.0000000000
     49295       396  QMPE      H15S           52.8339339831      -55.9637031593        0.0130000279  MEMB      396             0.0000000000
     49296       396  QMPE      C216           54.7985847919      -55.1990298115       -0.3140108716  MEMB      396             0.0000000000
     49297       396  QMPE      H16R           55.8371182474      -55.5856153937       -0.2345069133  MEMB      396             0.0000000000
     49298       396  QMPE      H16S           54.8121366414      -54.4497725332        0.5062019774  MEMB      396             0.0000000000
     49299       396  QMPE      H16T           54.4914577481      -54.7274518339       -1.2719305444  MEMB      396             0.0000000000
     49300       396  QMPE      C33            48.3720600487      -51.4911225734      -11.7721040580  MEMB      396             0.0000000000
     49301       396  QMPE      H3X            49.4740166301      -51.6129980649      -11.7002803554  MEMB      396             0.0000000000
     49302       396  QMPE      H3Y            47.9067186006      -52.3419503779      -12.3142025941  MEMB      396             0.0000000000
     49303       396  QMPE      C34            47.7964928560      -51.2604716030      -10.3931307273  MEMB      396             0.0000000000
     49304       396  QMPE      H4X            47.9786065575      -52.2086847437       -9.8435421993  MEMB      396             0.0000000000
     49305       396  QMPE      H4Y            46.7236662516      -50.9751263383      -10.4371974333  MEMB      396             0.0000000000
     49306       396  QMPE      C35            48.5176611014      -50.0841858860       -9.6502076398  MEMB      396             0.0000000000
     49307       396  QMPE      H5X            48.1945877581      -50.1457120282       -8.5890015010  MEMB      396             0.0000000000
     49308       396  QMPE      H5Y            48.1505073090      -49.1436365045      -10.1137664131  MEMB      396             0.0000000000
     49309       396  QMPE      C36            50.0639995565      -50.0707231227       -9.5713132656  MEMB      396             0.0000000000
     49310       396  QMPE      H6X            50.4203944781      -50.0198916172      -10.6223695569  MEMB      396             0.0000000000
     49311       396  QMPE      H6Y            50.4082015606      -51.0105378613       -9.0890321020  MEMB      396             0.0000000000
     49312       396  QMPE      C37            50.6320424817      -48.8159609506       -8.9130059308  MEMB      396             0.0000000000
     49313       396  QMPE      H7X            50.2538586576      -47.8721926094       -9.3608876719  MEMB      396             0.0000000000
     49314       396  QMPE      H7Y            50.1026835931      -48.8080785098       -7.9362563778  MEMB      396             0.0000000000
     49315       396  QMPE      C38            52.1394137374      -48.8132598620       -8.5883349507  MEMB      396             0.0000000000
     49316       396  QMPE      H8X            52.6386879190      -48.8245676321       -9.5807653522  MEMB      396             0.0000000000
     49317       396  QMPE      H8Y            52.5608509450      -47.9371589972       -8.0506009952  MEMB      396             0.0000000000
     49318       396  QMPE      C39            52.4540956393      -50.0254626774       -7.6582360948  MEMB      396             0.0000000000
     49319       396  QMPE      H9X            53.4631415634      -49.8003516799       -7.2514535232  MEMB      396             0.0000000000
     49320       396  QMPE      H9Y            52.7143694155      -50.9032643005       -8.2875556405  MEMB      396             0.0000000000
     49321       396  QMPE      C310           51.4723696094      -50.3877957855       -6.4608613304  MEMB      396             0.0000000000
     49322       396  QMPE      H10X           50.3718287157      -50.3497689490       -6.6081181765  MEMB      396             0.0000000000
     49323       396  QMPE      H10Y           51.6779164988      -49.6593127628       -5.6476059775  MEMB      396             0.0000000000
     49324       396  QMPE      C311           51.7890535856      -51.7655351869       -5.8626756689  MEMB      396             0.0000000000
     49325       396  QMPE      H11X           52.7853741485      -51.7922767916       -5.3718082029  MEMB      396             0.0000000000
     49326       396  QMPE      H11Y           51.8992867891      -52.4512201872       -6.7298586160  MEMB      396             0.0000000000
     49327       396  QMPE      C312           50.8062771794      -52.4114678848       -4.9302282685  MEMB      396             0.0000000000
     49328       396  QMPE      H12X           50.7766910479      -53.5209972936       -4.9791149376  MEMB      396             0.0000000000
     49329       396  QMPE      H12Y           49.8267063225      -52.1479183922       -5.3833334031  MEMB      396             0.0000000000
     49330       396  QMPE      C313           51.1116481877      -51.8520462446       -3.5449462190  MEMB      396             0.0000000000
     49331       396  QMPE      H13X           51.9578530469      -52.2605818581       -2.9521917282  MEMB      396             0.0000000000
     49332       396  QMPE      H13Y           51.2761025759      -50.7540389518       -3.5042546204  MEMB      396             0.0000000000
     49333       396  QMPE      C314           49.7959549619      -51.7933943227       -2.6886211820  MEMB      396             0.0000000000
     49334       396  QMPE      H14X           49.7303258044      -52.7618913528       -2.1482254541  MEMB      396             0.0000000000
     49335       396  QMPE      H14Y           49.0295539486      -51.6278064706       -3.4757248482  MEMB      396             0.0000000000
     49336       396  QMPE      C315           49.7160018536      -50.7344627425       -1.5357285726  MEMB      396             0.0000000000
     49337       396  QMPE      H15X           48.7310220635      -50.6250839988       -1.0335599321  MEMB      396             0.0000000000
     49338       396  QMPE      H15Y           50.4581924941      -51.0524077363       -0.7725852329  MEMB      396             0.0000000000
     49339       396  QMPE      H15Z           49.9287636150      -49.7247870508       -1.9475625942  MEMB      396             0.0000000000
     49340       397  PMPE      N             -52.2083050196       46.7251106627      -20.7066251106  MEMB      397             0.0000000000
     49341       397  PMPE      HN1           -52.1239614355       46.2675850735      -19.7764872005  MEMB      397             0.0000000000
     49342       397  PMPE      HN2           -52.9387967580       46.2536755680      -21.2773532120  MEMB      397             0.0000000000
     49343       397  PMPE      HN3           -51.3118934658       46.6597712525      -21.2298624226  MEMB      397             0.0000000000
     49344       397  PMPE      C12           -52.6601070951       48.2014821872      -20.7097737527  MEMB      397             0.0000000000
     49345       397  PMPE      H12A          -52.5196629419       48.6699580534      -21.7073340518  MEMB      397             0.0000000000
     49346       397  PMPE      H12B          -52.0453142761       48.8896746286      -20.0911122614  MEMB      397             0.0000000000
     49347       397  PMPE      C11           -54.2035923138       48.3544851872      -20.4409904145  MEMB      397             0.0000000000
     49348       397  PMPE      H11A          -54.7045465615       47.9398633405      -21.3417981968  MEMB      397             0.0000000000
     49349       397  PMPE      H11B          -54.4351786659       49.4390803373      -20.5068849321  MEMB      397             0.0000000000
     49350       397  PMPE      P             -54.9470409348       48.3764659905      -17.9794840383  MEMB      397             0.0000000000
     49351       397  PMPE      O13           -55.7735117855       47.4830591714      -17.2371567052  MEMB      397             0.0000000000
     49352       397  PMPE      O14           -55.4595914697       49.7416577237      -18.1896169376  MEMB      397             0.0000000000
     49353       397  PMPE      O11           -53.5190708601       48.3938904486      -17.3810553631  MEMB      397             0.0000000000
     49354       397  PMPE      O12           -54.6230565223       47.6327382256      -19.3552976759  MEMB      397             0.0000000000
     49355       397  PMPE      C1            -52.8124761531       47.2325733139      -16.9067339619  MEMB      397             0.0000000000
     49356       397  PMPE      HA            -51.7485237888       47.2553388367      -17.2258077922  MEMB      397             0.0000000000
     49357       397  PMPE      HB            -53.1442344982       46.3173155355      -17.4420476479  MEMB      397             0.0000000000
     49358       397  PMPE      C2            -52.9188445346       47.1306620626      -15.3954975821  MEMB      397             0.0000000000
     49359       397  PMPE      HS            -52.1919938894       46.4566187808      -14.8938256820  MEMB      397             0.0000000000
     49360       397  PMPE      O21           -54.2179019297       46.7946025785      -15.0242394487  MEMB      397             0.0000000000
     49361       397  PMPE      C21           -54.6220106179       45.4613065525      -15.2485682342  MEMB      397             0.0000000000
     49362       397  PMPE      O22           -53.8182481838       44.6812934564      -15.7090766852  MEMB      397             0.0000000000
     49363       397  PMPE      C22           -56.1303111413       45.2641476724      -14.9930744988  MEMB      397             0.0000000000
     49364       397  PMPE      H2R           -56.6886355377       45.1290466625      -15.9440438389  MEMB      397             0.0000000000
     49365       397  PMPE      H2S           -56.5068813728       46.1587109272      -14.4524523445  MEMB      397             0.0000000000
     49366       397  PMPE      C3            -52.4888675122       48.4861707863      -14.7376298341  MEMB      397             0.0000000000
     49367       397  PMPE      HX            -53.2458982196       49.2609632099      -14.9844541505  MEMB      397             0.0000000000
     49368       397  PMPE      HY            -51.4665308136       48.7944889929      -15.0443686462  MEMB      397             0.0000000000
     49369       397  PMPE      O31           -52.4422275510       48.2579833609      -13.3509582006  MEMB      397             0.0000000000
     49370       397  PMPE      C31           -53.2834566865       48.8125950158      -12.5462896817  MEMB      397             0.0000000000
     49371       397  PMPE      O32           -54.2829875396       49.4423777303      -12.9124755895  MEMB      397             0.0000000000
     49372       397  PMPE      C32           -52.9007697955       48.6024913367      -11.0723449415  MEMB      397             0.0000000000
     49373       397  PMPE      H2X           -52.9343975689       47.5251088710      -10.8032036568  MEMB      397             0.0000000000
     49374       397  PMPE      H2Y           -53.6014852543       49.1935719382      -10.4446964982  MEMB      397             0.0000000000
     49375       397  PMPE      C23           -56.3721527789       44.0118385233      -14.0459513174  MEMB      397             0.0000000000
     49376       397  PMPE      H3R           -56.0684055845       43.0748905142      -14.5599424986  MEMB      397             0.0000000000
     49377       397  PMPE      H3S           -57.4613448610       43.9174223399      -13.8482967102  MEMB      397             0.0000000000
     49378       397  PMPE      C24           -55.5804183419       44.0103605315      -12.7529117196  MEMB      397             0.0000000000
     49379       397  PMPE      H4R           -54.4831450653       43.8579169346      -12.8370139729  MEMB      397             0.0000000000
     49380       397  PMPE      H4S           -55.9334779338       43.1271795000      -12.1787503540  MEMB      397             0.0000000000
     49381       397  PMPE      C25           -55.9201185282       45.3273501786      -11.9374013332  MEMB      397             0.0000000000
     49382       397  PMPE      H5R           -56.9906672439       45.5697204147      -12.1091659053  MEMB      397             0.0000000000
     49383       397  PMPE      H5S           -55.2540966173       46.0881797179      -12.3976990365  MEMB      397             0.0000000000
     49384       397  PMPE      C26           -55.6962699805       45.2854922032      -10.4222745128  MEMB      397             0.0000000000
     49385       397  PMPE      H6R           -56.3335130562       44.4190717871      -10.1437826191  MEMB      397             0.0000000000
     49386       397  PMPE      H6S           -56.0956324395       46.2145113998       -9.9621071154  MEMB      397             0.0000000000
     49387       397  PMPE      C27           -54.2850999400       44.9029092344       -9.9127900301  MEMB      397             0.0000000000
     49388       397  PMPE      H7R           -53.5329730035       45.5463302883      -10.4174048078  MEMB      397             0.0000000000
     49389       397  PMPE      H7S           -54.1260219543       43.8770297022      -10.3084996828  MEMB      397             0.0000000000
     49390       397  PMPE      C28           -54.0534201279       44.8416396155       -8.4376523547  MEMB      397             0.0000000000
     49391       397  PMPE      H8R           -55.0335537597       44.4549995117       -8.0852774217  MEMB      397             0.0000000000
     49392       397  PMPE      H8S           -53.9011226230       45.8697837584       -8.0451656411  MEMB      397             0.0000000000
     49393       397  PMPE      C29           -52.7822711202       44.0176445875       -8.0669642194  MEMB      397             0.0000000000
     49394       397  PMPE      H9R           -51.8206027907       44.1127739552       -8.6151119297  MEMB      397             0.0000000000
     49395       397  PMPE      C217          -53.0249056415       42.5152734626       -7.8110591359  MEMB      397             0.0000000000
     49396       397  PMPE      H17R          -52.2259744768       41.8784701974       -8.1703354392  MEMB      397             0.0000000000
     49397       397  PMPE      H17S          -54.0905839252       42.3309857590       -7.8681290195  MEMB      397             0.0000000000
     49398       397  PMPE      C210          -52.5966170486       43.3844547159       -6.6668469287  MEMB      397             0.0000000000
     49399       397  PMPE      H10R          -51.5254699995       43.4606278262       -6.3819568727  MEMB      397             0.0000000000
     49400       397  PMPE      C211          -53.6572772457       43.4372381022       -5.5279244073  MEMB      397             0.0000000000
     49401       397  PMPE      H11R          -53.2628604371       42.9657524938       -4.6024745253  MEMB      397             0.0000000000
     49402       397  PMPE      H11S          -54.5947374884       42.9601378766       -5.8855052734  MEMB      397             0.0000000000
     49403       397  PMPE      C212          -53.9046724156       44.9100929845       -5.1014465170  MEMB      397             0.0000000000
     49404       397  PMPE      H12R          -54.6215692980       45.0679898685       -4.2675109360  MEMB      397             0.0000000000
     49405       397  PMPE      H12S          -54.3897052111       45.5215719678       -5.8921152901  MEMB      397             0.0000000000
     49406       397  PMPE      C213          -52.6181143354       45.7659996005       -4.8052979808  MEMB      397             0.0000000000
     49407       397  PMPE      H13R          -52.4830507462       46.6115519830       -5.5131958492  MEMB      397             0.0000000000
     49408       397  PMPE      H13S          -51.6994259589       45.1497374246       -4.9080290737  MEMB      397             0.0000000000
     49409       397  PMPE      C214          -52.5968457300       46.5450599186       -3.4672027829  MEMB      397             0.0000000000
     49410       397  PMPE      H14R          -52.5087051074       45.7630446316       -2.6829803700  MEMB      397             0.0000000000
     49411       397  PMPE      H14S          -53.5931631595       47.0153331194       -3.3239700698  MEMB      397             0.0000000000
     49412       397  PMPE      C215          -51.4912613455       47.5308532953       -3.1172642556  MEMB      397             0.0000000000
     49413       397  PMPE      H15R          -51.8525377920       48.3319604675       -2.4375376244  MEMB      397             0.0000000000
     49414       397  PMPE      H15S          -51.1971676770       48.1182827684       -4.0132303725  MEMB      397             0.0000000000
     49415       397  PMPE      C216          -50.2055777606       46.9531551478       -2.4087598687  MEMB      397             0.0000000000
     49416       397  PMPE      H16R          -49.7030678933       47.8764527099       -2.0491400492  MEMB      397             0.0000000000
     49417       397  PMPE      H16S          -50.3771988104       46.3137421245       -1.5165602674  MEMB      397             0.0000000000
     49418       397  PMPE      H16T          -49.5971618199       46.4794994895       -3.2086356114  MEMB      397             0.0000000000
     49419       397  PMPE      C33           -51.4188155628       49.0999924097      -10.8401878388  MEMB      397             0.0000000000
     49420       397  PMPE      H3X           -51.1497766608       50.0179855140      -11.4051898724  MEMB      397             0.0000000000
     49421       397  PMPE      H3Y           -50.7243127106       48.3207256518      -11.2206219505  MEMB      397             0.0000000000
     49422       397  PMPE      C34           -51.1369900086       49.2474724648       -9.3115746124  MEMB      397             0.0000000000
     49423       397  PMPE      H4X           -50.1409659888       48.8066218905       -9.0926969471  MEMB      397             0.0000000000
     49424       397  PMPE      H4Y           -51.8572350459       48.6317473335       -8.7315306429  MEMB      397             0.0000000000
     49425       397  PMPE      C35           -51.3546223573       50.6803564879       -8.7085265550  MEMB      397             0.0000000000
     49426       397  PMPE      H5X           -51.0780183910       51.4806998792       -9.4277347091  MEMB      397             0.0000000000
     49427       397  PMPE      H5Y           -50.7931483190       50.7712430450       -7.7541640434  MEMB      397             0.0000000000
     49428       397  PMPE      C36           -52.8338521845       51.0236050898       -8.2717046866  MEMB      397             0.0000000000
     49429       397  PMPE      H6X           -53.4884551389       50.5529877255       -9.0361220956  MEMB      397             0.0000000000
     49430       397  PMPE      H6Y           -52.9204735557       52.1177757239       -8.4437746934  MEMB      397             0.0000000000
     49431       397  PMPE      C37           -53.2389946469       50.8227165952       -6.7634515898  MEMB      397             0.0000000000
     49432       397  PMPE      H7X           -52.4748913857       51.3027755194       -6.1153694878  MEMB      397             0.0000000000
     49433       397  PMPE      H7Y           -53.3031435371       49.7296651166       -6.5751838880  MEMB      397             0.0000000000
     49434       397  PMPE      C38           -54.6393956301       51.4498550814       -6.6272367452  MEMB      397             0.0000000000
     49435       397  PMPE      H8X           -54.7989685179       52.3911426192       -7.1954225517  MEMB      397             0.0000000000
     49436       397  PMPE      H8Y           -54.9086498559       51.4289516639       -5.5495609181  MEMB      397             0.0000000000
     49437       397  PMPE      C39           -55.7405479109       50.6118355853       -7.3621459577  MEMB      397             0.0000000000
     49438       397  PMPE      H9X           -55.5540160673       50.6021803877       -8.4573330616  MEMB      397             0.0000000000
     49439       397  PMPE      H9Y           -56.7505461190       51.0700696616       -7.2969803260  MEMB      397             0.0000000000
     49440       397  PMPE      C310          -55.9495187300       49.2132906647       -6.7660071114  MEMB      397             0.0000000000
     49441       397  PMPE      H10X          -55.8112369583       49.4034597987       -5.6801730589  MEMB      397             0.0000000000
     49442       397  PMPE      H10Y          -55.1313241920       48.5839052390       -7.1768026173  MEMB      397             0.0000000000
     49443       397  PMPE      C311          -57.3343135499       48.7696060016       -7.0701828501  MEMB      397             0.0000000000
     49444       397  PMPE      H11X          -57.4658750041       48.9515429226       -8.1582599008  MEMB      397             0.0000000000
     49445       397  PMPE      H11Y          -58.0118913361       49.3709589065       -6.4270775695  MEMB      397             0.0000000000
     49446       397  PMPE      C312          -57.4291091897       47.2540055301       -6.8593907515  MEMB      397             0.0000000000
     49447       397  PMPE      H12X          -56.5539597682       46.8256988033       -7.3932331975  MEMB      397             0.0000000000
     49448       397  PMPE      H12Y          -58.3965743272       46.9862383651       -7.3354504173  MEMB      397             0.0000000000
     49449       397  PMPE      C313          -57.3244521606       46.9473605681       -5.4076810331  MEMB      397             0.0000000000
     49450       397  PMPE      H13X          -56.2526958604       47.0608405187       -5.1378998659  MEMB      397             0.0000000000
     49451       397  PMPE      H13Y          -57.4730310651       45.8464590258       -5.4238534185  MEMB      397             0.0000000000
     49452       397  PMPE      C314          -58.3031785590       47.5022728358       -4.3837217442  MEMB      397             0.0000000000
     49453       397  PMPE      H14X          -59.2916977934       47.3510090291       -4.8677364612  MEMB      397             0.0000000000
     49454       397  PMPE      H14Y          -57.8770333275       48.5211294671       -4.2626753300  MEMB      397             0.0000000000
     49455       397  PMPE      C315          -58.2289645186       46.8113719721       -2.9840291291  MEMB      397             0.0000000000
     49456       397  PMPE      H15X          -58.4035049020       45.7284586198       -3.1605376830  MEMB      397             0.0000000000
     49457       397  PMPE      H15Y          -59.1421793282       47.0518408869       -2.3987645377  MEMB      397             0.0000000000
     49458       397  PMPE      C316          -56.9321484867       47.0339947172       -2.2100046682  MEMB      397             0.0000000000
     49459       397  PMPE      H16X          -57.1260123737       46.6411951173       -1.1890013870  MEMB      397             0.0000000000
     49460       397  PMPE      H16Y          -56.7535720211       48.1273888128       -2.1268140875  MEMB      397             0.0000000000
     49461       397  PMPE      H16Z          -56.0857588039       46.5650409405       -2.7559229201  MEMB      397             0.0000000000
     49462       398  POPE      N             -51.9665422983      -48.2513936030      -20.0333153623  MEMB      398             0.0000000000
     49463       398  POPE      HN1           -51.1036498260      -48.2421685666      -20.6137734299  MEMB      398             0.0000000000
     49464       398  POPE      HN2           -52.6645232929      -48.7130112395      -20.6508359220  MEMB      398             0.0000000000
     49465       398  POPE      HN3           -52.2316517938      -47.2994492655      -19.7090942632  MEMB      398             0.0000000000
     49466       398  POPE      C12           -51.6823675095      -49.2318850225      -18.9443659846  MEMB      398             0.0000000000
     49467       398  POPE      H12A          -50.9898411577      -48.6682530629      -18.2832704601  MEMB      398             0.0000000000
     49468       398  POPE      H12B          -51.2132472211      -50.0837967528      -19.4814819555  MEMB      398             0.0000000000
     49469       398  POPE      C11           -52.8562342364      -49.7744168932      -18.1528045926  MEMB      398             0.0000000000
     49470       398  POPE      H11A          -53.4155089732      -48.8793831796      -17.8057493273  MEMB      398             0.0000000000
     49471       398  POPE      H11B          -52.5252185454      -50.4544586926      -17.3389909531  MEMB      398             0.0000000000
     49472       398  POPE      P             -53.9433913515      -52.0263463938      -19.0133530105  MEMB      398             0.0000000000
     49473       398  POPE      O13           -52.6532609174      -52.6523738724      -19.2832904217  MEMB      398             0.0000000000
     49474       398  POPE      O14           -55.0740557799      -52.3013339893      -19.9456341534  MEMB      398             0.0000000000
     49475       398  POPE      O11           -54.4372198625      -52.5092732482      -17.5833822188  MEMB      398             0.0000000000
     49476       398  POPE      O12           -53.7582626597      -50.4567875358      -19.0438542550  MEMB      398             0.0000000000
     49477       398  POPE      C1            -55.5884932711      -51.8877526168      -17.0380278227  MEMB      398             0.0000000000
     49478       398  POPE      HA            -56.4445300282      -52.1455678152      -17.6976137483  MEMB      398             0.0000000000
     49479       398  POPE      HB            -55.5211372639      -50.7792695160      -17.0056349920  MEMB      398             0.0000000000
     49480       398  POPE      C2            -55.7930997333      -52.3877200981      -15.5429080007  MEMB      398             0.0000000000
     49481       398  POPE      HS            -56.2651731481      -51.5981504658      -14.9199734353  MEMB      398             0.0000000000
     49482       398  POPE      O21           -54.5529690232      -52.8099465334      -14.9303932168  MEMB      398             0.0000000000
     49483       398  POPE      C21           -53.5797588249      -51.8982448269      -14.7311424834  MEMB      398             0.0000000000
     49484       398  POPE      O22           -53.5996060584      -50.7267993383      -14.9740124885  MEMB      398             0.0000000000
     49485       398  POPE      C22           -52.3680604364      -52.6682897557      -14.2768895051  MEMB      398             0.0000000000
     49486       398  POPE      H2R           -51.4866813302      -52.1619224882      -14.7253135415  MEMB      398             0.0000000000
     49487       398  POPE      H2S           -52.4554281659      -53.7376214304      -14.5653643889  MEMB      398             0.0000000000
     49488       398  POPE      C3            -56.6919747608      -53.5856436422      -15.5131952563  MEMB      398             0.0000000000
     49489       398  POPE      HX            -56.3462409625      -54.3777552618      -16.2112984971  MEMB      398             0.0000000000
     49490       398  POPE      HY            -57.6852089372      -53.2683491945      -15.8967722688  MEMB      398             0.0000000000
     49491       398  POPE      O31           -56.8684953590      -54.0935313953      -14.1805295573  MEMB      398             0.0000000000
     49492       398  POPE      C31           -56.0703640337      -54.9822363411      -13.6433979010  MEMB      398             0.0000000000
     49493       398  POPE      O32           -55.0359592523      -55.4347644562      -14.0701051390  MEMB      398             0.0000000000
     49494       398  POPE      C32           -56.7554598882      -55.5477476078      -12.3597466234  MEMB      398             0.0000000000
     49495       398  POPE      H2X           -56.8250872849      -56.6316043593      -12.5936857234  MEMB      398             0.0000000000
     49496       398  POPE      H2Y           -57.7896417811      -55.1963307726      -12.1565331867  MEMB      398             0.0000000000
     49497       398  POPE      C23           -52.1628711123      -52.4492823443      -12.7030836556  MEMB      398             0.0000000000
     49498       398  POPE      H3R           -52.7863168237      -53.0594845097      -12.0151233384  MEMB      398             0.0000000000
     49499       398  POPE      H3S           -52.3679890266      -51.3987458537      -12.4053912059  MEMB      398             0.0000000000
     49500       398  POPE      C24           -50.7453736558      -52.8602842709      -12.1872909217  MEMB      398             0.0000000000
     49501       398  POPE      H4R           -49.9165168388      -52.4413546809      -12.7970575398  MEMB      398             0.0000000000
     49502       398  POPE      H4S           -50.7466687605      -53.9464805712      -12.4207368321  MEMB      398             0.0000000000
     49503       398  POPE      C25           -50.4668827475      -52.6662632469      -10.6944570481  MEMB      398             0.0000000000
     49504       398  POPE      H5R           -49.5194533402      -53.1632517478      -10.3949573190  MEMB      398             0.0000000000
     49505       398  POPE      H5S           -51.3158742654      -52.9998855442      -10.0602410759  MEMB      398             0.0000000000
     49506       398  POPE      C26           -50.2841608751      -51.1822428522      -10.1886331893  MEMB      398             0.0000000000
     49507       398  POPE      H6R           -51.2396957766      -50.6254240753      -10.2945914958  MEMB      398             0.0000000000
     49508       398  POPE      H6S           -49.5603301398      -50.6074538791      -10.8050810618  MEMB      398             0.0000000000
     49509       398  POPE      C27           -49.9373907907      -51.0308727073       -8.7248570104  MEMB      398             0.0000000000
     49510       398  POPE      H7R           -49.6405578039      -49.9680188504       -8.5961974280  MEMB      398             0.0000000000
     49511       398  POPE      H7S           -49.0606776874      -51.6984123009       -8.5831334540  MEMB      398             0.0000000000
     49512       398  POPE      C28           -50.9793496737      -51.3875732931       -7.6375440676  MEMB      398             0.0000000000
     49513       398  POPE      H8R           -50.3897802444      -51.4837100019       -6.7008014061  MEMB      398             0.0000000000
     49514       398  POPE      H8S           -51.3545800220      -52.4006505499       -7.8967692349  MEMB      398             0.0000000000
     49515       398  POPE      C29           -52.1635929361      -50.4363774687       -7.4168544107  MEMB      398             0.0000000000
     49516       398  POPE      H91           -51.9133439330      -49.3657300009       -7.3838504890  MEMB      398             0.0000000000
     49517       398  POPE      C210          -53.4416232772      -50.7021258394       -7.1912277186  MEMB      398             0.0000000000
     49518       398  POPE      H101          -54.0469871444      -49.8011008392       -7.0132143476  MEMB      398             0.0000000000
     49519       398  POPE      C211          -54.1127435917      -52.0524131848       -7.0892007751  MEMB      398             0.0000000000
     49520       398  POPE      H11R          -53.5056769182      -52.7131311383       -7.7443665824  MEMB      398             0.0000000000
     49521       398  POPE      H11S          -55.1231322111      -52.1068709007       -7.5479713175  MEMB      398             0.0000000000
     49522       398  POPE      C212          -54.0860124921      -52.6693536111       -5.6960193922  MEMB      398             0.0000000000
     49523       398  POPE      H12R          -53.0566667378      -52.8608163552       -5.3243871340  MEMB      398             0.0000000000
     49524       398  POPE      H12S          -54.5690111862      -53.6603253956       -5.8338895885  MEMB      398             0.0000000000
     49525       398  POPE      C213          -54.8001695288      -51.8255112107       -4.7053169920  MEMB      398             0.0000000000
     49526       398  POPE      H13R          -55.7429954544      -51.5453420027       -5.2219451799  MEMB      398             0.0000000000
     49527       398  POPE      H13S          -54.2837384052      -50.8725384008       -4.4614666373  MEMB      398             0.0000000000
     49528       398  POPE      C214          -55.4364037855      -52.4549285533       -3.3683865993  MEMB      398             0.0000000000
     49529       398  POPE      H14R          -56.4960383790      -52.7056752477       -3.5888892754  MEMB      398             0.0000000000
     49530       398  POPE      H14S          -55.5912649745      -51.7990562489       -2.4851141671  MEMB      398             0.0000000000
     49531       398  POPE      C215          -54.8266890934      -53.7925808233       -2.8563440488  MEMB      398             0.0000000000
     49532       398  POPE      H15R          -54.5378647880      -54.4457588796       -3.7073793376  MEMB      398             0.0000000000
     49533       398  POPE      H15S          -55.6916412578      -54.2982735202       -2.3762882640  MEMB      398             0.0000000000
     49534       398  POPE      C216          -53.6650312163      -53.6231730057       -1.8625210743  MEMB      398             0.0000000000
     49535       398  POPE      H16R          -52.9386605738      -52.9055248040       -2.3003411489  MEMB      398             0.0000000000
     49536       398  POPE      H16S          -53.1783071470      -54.6212661187       -1.8274214825  MEMB      398             0.0000000000
     49537       398  POPE      C217          -54.0375877421      -53.2649083282       -0.4153394027  MEMB      398             0.0000000000
     49538       398  POPE      H17R          -54.6440698344      -54.0238473350        0.1236511767  MEMB      398             0.0000000000
     49539       398  POPE      H17S          -54.7898481525      -52.4491861333       -0.4703224511  MEMB      398             0.0000000000
     49540       398  POPE      C218          -52.8126421157      -53.0167887753        0.4986480515  MEMB      398             0.0000000000
     49541       398  POPE      H18R          -52.2875989579      -52.0718901400        0.2420990155  MEMB      398             0.0000000000
     49542       398  POPE      H18S          -52.1703265385      -53.9225391572        0.4616582403  MEMB      398             0.0000000000
     49543       398  POPE      H18T          -53.2383324722      -52.8986097720        1.5180304985  MEMB      398             0.0000000000
     49544       398  POPE      C33           -55.7907759376      -55.3716010669      -11.1936242732  MEMB      398             0.0000000000
     49545       398  POPE      H3X           -55.7862449627      -54.3400519545      -10.7810627319  MEMB      398             0.0000000000
     49546       398  POPE      H3Y           -54.7153007527      -55.5585552567      -11.4003167814  MEMB      398             0.0000000000
     49547       398  POPE      C34           -56.1517914211      -56.2709371787       -9.9103801396  MEMB      398             0.0000000000
     49548       398  POPE      H4X           -55.7686144463      -57.2990304334      -10.0850830807  MEMB      398             0.0000000000
     49549       398  POPE      H4Y           -57.2142781997      -56.1347149555       -9.6156143750  MEMB      398             0.0000000000
     49550       398  POPE      C35           -55.3452861601      -55.7681312243       -8.6444948935  MEMB      398             0.0000000000
     49551       398  POPE      H5X           -55.7469806658      -56.2739098354       -7.7405308711  MEMB      398             0.0000000000
     49552       398  POPE      H5Y           -55.7188881015      -54.7263768915       -8.5470771129  MEMB      398             0.0000000000
     49553       398  POPE      C36           -53.8571621944      -55.9932754610       -8.7186403873  MEMB      398             0.0000000000
     49554       398  POPE      H6X           -53.4541470629      -55.2069779282       -9.3921655371  MEMB      398             0.0000000000
     49555       398  POPE      H6Y           -53.5755519505      -57.0122274913       -9.0603321759  MEMB      398             0.0000000000
     49556       398  POPE      C37           -53.0839180657      -55.9234235049       -7.3391142479  MEMB      398             0.0000000000
     49557       398  POPE      H7X           -53.4788984201      -56.7565494103       -6.7192649230  MEMB      398             0.0000000000
     49558       398  POPE      H7Y           -53.1962968996      -55.0049701311       -6.7241868900  MEMB      398             0.0000000000
     49559       398  POPE      C38           -51.5225484970      -56.0829729604       -7.5440093460  MEMB      398             0.0000000000
     49560       398  POPE      H8X           -51.1768095849      -55.1506890172       -8.0396227903  MEMB      398             0.0000000000
     49561       398  POPE      H8Y           -51.2610271743      -56.6685106747       -8.4512431401  MEMB      398             0.0000000000
     49562       398  POPE      C39           -50.6255316003      -56.4980081351       -6.3711082696  MEMB      398             0.0000000000
     49563       398  POPE      H9X           -49.6157517402      -56.8138295386       -6.7101101231  MEMB      398             0.0000000000
     49564       398  POPE      H9Y           -51.0936772869      -57.4240493411       -5.9741088255  MEMB      398             0.0000000000
     49565       398  POPE      C310          -50.4852720641      -55.3925130692       -5.3904529455  MEMB      398             0.0000000000
     49566       398  POPE      H10X          -51.4798620237      -55.1538134781       -4.9567083560  MEMB      398             0.0000000000
     49567       398  POPE      H10Y          -50.0319800283      -54.4942525868       -5.8615951961  MEMB      398             0.0000000000
     49568       398  POPE      C311          -49.5403748629      -55.6402629132       -4.1865815657  MEMB      398             0.0000000000
     49569       398  POPE      H11X          -48.5154848980      -55.6137741384       -4.6146235027  MEMB      398             0.0000000000
     49570       398  POPE      H11Y          -49.6913702365      -56.6555203694       -3.7614063961  MEMB      398             0.0000000000
     49571       398  POPE      C312          -49.6549140222      -54.6146983711       -3.0616748531  MEMB      398             0.0000000000
     49572       398  POPE      H12X          -50.6623194692      -54.5758993278       -2.5948234598  MEMB      398             0.0000000000
     49573       398  POPE      H12Y          -49.3886689995      -53.5974563265       -3.4203567176  MEMB      398             0.0000000000
     49574       398  POPE      C313          -48.6788175291      -54.9438367822       -1.9762586703  MEMB      398             0.0000000000
     49575       398  POPE      H13X          -47.6481844192      -54.6714103440       -2.2891477058  MEMB      398             0.0000000000
     49576       398  POPE      H13Y          -48.8315648674      -56.0116259219       -1.7101446802  MEMB      398             0.0000000000
     49577       398  POPE      C314          -48.7815825426      -54.2320701960       -0.6481332223  MEMB      398             0.0000000000
     49578       398  POPE      H14X          -47.9066311067      -54.4888025653       -0.0134135225  MEMB      398             0.0000000000
     49579       398  POPE      H14Y          -49.6815630166      -54.6072761701       -0.1156140199  MEMB      398             0.0000000000
     49580       398  POPE      C315          -49.0122128196      -52.7657555373       -0.8087838439  MEMB      398             0.0000000000
     49581       398  POPE      H15X          -49.3708933826      -52.3278327624        0.1471933738  MEMB      398             0.0000000000
     49582       398  POPE      H15Y          -49.8433807004      -52.5899332528       -1.5247223737  MEMB      398             0.0000000000
     49583       398  POPE      C316          -47.6584644258      -52.0861015684       -1.2959897299  MEMB      398             0.0000000000
     49584       398  POPE      H16X          -46.8815953015      -52.2712883711       -0.5236549596  MEMB      398             0.0000000000
     49585       398  POPE      H16Y          -47.5620882682      -50.9829526817       -1.2060166205  MEMB      398             0.0000000000
     49586       398  POPE      H16Z          -47.2617301800      -52.4388101850       -2.2719618387  MEMB      398             0.0000000000
     49587       399  POPE      N             -48.4390705808       54.1366988152      -20.7309507063  MEMB      399             0.0000000000
     49588       399  POPE      HN1           -48.4625320935       53.0986434720      -20.7900320945  MEMB      399             0.0000000000
     49589       399  POPE      HN2           -47.6944368741       54.5069864231      -21.3554568253  MEMB      399             0.0000000000
     49590       399  POPE      HN3           -48.2728781243       54.4722898053      -19.7607142929  MEMB      399             0.0000000000
     49591       399  POPE      C12           -49.6751476334       54.7414700230      -21.3249809444  MEMB      399             0.0000000000
     49592       399  POPE      H12A          -49.9669685817       54.1726310948      -22.2335974532  MEMB      399             0.0000000000
     49593       399  POPE      H12B          -49.4530837778       55.7977196454      -21.5883161675  MEMB      399             0.0000000000
     49594       399  POPE      C11           -50.8448832731       54.5025923026      -20.3850365962  MEMB      399             0.0000000000
     49595       399  POPE      H11A          -51.2187584509       53.4800571833      -20.6063061158  MEMB      399             0.0000000000
     49596       399  POPE      H11B          -51.5714372999       55.2539598705      -20.7617155939  MEMB      399             0.0000000000
     49597       399  POPE      P             -50.3321323310       53.6386257652      -17.9614250870  MEMB      399             0.0000000000
     49598       399  POPE      O13           -49.3660857443       54.1437161426      -16.9107554156  MEMB      399             0.0000000000
     49599       399  POPE      O14           -50.0171196351       52.3247550714      -18.5656030485  MEMB      399             0.0000000000
     49600       399  POPE      O11           -51.6622663670       53.6294468661      -17.1071860864  MEMB      399             0.0000000000
     49601       399  POPE      O12           -50.4825437492       54.7977318745      -19.0140621150  MEMB      399             0.0000000000
     49602       399  POPE      C1            -52.4192157230       54.8647689436      -17.1423657329  MEMB      399             0.0000000000
     49603       399  POPE      HA            -52.9271337240       54.9808827051      -18.1236189285  MEMB      399             0.0000000000
     49604       399  POPE      HB            -51.7319772555       55.6918087454      -16.8630282553  MEMB      399             0.0000000000
     49605       399  POPE      C2            -53.5174101259       54.7261059480      -16.0584888356  MEMB      399             0.0000000000
     49606       399  POPE      HS            -54.0816436467       55.6539552325      -15.8238459903  MEMB      399             0.0000000000
     49607       399  POPE      O21           -52.9727028881       54.2185975545      -14.8789899723  MEMB      399             0.0000000000
     49608       399  POPE      C21           -52.1389370474       55.0614521270      -14.2038533570  MEMB      399             0.0000000000
     49609       399  POPE      O22           -52.0388323856       56.2253260090      -14.3627973081  MEMB      399             0.0000000000
     49610       399  POPE      C22           -51.5239457326       54.3560584533      -12.9338393528  MEMB      399             0.0000000000
     49611       399  POPE      H2R           -52.3904613218       53.7626798006      -12.5713844113  MEMB      399             0.0000000000
     49612       399  POPE      H2S           -51.3956164501       55.0917093663      -12.1112395221  MEMB      399             0.0000000000
     49613       399  POPE      C3            -54.6644384010       53.7535671086      -16.5070719939  MEMB      399             0.0000000000
     49614       399  POPE      HX            -54.2137843549       52.7836853467      -16.8080057776  MEMB      399             0.0000000000
     49615       399  POPE      HY            -55.1654089810       54.2483839629      -17.3664356493  MEMB      399             0.0000000000
     49616       399  POPE      O31           -55.6313099073       53.4735948333      -15.4255723330  MEMB      399             0.0000000000
     49617       399  POPE      C31           -55.4366214694       52.5801981577      -14.5079601407  MEMB      399             0.0000000000
     49618       399  POPE      O32           -54.4450625876       51.8121365529      -14.4410249980  MEMB      399             0.0000000000
     49619       399  POPE      C32           -56.5901289038       52.6797358526      -13.4820168171  MEMB      399             0.0000000000
     49620       399  POPE      H2X           -57.5616579897       52.3673034761      -13.9211495130  MEMB      399             0.0000000000
     49621       399  POPE      H2Y           -56.7643415417       53.7344958069      -13.1796051248  MEMB      399             0.0000000000
     49622       399  POPE      C23           -50.3322607828       53.4892767220      -13.4691667390  MEMB      399             0.0000000000
     49623       399  POPE      H3R           -49.6756738505       54.0766760445      -14.1460538541  MEMB      399             0.0000000000
     49624       399  POPE      H3S           -50.7319658892       52.6460866002      -14.0721486455  MEMB      399             0.0000000000
     49625       399  POPE      C24           -49.5390058661       52.9122765406      -12.2580189732  MEMB      399             0.0000000000
     49626       399  POPE      H4R           -48.9654164182       53.8059390768      -11.9313945873  MEMB      399             0.0000000000
     49627       399  POPE      H4S           -48.7903286491       52.2090557334      -12.6814381479  MEMB      399             0.0000000000
     49628       399  POPE      C25           -50.2475793127       52.3220583210      -11.0477828784  MEMB      399             0.0000000000
     49629       399  POPE      H5R           -51.2217963790       52.8255061285      -10.8695628260  MEMB      399             0.0000000000
     49630       399  POPE      H5S           -49.6282943969       52.4138919231      -10.1299735130  MEMB      399             0.0000000000
     49631       399  POPE      C26           -50.3526607679       50.8013009344      -11.1369295299  MEMB      399             0.0000000000
     49632       399  POPE      H6R           -49.3143022930       50.4717825008      -11.3549896590  MEMB      399             0.0000000000
     49633       399  POPE      H6S           -50.9714979041       50.3969472749      -11.9663024500  MEMB      399             0.0000000000
     49634       399  POPE      C27           -50.9058810868       50.0806828422       -9.8247446474  MEMB      399             0.0000000000
     49635       399  POPE      H7R           -50.1378570254       50.2552554717       -9.0411734036  MEMB      399             0.0000000000
     49636       399  POPE      H7S           -50.6693566070       49.0075200832       -9.9881426349  MEMB      399             0.0000000000
     49637       399  POPE      C28           -52.4016652935       50.3469088728       -9.4682913130  MEMB      399             0.0000000000
     49638       399  POPE      H8R           -52.6023540257       51.4006062802       -9.7577175041  MEMB      399             0.0000000000
     49639       399  POPE      H8S           -52.4865176309       50.1882059994       -8.3719635891  MEMB      399             0.0000000000
     49640       399  POPE      C29           -53.3846787418       49.4394044470      -10.2063472445  MEMB      399             0.0000000000
     49641       399  POPE      H91           -53.6592584756       49.8239477570      -11.1996916804  MEMB      399             0.0000000000
     49642       399  POPE      C210          -53.7866510286       48.1960142598       -9.8251494591  MEMB      399             0.0000000000
     49643       399  POPE      H101          -54.5235620782       47.6471780692      -10.4299152032  MEMB      399             0.0000000000
     49644       399  POPE      C211          -53.4414206724       47.3412837995       -8.6712629431  MEMB      399             0.0000000000
     49645       399  POPE      H11R          -52.5541895264       47.6675909760       -8.0875972328  MEMB      399             0.0000000000
     49646       399  POPE      H11S          -53.1403524339       46.3758233428       -9.1312243687  MEMB      399             0.0000000000
     49647       399  POPE      C212          -54.3706723288       47.0188944459       -7.5425970060  MEMB      399             0.0000000000
     49648       399  POPE      H12R          -54.1762569954       45.9989219640       -7.1474011990  MEMB      399             0.0000000000
     49649       399  POPE      H12S          -55.3542790863       47.0474501900       -8.0583720517  MEMB      399             0.0000000000
     49650       399  POPE      C213          -54.2680947912       48.0195094361       -6.3654027138  MEMB      399             0.0000000000
     49651       399  POPE      H13R          -54.6722838398       48.9866914492       -6.7335219281  MEMB      399             0.0000000000
     49652       399  POPE      H13S          -53.2004381771       48.1596993226       -6.0919485432  MEMB      399             0.0000000000
     49653       399  POPE      C214          -55.0300931623       47.6973609750       -5.0449523740  MEMB      399             0.0000000000
     49654       399  POPE      H14R          -54.8353806214       46.6167352166       -4.8756715491  MEMB      399             0.0000000000
     49655       399  POPE      H14S          -56.0673718677       47.7416388539       -5.4404434779  MEMB      399             0.0000000000
     49656       399  POPE      C215          -54.9897217619       48.6743554388       -3.7970363264  MEMB      399             0.0000000000
     49657       399  POPE      H15R          -53.9943555991       48.5840147695       -3.3118490811  MEMB      399             0.0000000000
     49658       399  POPE      H15S          -55.7064027117       48.2460341428       -3.0640753746  MEMB      399             0.0000000000
     49659       399  POPE      C216          -55.3843667547       50.1401704318       -4.0824350941  MEMB      399             0.0000000000
     49660       399  POPE      H16R          -56.2921883134       50.2397569147       -4.7150989508  MEMB      399             0.0000000000
     49661       399  POPE      H16S          -54.6643556489       50.5952186853       -4.7957621198  MEMB      399             0.0000000000
     49662       399  POPE      C217          -55.4821066750       51.1415751499       -2.9439062523  MEMB      399             0.0000000000
     49663       399  POPE      H17R          -54.5212167555       51.1157851414       -2.3868185018  MEMB      399             0.0000000000
     49664       399  POPE      H17S          -56.3589652792       50.9285906904       -2.2957722554  MEMB      399             0.0000000000
     49665       399  POPE      C218          -55.7585059784       52.5765386041       -3.3557470356  MEMB      399             0.0000000000
     49666       399  POPE      H18R          -54.9085907881       53.0379473709       -3.9026162439  MEMB      399             0.0000000000
     49667       399  POPE      H18S          -55.7723133132       53.0668881771       -2.3589073314  MEMB      399             0.0000000000
     49668       399  POPE      H18T          -56.7596465930       52.6442056048       -3.8326741490  MEMB      399             0.0000000000
     49669       399  POPE      C33           -56.3013541056       51.8532375997      -12.2821525072  MEMB      399             0.0000000000
     49670       399  POPE      H3X           -55.6605706812       50.9724056012      -12.5009048440  MEMB      399             0.0000000000
     49671       399  POPE      H3Y           -57.2812331069       51.4936885978      -11.9015176728  MEMB      399             0.0000000000
     49672       399  POPE      C34           -55.5623880377       52.6662142533      -11.1837952234  MEMB      399             0.0000000000
     49673       399  POPE      H4X           -54.6333833298       53.1150046729      -11.5959341928  MEMB      399             0.0000000000
     49674       399  POPE      H4Y           -55.1875634591       51.9764654662      -10.3976179503  MEMB      399             0.0000000000
     49675       399  POPE      C35           -56.3229705630       53.8099680692      -10.4907788362  MEMB      399             0.0000000000
     49676       399  POPE      H5X           -57.3393734244       53.4588552536      -10.2115551859  MEMB      399             0.0000000000
     49677       399  POPE      H5Y           -56.5313708209       54.6847536660      -11.1431902397  MEMB      399             0.0000000000
     49678       399  POPE      C36           -55.5677562228       54.4285482499       -9.2495120020  MEMB      399             0.0000000000
     49679       399  POPE      H6X           -55.2542030554       53.5832116202       -8.6003501052  MEMB      399             0.0000000000
     49680       399  POPE      H6Y           -56.1390698675       55.1432214394       -8.6193026294  MEMB      399             0.0000000000
     49681       399  POPE      C37           -54.2523576065       55.1804644388       -9.5663449456  MEMB      399             0.0000000000
     49682       399  POPE      H7X           -54.5597457810       56.0570917028      -10.1757367897  MEMB      399             0.0000000000
     49683       399  POPE      H7Y           -53.5701122157       54.5297712128      -10.1541044031  MEMB      399             0.0000000000
     49684       399  POPE      C38           -53.4325949559       55.6300030465       -8.3433670186  MEMB      399             0.0000000000
     49685       399  POPE      H8X           -53.5765898370       54.8300563281       -7.5859562668  MEMB      399             0.0000000000
     49686       399  POPE      H8Y           -53.7799973270       56.5972989997       -7.9215008084  MEMB      399             0.0000000000
     49687       399  POPE      C39           -51.8570223974       55.6793030976       -8.7889696805  MEMB      399             0.0000000000
     49688       399  POPE      H9X           -51.7386730454       56.3934600066       -9.6317587565  MEMB      399             0.0000000000
     49689       399  POPE      H9Y           -51.4888855484       54.6629615075       -9.0455740507  MEMB      399             0.0000000000
     49690       399  POPE      C310          -51.0214097294       56.3218302147       -7.6334942513  MEMB      399             0.0000000000
     49691       399  POPE      H10X          -51.7489063553       56.7647932729       -6.9201543791  MEMB      399             0.0000000000
     49692       399  POPE      H10Y          -50.5081250446       57.1927768097       -8.0942663472  MEMB      399             0.0000000000
     49693       399  POPE      C311          -49.9904662828       55.2987401987       -7.1509445659  MEMB      399             0.0000000000
     49694       399  POPE      H11X          -49.1621789591       55.7436359901       -6.5590586402  MEMB      399             0.0000000000
     49695       399  POPE      H11Y          -49.4584030870       54.8648117821       -8.0244066420  MEMB      399             0.0000000000
     49696       399  POPE      C312          -50.5451083477       54.1932150289       -6.1919597143  MEMB      399             0.0000000000
     49697       399  POPE      H12X          -49.7090735030       53.5188235161       -5.9081244229  MEMB      399             0.0000000000
     49698       399  POPE      H12Y          -51.3689177287       53.6357585316       -6.6868352287  MEMB      399             0.0000000000
     49699       399  POPE      C313          -51.1338455913       54.8549224340       -4.8926966535  MEMB      399             0.0000000000
     49700       399  POPE      H13X          -52.0516258269       55.4212754008       -5.1596134287  MEMB      399             0.0000000000
     49701       399  POPE      H13Y          -50.3023769053       55.5458913526       -4.6366834913  MEMB      399             0.0000000000
     49702       399  POPE      C314          -51.5319993061       53.9422184839       -3.7414698525  MEMB      399             0.0000000000
     49703       399  POPE      H14X          -50.7105737853       53.2341367451       -3.5002206397  MEMB      399             0.0000000000
     49704       399  POPE      H14Y          -52.3992188972       53.3154862297       -4.0405646877  MEMB      399             0.0000000000
     49705       399  POPE      C315          -51.8071840213       54.7418921503       -2.4489362449  MEMB      399             0.0000000000
     49706       399  POPE      H15X          -52.6704898580       55.3727081305       -2.7507554706  MEMB      399             0.0000000000
     49707       399  POPE      H15Y          -50.8901616172       55.2767691019       -2.1213731808  MEMB      399             0.0000000000
     49708       399  POPE      C316          -52.5178193165       53.8782612705       -1.3357282382  MEMB      399             0.0000000000
     49709       399  POPE      H16X          -52.4290598074       54.4091879607       -0.3638429868  MEMB      399             0.0000000000
     49710       399  POPE      H16Y          -52.0279543381       52.8818942917       -1.3758041521  MEMB      399             0.0000000000
     49711       399  POPE      H16Z          -53.6099288201       53.8195754929       -1.5311094843  MEMB      399             0.0000000000
     49712       400  PYPG      C13            55.0680589583       51.2509284259      -19.8972668678  MEMB      400             0.0000000000
     49713       400  PYPG      H13A           54.2502682777       50.9948161144      -19.1901985150  MEMB      400             0.0000000000
     49714       400  PYPG      H13B           55.4484930561       50.4073538533      -20.5120618262  MEMB      400             0.0000000000
     49715       400  PYPG      OC3            56.2373921651       51.6427236715      -19.2097373444  MEMB      400             0.0000000000
     49716       400  PYPG      HO3            55.9820631280       52.3316184076      -18.5918124823  MEMB      400             0.0000000000
     49717       400  PYPG      C12            54.5923852953       52.5088087973      -20.7233924784  MEMB      400             0.0000000000
     49718       400  PYPG      H12A           53.6602343824       52.2184074547      -21.2614824112  MEMB      400             0.0000000000
     49719       400  PYPG      OC2            55.5749516382       52.8562902480      -21.7000505113  MEMB      400             0.0000000000
     49720       400  PYPG      HO2            55.2446388171       53.7121249582      -22.0509881540  MEMB      400             0.0000000000
     49721       400  PYPG      C11            54.2495090581       53.7732436938      -19.8628216607  MEMB      400             0.0000000000
     49722       400  PYPG      H11A           53.6635063042       54.4362219413      -20.5346710084  MEMB      400             0.0000000000
     49723       400  PYPG      H11B           55.1935404376       54.3049496955      -19.6170280920  MEMB      400             0.0000000000
     49724       400  PYPG      P              52.8877691681       54.4440256536      -17.7101852605  MEMB      400             0.0000000000
     49725       400  PYPG      O13            51.8264375738       53.6964153592      -16.9738765312  MEMB      400             0.0000000000
     49726       400  PYPG      O14            52.6256805517       55.6503715007      -18.5268850276  MEMB      400             0.0000000000
     49727       400  PYPG      O11            54.0990743907       54.6861207315      -16.7241068770  MEMB      400             0.0000000000
     49728       400  PYPG      O12            53.5285972108       53.3625230624      -18.6716774374  MEMB      400             0.0000000000
     49729       400  PYPG      C1             53.8580270645       55.2827502499      -15.4469104368  MEMB      400             0.0000000000
     49730       400  PYPG      HA             52.9009703823       55.8382607238      -15.3480590980  MEMB      400             0.0000000000
     49731       400  PYPG      HB             54.6438000696       56.0381407975      -15.2318135355  MEMB      400             0.0000000000
     49732       400  PYPG      C2             53.9595925397       54.3276595192      -14.2402043023  MEMB      400             0.0000000000
     49733       400  PYPG      HS             55.0199810313       54.3237583020      -13.9087195726  MEMB      400             0.0000000000
     49734       400  PYPG      O21            53.4119686903       53.0208773181      -14.4440009698  MEMB      400             0.0000000000
     49735       400  PYPG      C21            54.2330177489       52.0923383200      -15.0262843662  MEMB      400             0.0000000000
     49736       400  PYPG      O22            55.2745668467       52.3077015203      -15.5633710925  MEMB      400             0.0000000000
     49737       400  PYPG      C22            53.6359425507       50.6772897436      -14.8022142707  MEMB      400             0.0000000000
     49738       400  PYPG      H2R            53.4322446728       50.2259372896      -15.7967542126  MEMB      400             0.0000000000
     49739       400  PYPG      H2S            52.6184529000       50.7635548655      -14.3644995994  MEMB      400             0.0000000000
     49740       400  PYPG      C3             53.0947589737       54.9301183750      -12.9824093381  MEMB      400             0.0000000000
     49741       400  PYPG      HX             52.0142862924       54.8226578795      -13.2176796479  MEMB      400             0.0000000000
     49742       400  PYPG      HY             53.3235968780       56.0162826532      -13.0293299577  MEMB      400             0.0000000000
     49743       400  PYPG      O31            53.4219928753       54.2624442475      -11.7477966930  MEMB      400             0.0000000000
     49744       400  PYPG      C31            53.1550980266       54.9932204753      -10.6277025112  MEMB      400             0.0000000000
     49745       400  PYPG      O32            52.9294029344       56.1734150289      -10.6026283109  MEMB      400             0.0000000000
     49746       400  PYPG      C32            53.0894375250       53.9788096385       -9.4787900634  MEMB      400             0.0000000000
     49747       400  PYPG      H2X            54.0800395363       53.5626818003       -9.1961842337  MEMB      400             0.0000000000
     49748       400  PYPG      H2Y            52.7472403729       54.5586074599       -8.5950162824  MEMB      400             0.0000000000
     49749       400  PYPG      C23            54.4817040907       49.7497556465      -13.9210091025  MEMB      400             0.0000000000
     49750       400  PYPG      H3R            55.4643199559       49.5133696142      -14.3824291969  MEMB      400             0.0000000000
     49751       400  PYPG      H3S            54.0590311499       48.7225072957      -13.9417326622  MEMB      400             0.0000000000
     49752       400  PYPG      C24            54.7400181094       50.2168746100      -12.5433832474  MEMB      400             0.0000000000
     49753       400  PYPG      H4R            53.8915618366       50.7909758001      -12.1134403483  MEMB      400             0.0000000000
     49754       400  PYPG      H4S            55.5722622185       50.9528685322      -12.5414677676  MEMB      400             0.0000000000
     49755       400  PYPG      C25            55.0366029496       49.1541198593      -11.4038291991  MEMB      400             0.0000000000
     49756       400  PYPG      H5R            55.9834350542       48.6257345881      -11.6459840754  MEMB      400             0.0000000000
     49757       400  PYPG      H5S            54.1928225601       48.4391726814      -11.5096873989  MEMB      400             0.0000000000
     49758       400  PYPG      C26            55.0487846080       49.6219848370       -9.9948622511  MEMB      400             0.0000000000
     49759       400  PYPG      H6R            55.1882262374       48.6881863594       -9.4092885528  MEMB      400             0.0000000000
     49760       400  PYPG      H6S            54.0079981121       49.9490027821       -9.7847579089  MEMB      400             0.0000000000
     49761       400  PYPG      C27            56.0764974137       50.7171071534       -9.5645707624  MEMB      400             0.0000000000
     49762       400  PYPG      H7R            55.6306637914       51.7147420010       -9.7652637554  MEMB      400             0.0000000000
     49763       400  PYPG      H7S            56.9331713673       50.7190190495      -10.2719793821  MEMB      400             0.0000000000
     49764       400  PYPG      C28            56.4965298404       50.8021747932       -8.0696813247  MEMB      400             0.0000000000
     49765       400  PYPG      H8R            57.3950311725       51.4234707013       -7.8671770744  MEMB      400             0.0000000000
     49766       400  PYPG      H8S            56.9587434238       49.8302279796       -7.7940019165  MEMB      400             0.0000000000
     49767       400  PYPG      C29            55.3757889949       51.0105126586       -7.1565877211  MEMB      400             0.0000000000
     49768       400  PYPG      H9R            54.7820013415       50.1889781619       -6.7293906694  MEMB      400             0.0000000000
     49769       400  PYPG      C210           54.9869753128       52.1408443670       -6.6505089487  MEMB      400             0.0000000000
     49770       400  PYPG      H10R           54.1088025184       52.1293949188       -5.9881779655  MEMB      400             0.0000000000
     49771       400  PYPG      C211           55.5554080166       53.5286934018       -6.8019737609  MEMB      400             0.0000000000
     49772       400  PYPG      H11R           54.6897827160       54.1052358921       -7.1926301293  MEMB      400             0.0000000000
     49773       400  PYPG      H11S           56.3571887176       53.6011539068       -7.5676224125  MEMB      400             0.0000000000
     49774       400  PYPG      C212           55.8713596601       54.1268156089       -5.3947983905  MEMB      400             0.0000000000
     49775       400  PYPG      H12R           54.9786005847       53.9547124842       -4.7562978941  MEMB      400             0.0000000000
     49776       400  PYPG      H12S           55.8528236263       55.2376373818       -5.3875473885  MEMB      400             0.0000000000
     49777       400  PYPG      C213           57.1367534676       53.6677534462       -4.7765235951  MEMB      400             0.0000000000
     49778       400  PYPG      H13R           58.0583133755       53.6878438941       -5.3967205513  MEMB      400             0.0000000000
     49779       400  PYPG      H13S           57.1156276577       52.5678341028       -4.6214341950  MEMB      400             0.0000000000
     49780       400  PYPG      C214           57.4664152782       54.3214134589       -3.4523875092  MEMB      400             0.0000000000
     49781       400  PYPG      H14R           57.8139729585       55.3389106187       -3.7320725666  MEMB      400             0.0000000000
     49782       400  PYPG      H14S           56.5498170699       54.3065492795       -2.8247346012  MEMB      400             0.0000000000
     49783       400  PYPG      C215           58.5251709647       53.5757277719       -2.6219019584  MEMB      400             0.0000000000
     49784       400  PYPG      H15R           59.4269955278       53.4768984550       -3.2632030230  MEMB      400             0.0000000000
     49785       400  PYPG      H15S           58.2056956701       52.5634339828       -2.2940032827  MEMB      400             0.0000000000
     49786       400  PYPG      C216           58.8056983958       54.2146142096       -1.2821886091  MEMB      400             0.0000000000
     49787       400  PYPG      H16R           57.9487000830       54.0453737637       -0.5957254600  MEMB      400             0.0000000000
     49788       400  PYPG      H16S           59.0228857706       55.3014312936       -1.3595162675  MEMB      400             0.0000000000
     49789       400  PYPG      H16T           59.6327223319       53.7314555075       -0.7192418739  MEMB      400             0.0000000000
     49790       400  PYPG      C33            52.1430722818       52.8212024351       -9.7452549051  MEMB      400             0.0000000000
     49791       400  PYPG      H3X            52.6775492171       52.0767742013      -10.3733334495  MEMB      400             0.0000000000
     49792       400  PYPG      H3Y            51.2970545401       53.2954766828      -10.2871398981  MEMB      400             0.0000000000
     49793       400  PYPG      C34            51.5377506666       52.1699282671       -8.4652869562  MEMB      400             0.0000000000
     49794       400  PYPG      H4X            51.2480282040       52.9755833375       -7.7572600458  MEMB      400             0.0000000000
     49795       400  PYPG      H4Y            52.3001601320       51.6585696053       -7.8395351847  MEMB      400             0.0000000000
     49796       400  PYPG      C35            50.2175750963       51.4637302599       -8.7146750538  MEMB      400             0.0000000000
     49797       400  PYPG      H5X            49.5915484244       52.1696555531       -9.3012584053  MEMB      400             0.0000000000
     49798       400  PYPG      H5Y            49.7779870072       51.3731128493       -7.6983717548  MEMB      400             0.0000000000
     49799       400  PYPG      C36            50.2312661446       50.1989110964       -9.5129338662  MEMB      400             0.0000000000
     49800       400  PYPG      H6X            50.5902913117       50.4694748222      -10.5289144021  MEMB      400             0.0000000000
     49801       400  PYPG      H6Y            49.1671310544       49.9398541588       -9.6995529308  MEMB      400             0.0000000000
     49802       400  PYPG      C37            51.0966192844       49.0504852556       -8.9869821603  MEMB      400             0.0000000000
     49803       400  PYPG      H7X            51.0133651747       48.3192499277       -9.8192587876  MEMB      400             0.0000000000
     49804       400  PYPG      H7Y            52.1567869545       49.3792392285       -9.0347949611  MEMB      400             0.0000000000
     49805       400  PYPG      C38            50.6605160652       48.3250257266       -7.7584451929  MEMB      400             0.0000000000
     49806       400  PYPG      H8X            51.2116476977       47.3630227371       -7.6868555697  MEMB      400             0.0000000000
     49807       400  PYPG      H8Y            49.5907499320       48.0251580495       -7.7574990148  MEMB      400             0.0000000000
     49808       400  PYPG      C39            51.1230581664       49.0506997292       -6.4742865032  MEMB      400             0.0000000000
     49809       400  PYPG      H9X            50.4064503944       49.8779307175       -6.2832811806  MEMB      400             0.0000000000
     49810       400  PYPG      H9Y            52.1618637888       49.4417101193       -6.5223995983  MEMB      400             0.0000000000
     49811       400  PYPG      C310           51.0013239885       48.1824467362       -5.2516596479  MEMB      400             0.0000000000
     49812       400  PYPG      H10X           51.8030983537       47.4142147656       -5.2876923714  MEMB      400             0.0000000000
     49813       400  PYPG      H10Y           50.0653661689       47.5839169825       -5.2435757667  MEMB      400             0.0000000000
     49814       400  PYPG      C311           51.1588165520       48.9779388960       -3.9141498773  MEMB      400             0.0000000000
     49815       400  PYPG      H11X           50.6997230541       48.5765960477       -2.9854540425  MEMB      400             0.0000000000
     49816       400  PYPG      H11Y           50.5910278984       49.9081658955       -4.1300542910  MEMB      400             0.0000000000
     49817       400  PYPG      C312           52.6286498224       49.3519106184       -3.6206624093  MEMB      400             0.0000000000
     49818       400  PYPG      H12X           53.1721855763       49.8097077934       -4.4746599255  MEMB      400             0.0000000000
     49819       400  PYPG      H12Y           52.6529044395       50.0826362816       -2.7841378418  MEMB      400             0.0000000000
     49820       400  PYPG      C313           53.5943215676       48.2152525498       -3.1281223279  MEMB      400             0.0000000000
     49821       400  PYPG      H13X           53.1113495573       47.5013721714       -2.4270983721  MEMB      400             0.0000000000
     49822       400  PYPG      H13Y           53.9083971722       47.5228344165       -3.9382049489  MEMB      400             0.0000000000
     49823       400  PYPG      C314           54.9048413630       48.7348110888       -2.4547183981  MEMB      400             0.0000000000
     49824       400  PYPG      H14X           55.5234417312       47.9030940960       -2.0548435233  MEMB      400             0.0000000000
     49825       400  PYPG      H14Y           55.4519183949       49.2562430710       -3.2690504586  MEMB      400             0.0000000000
     49826       400  PYPG      C315           54.6342826485       49.7026596317       -1.2235955726  MEMB      400             0.0000000000
     49827       400  PYPG      H15X           55.6460587958       49.6791676456       -0.7652527309  MEMB      400             0.0000000000
     49828       400  PYPG      H15Y           54.4624245290       50.7369125724       -1.5911642324  MEMB      400             0.0000000000
     49829       400  PYPG      C316           53.7846795928       49.1219597405       -0.0806369490  MEMB      400             0.0000000000
     49830       400  PYPG      H16X           54.3856420402       48.5173352600        0.6318180326  MEMB      400             0.0000000000
     49831       400  PYPG      H16Y           52.9496209822       48.5074810950       -0.4799054567  MEMB      400             0.0000000000
     49832       400  PYPG      H16Z           53.3443021224       49.8794249013        0.6024690175  MEMB      400             0.0000000000
