PSF EXT CMAP XPLOR

         3 !NTITLE
* GENERATED BY CHARMM-GUI (HTTP://WWW.CHARMM-GUI.ORG) V3.7 ON JUL, 03. 2026. JOB
* GENERATES LIPID PACKING USING BIG SPHERES                                     
*  DATE:     7/ 3/26      3:41:12      CREATED BY USER: charmm-gui              

       400 !NATOM
         1 HEAD     1        POPE     POLO     POLO      0.00000       30.9740           0
         2 HEAD     2        POPE     POLO     POLO      0.00000       30.9740           0
         3 HEAD     3        POPE     POLO     POLO      0.00000       30.9740           0
         4 HEAD     4        POPE     POLO     POLO      0.00000       30.9740           0
         5 HEAD     5        POPE     POLO     POLO      0.00000       30.9740           0
         6 HEAD     6        POPE     POLO     POLO      0.00000       30.9740           0
         7 HEAD     7        POPE     POLO     POLO      0.00000       30.9740           0
         8 HEAD     8        POPE     POLO     POLO      0.00000       30.9740           0
         9 HEAD     9        POPE     POLO     POLO      0.00000       30.9740           0
        10 HEAD     10       POPE     POLO     POLO      0.00000       30.9740           0
        11 HEAD     11       POPE     POLO     POLO      0.00000       30.9740           0
        12 HEAD     12       POPE     POLO     POLO      0.00000       30.9740           0
        13 HEAD     13       POPE     POLO     POLO      0.00000       30.9740           0
        14 HEAD     14       POPE     POLO     POLO      0.00000       30.9740           0
        15 HEAD     15       POPE     POLO     POLO      0.00000       30.9740           0
        16 HEAD     16       POPE     POLO     POLO      0.00000       30.9740           0
        17 HEAD     17       POPE     POLO     POLO      0.00000       30.9740           0
        18 HEAD     18       POPE     POLO     POLO      0.00000       30.9740           0
        19 HEAD     19       POPE     POLO     POLO      0.00000       30.9740           0
        20 HEAD     20       POPE     POLO     POLO      0.00000       30.9740           0
        21 HEAD     21       POPE     POLO     POLO      0.00000       30.9740           0
        22 HEAD     22       POPE     POLO     POLO      0.00000       30.9740           0
        23 HEAD     23       POPE     POLO     POLO      0.00000       30.9740           0
        24 HEAD     24       POPE     POLO     POLO      0.00000       30.9740           0
        25 HEAD     25       POPE     POLO     POLO      0.00000       30.9740           0
        26 HEAD     26       POPE     POLO     POLO      0.00000       30.9740           0
        27 HEAD     27       OYPE     POLO     POLO      0.00000       30.9740           0
        28 HEAD     28       OYPE     POLO     POLO      0.00000       30.9740           0
        29 HEAD     29       OYPE     POLO     POLO      0.00000       30.9740           0
        30 HEAD     30       OYPE     POLO     POLO      0.00000       30.9740           0
        31 HEAD     31       OYPE     POLO     POLO      0.00000       30.9740           0
        32 HEAD     32       OYPE     POLO     POLO      0.00000       30.9740           0
        33 HEAD     33       OYPE     POLO     POLO      0.00000       30.9740           0
        34 HEAD     34       OYPE     POLO     POLO      0.00000       30.9740           0
        35 HEAD     35       OYPE     POLO     POLO      0.00000       30.9740           0
        36 HEAD     36       OYPE     POLO     POLO      0.00000       30.9740           0
        37 HEAD     37       OYPE     POLO     POLO      0.00000       30.9740           0
        38 HEAD     38       OYPE     POLO     POLO      0.00000       30.9740           0
        39 HEAD     39       OYPE     POLO     POLO      0.00000       30.9740           0
        40 HEAD     40       OYPE     POLO     POLO      0.00000       30.9740           0
        41 HEAD     41       OYPE     POLO     POLO      0.00000       30.9740           0
        42 HEAD     42       OYPE     POLO     POLO      0.00000       30.9740           0
        43 HEAD     43       PYPG     POLO     POLO     -1.00000       30.9740           0
        44 HEAD     44       PYPG     POLO     POLO     -1.00000       30.9740           0
        45 HEAD     45       PYPG     POLO     POLO     -1.00000       30.9740           0
        46 HEAD     46       PYPG     POLO     POLO     -1.00000       30.9740           0
        47 HEAD     47       PYPG     POLO     POLO     -1.00000       30.9740           0
        48 HEAD     48       PYPG     POLO     POLO     -1.00000       30.9740           0
        49 HEAD     49       PYPG     POLO     POLO     -1.00000       30.9740           0
        50 HEAD     50       PYPG     POLO     POLO     -1.00000       30.9740           0
        51 HEAD     51       PYPG     POLO     POLO     -1.00000       30.9740           0
        52 HEAD     52       PYPG     POLO     POLO     -1.00000       30.9740           0
        53 HEAD     53       PYPG     POLO     POLO     -1.00000       30.9740           0
        54 HEAD     54       PYPG     POLO     POLO     -1.00000       30.9740           0
        55 HEAD     55       PYPG     POLO     POLO     -1.00000       30.9740           0
        56 HEAD     56       PYPG     POLO     POLO     -1.00000       30.9740           0
        57 HEAD     57       PYPG     POLO     POLO     -1.00000       30.9740           0
        58 HEAD     58       PYPG     POLO     POLO     -1.00000       30.9740           0
        59 HEAD     59       PYPG     POLO     POLO     -1.00000       30.9740           0
        60 HEAD     60       PYPG     POLO     POLO     -1.00000       30.9740           0
        61 HEAD     61       PVCL2    POLO     POL2     -2.00000       30.9740           0
        62 HEAD     62       PVCL2    POLO     POL2     -2.00000       30.9740           0
        63 HEAD     63       PVCL2    POLO     POL2     -2.00000       30.9740           0
        64 HEAD     64       PVCL2    POLO     POL2     -2.00000       30.9740           0
        65 HEAD     65       QMPE     POLO     POLO      0.00000       30.9740           0
        66 HEAD     66       QMPE     POLO     POLO      0.00000       30.9740           0
        67 HEAD     67       QMPE     POLO     POLO      0.00000       30.9740           0
        68 HEAD     68       QMPE     POLO     POLO      0.00000       30.9740           0
        69 HEAD     69       QMPE     POLO     POLO      0.00000       30.9740           0
        70 HEAD     70       QMPE     POLO     POLO      0.00000       30.9740           0
        71 HEAD     71       QMPE     POLO     POLO      0.00000       30.9740           0
        72 HEAD     72       QMPE     POLO     POLO      0.00000       30.9740           0
        73 HEAD     73       QMPE     POLO     POLO      0.00000       30.9740           0
        74 HEAD     74       QMPE     POLO     POLO      0.00000       30.9740           0
        75 HEAD     75       QMPE     POLO     POLO      0.00000       30.9740           0
        76 HEAD     76       QMPE     POLO     POLO      0.00000       30.9740           0
        77 HEAD     77       QMPE     POLO     POLO      0.00000       30.9740           0
        78 HEAD     78       QMPE     POLO     POLO      0.00000       30.9740           0
        79 HEAD     79       QMPE     POLO     POLO      0.00000       30.9740           0
        80 HEAD     80       QMPE     POLO     POLO      0.00000       30.9740           0
        81 HEAD     81       QMPE     POLO     POLO      0.00000       30.9740           0
        82 HEAD     82       QMPE     POLO     POLO      0.00000       30.9740           0
        83 HEAD     83       QMPE     POLO     POLO      0.00000       30.9740           0
        84 HEAD     84       QMPE     POLO     POLO      0.00000       30.9740           0
        85 HEAD     85       QMPE     POLO     POLO      0.00000       30.9740           0
        86 HEAD     86       QMPE     POLO     POLO      0.00000       30.9740           0
        87 HEAD     87       QMPE     POLO     POLO      0.00000       30.9740           0
        88 HEAD     88       QMPE     POLO     POLO      0.00000       30.9740           0
        89 HEAD     89       PMPE     POLO     POLO      0.00000       30.9740           0
        90 HEAD     90       PMPE     POLO     POLO      0.00000       30.9740           0
        91 HEAD     91       PMPE     POLO     POLO      0.00000       30.9740           0
        92 HEAD     92       PMPE     POLO     POLO      0.00000       30.9740           0
        93 HEAD     93       PMPE     POLO     POLO      0.00000       30.9740           0
        94 HEAD     94       PMPE     POLO     POLO      0.00000       30.9740           0
        95 HEAD     95       PMPE     POLO     POLO      0.00000       30.9740           0
        96 HEAD     96       PMPE     POLO     POLO      0.00000       30.9740           0
        97 HEAD     97       PMPE     POLO     POLO      0.00000       30.9740           0
        98 HEAD     98       PMPE     POLO     POLO      0.00000       30.9740           0
        99 HEAD     99       PMPE     POLO     POLO      0.00000       30.9740           0
       100 HEAD     100      PMPE     POLO     POLO      0.00000       30.9740           0
       101 HEAD     101      PMPE     POLO     POLO      0.00000       30.9740           0
       102 HEAD     102      PMPE     POLO     POLO      0.00000       30.9740           0
       103 HEAD     103      PMPE     POLO     POLO      0.00000       30.9740           0
       104 HEAD     104      PMPE     POLO     POLO      0.00000       30.9740           0
       105 HEAD     105      PMPE     POLO     POLO      0.00000       30.9740           0
       106 HEAD     106      PMPE     POLO     POLO      0.00000       30.9740           0
       107 HEAD     107      PMPE     POLO     POLO      0.00000       30.9740           0
       108 HEAD     108      PMPE     POLO     POLO      0.00000       30.9740           0
       109 HEAD     109      PMPE     POLO     POLO      0.00000       30.9740           0
       110 HEAD     110      PMPE     POLO     POLO      0.00000       30.9740           0
       111 HEAD     111      PMPE     POLO     POLO      0.00000       30.9740           0
       112 HEAD     112      PMPE     POLO     POLO      0.00000       30.9740           0
       113 HEAD     113      PMPE     POLO     POLO      0.00000       30.9740           0
       114 HEAD     114      PMPE     POLO     POLO      0.00000       30.9740           0
       115 HEAD     115      PMPE     POLO     POLO      0.00000       30.9740           0
       116 HEAD     116      PMPE     POLO     POLO      0.00000       30.9740           0
       117 HEAD     117      PMPE     POLO     POLO      0.00000       30.9740           0
       118 HEAD     118      PMPE     POLO     POLO      0.00000       30.9740           0
       119 HEAD     119      PMPE     POLO     POLO      0.00000       30.9740           0
       120 HEAD     120      PMPE     POLO     POLO      0.00000       30.9740           0
       121 HEAD     121      PMPE     POLO     POLO      0.00000       30.9740           0
       122 HEAD     122      PMPE     POLO     POLO      0.00000       30.9740           0
       123 HEAD     123      PMPE     POLO     POLO      0.00000       30.9740           0
       124 HEAD     124      PMPE     POLO     POLO      0.00000       30.9740           0
       125 HEAD     125      PMPE     POLO     POLO      0.00000       30.9740           0
       126 HEAD     126      PMPE     POLO     POLO      0.00000       30.9740           0
       127 HEAD     127      PMPE     POLO     POLO      0.00000       30.9740           0
       128 HEAD     128      PMPE     POLO     POLO      0.00000       30.9740           0
       129 HEAD     129      PMPE     POLO     POLO      0.00000       30.9740           0
       130 HEAD     130      PMPE     POLO     POLO      0.00000       30.9740           0
       131 HEAD     131      PMPE     POLO     POLO      0.00000       30.9740           0
       132 HEAD     132      PMPE     POLO     POLO      0.00000       30.9740           0
       133 HEAD     133      PMPE     POLO     POLO      0.00000       30.9740           0
       134 HEAD     134      PMPE     POLO     POLO      0.00000       30.9740           0
       135 HEAD     135      PMPE     POLO     POLO      0.00000       30.9740           0
       136 HEAD     136      PMPE     POLO     POLO      0.00000       30.9740           0
       137 HEAD     137      PMPE     POLO     POLO      0.00000       30.9740           0
       138 HEAD     138      PMPE     POLO     POLO      0.00000       30.9740           0
       139 HEAD     139      PMPE     POLO     POLO      0.00000       30.9740           0
       140 HEAD     140      PMPE     POLO     POLO      0.00000       30.9740           0
       141 HEAD     141      PMPE     POLO     POLO      0.00000       30.9740           0
       142 HEAD     142      PMPE     POLO     POLO      0.00000       30.9740           0
       143 HEAD     143      PMPE     POLO     POLO      0.00000       30.9740           0
       144 HEAD     144      PMPE     POLO     POLO      0.00000       30.9740           0
       145 HEAD     145      PMPE     POLO     POLO      0.00000       30.9740           0
       146 HEAD     146      PMPE     POLO     POLO      0.00000       30.9740           0
       147 HEAD     147      PMPE     POLO     POLO      0.00000       30.9740           0
       148 HEAD     148      PMPE     POLO     POLO      0.00000       30.9740           0
       149 HEAD     149      PMPE     POLO     POLO      0.00000       30.9740           0
       150 HEAD     150      PMPE     POLO     POLO      0.00000       30.9740           0
       151 HEAD     151      PMPE     POLO     POLO      0.00000       30.9740           0
       152 HEAD     152      PMPE     POLO     POLO      0.00000       30.9740           0
       153 HEAD     153      PMPE     POLO     POLO      0.00000       30.9740           0
       154 HEAD     154      PMPE     POLO     POLO      0.00000       30.9740           0
       155 HEAD     155      PMPE     POLO     POLO      0.00000       30.9740           0
       156 HEAD     156      PMPE     POLO     POLO      0.00000       30.9740           0
       157 HEAD     157      PMPE     POLO     POLO      0.00000       30.9740           0
       158 HEAD     158      PMPE     POLO     POLO      0.00000       30.9740           0
       159 HEAD     159      PMPE     POLO     POLO      0.00000       30.9740           0
       160 HEAD     160      PMPE     POLO     POLO      0.00000       30.9740           0
       161 HEAD     161      PMPE     POLO     POLO      0.00000       30.9740           0
       162 HEAD     162      PMPE     POLO     POLO      0.00000       30.9740           0
       163 HEAD     163      PMPE     POLO     POLO      0.00000       30.9740           0
       164 HEAD     164      PMPE     POLO     POLO      0.00000       30.9740           0
       165 HEAD     165      PMPE     POLO     POLO      0.00000       30.9740           0
       166 HEAD     166      PMPE     POLO     POLO      0.00000       30.9740           0
       167 HEAD     167      PMPE     POLO     POLO      0.00000       30.9740           0
       168 HEAD     168      PMPE     POLO     POLO      0.00000       30.9740           0
       169 HEAD     169      PMPE     POLO     POLO      0.00000       30.9740           0
       170 HEAD     170      PMPE     POLO     POLO      0.00000       30.9740           0
       171 HEAD     171      PMPE     POLO     POLO      0.00000       30.9740           0
       172 HEAD     172      PMPE     POLO     POLO      0.00000       30.9740           0
       173 HEAD     173      PMPE     POLO     POLO      0.00000       30.9740           0
       174 HEAD     174      PMPE     POLO     POLO      0.00000       30.9740           0
       175 HEAD     175      PMPE     POLO     POLO      0.00000       30.9740           0
       176 HEAD     176      PMPE     POLO     POLO      0.00000       30.9740           0
       177 HEAD     177      PMPE     POLO     POLO      0.00000       30.9740           0
       178 HEAD     178      PMPE     POLO     POLO      0.00000       30.9740           0
       179 HEAD     179      PMPE     POLO     POLO      0.00000       30.9740           0
       180 HEAD     180      PMPE     POLO     POLO      0.00000       30.9740           0
       181 HEAD     181      PMPG     POLO     POLO     -1.00000       30.9740           0
       182 HEAD     182      PMPG     POLO     POLO     -1.00000       30.9740           0
       183 HEAD     183      PMPG     POLO     POLO     -1.00000       30.9740           0
       184 HEAD     184      PMPG     POLO     POLO     -1.00000       30.9740           0
       185 HEAD     185      PMPG     POLO     POLO     -1.00000       30.9740           0
       186 HEAD     186      PMPG     POLO     POLO     -1.00000       30.9740           0
       187 HEAD     187      PMPG     POLO     POLO     -1.00000       30.9740           0
       188 HEAD     188      PMPG     POLO     POLO     -1.00000       30.9740           0
       189 HEAD     189      PMPG     POLO     POLO     -1.00000       30.9740           0
       190 HEAD     190      PMPG     POLO     POLO     -1.00000       30.9740           0
       191 HEAD     191      PMPG     POLO     POLO     -1.00000       30.9740           0
       192 HEAD     192      PMPG     POLO     POLO     -1.00000       30.9740           0
       193 HEAD     193      PMPG     POLO     POLO     -1.00000       30.9740           0
       194 HEAD     194      PMPG     POLO     POLO     -1.00000       30.9740           0
       195 HEAD     195      PMPG     POLO     POLO     -1.00000       30.9740           0
       196 HEAD     196      PMPG     POLO     POLO     -1.00000       30.9740           0
       197 HEAD     197      PMPG     POLO     POLO     -1.00000       30.9740           0
       198 HEAD     198      PMPG     POLO     POLO     -1.00000       30.9740           0
       199 HEAD     199      PMPG     POLO     POLO     -1.00000       30.9740           0
       200 HEAD     200      PMPG     POLO     POLO     -1.00000       30.9740           0
       201 HEAD     201      POPE     POLO     POLO      0.00000       30.9740           0
       202 HEAD     202      POPE     POLO     POLO      0.00000       30.9740           0
       203 HEAD     203      POPE     POLO     POLO      0.00000       30.9740           0
       204 HEAD     204      POPE     POLO     POLO      0.00000       30.9740           0
       205 HEAD     205      POPE     POLO     POLO      0.00000       30.9740           0
       206 HEAD     206      POPE     POLO     POLO      0.00000       30.9740           0
       207 HEAD     207      POPE     POLO     POLO      0.00000       30.9740           0
       208 HEAD     208      POPE     POLO     POLO      0.00000       30.9740           0
       209 HEAD     209      POPE     POLO     POLO      0.00000       30.9740           0
       210 HEAD     210      POPE     POLO     POLO      0.00000       30.9740           0
       211 HEAD     211      POPE     POLO     POLO      0.00000       30.9740           0
       212 HEAD     212      POPE     POLO     POLO      0.00000       30.9740           0
       213 HEAD     213      POPE     POLO     POLO      0.00000       30.9740           0
       214 HEAD     214      POPE     POLO     POLO      0.00000       30.9740           0
       215 HEAD     215      POPE     POLO     POLO      0.00000       30.9740           0
       216 HEAD     216      POPE     POLO     POLO      0.00000       30.9740           0
       217 HEAD     217      POPE     POLO     POLO      0.00000       30.9740           0
       218 HEAD     218      POPE     POLO     POLO      0.00000       30.9740           0
       219 HEAD     219      POPE     POLO     POLO      0.00000       30.9740           0
       220 HEAD     220      POPE     POLO     POLO      0.00000       30.9740           0
       221 HEAD     221      POPE     POLO     POLO      0.00000       30.9740           0
       222 HEAD     222      POPE     POLO     POLO      0.00000       30.9740           0
       223 HEAD     223      POPE     POLO     POLO      0.00000       30.9740           0
       224 HEAD     224      POPE     POLO     POLO      0.00000       30.9740           0
       225 HEAD     225      POPE     POLO     POLO      0.00000       30.9740           0
       226 HEAD     226      POPE     POLO     POLO      0.00000       30.9740           0
       227 HEAD     227      OYPE     POLO     POLO      0.00000       30.9740           0
       228 HEAD     228      OYPE     POLO     POLO      0.00000       30.9740           0
       229 HEAD     229      OYPE     POLO     POLO      0.00000       30.9740           0
       230 HEAD     230      OYPE     POLO     POLO      0.00000       30.9740           0
       231 HEAD     231      OYPE     POLO     POLO      0.00000       30.9740           0
       232 HEAD     232      OYPE     POLO     POLO      0.00000       30.9740           0
       233 HEAD     233      OYPE     POLO     POLO      0.00000       30.9740           0
       234 HEAD     234      OYPE     POLO     POLO      0.00000       30.9740           0
       235 HEAD     235      OYPE     POLO     POLO      0.00000       30.9740           0
       236 HEAD     236      OYPE     POLO     POLO      0.00000       30.9740           0
       237 HEAD     237      OYPE     POLO     POLO      0.00000       30.9740           0
       238 HEAD     238      OYPE     POLO     POLO      0.00000       30.9740           0
       239 HEAD     239      OYPE     POLO     POLO      0.00000       30.9740           0
       240 HEAD     240      OYPE     POLO     POLO      0.00000       30.9740           0
       241 HEAD     241      OYPE     POLO     POLO      0.00000       30.9740           0
       242 HEAD     242      OYPE     POLO     POLO      0.00000       30.9740           0
       243 HEAD     243      PYPG     POLO     POLO     -1.00000       30.9740           0
       244 HEAD     244      PYPG     POLO     POLO     -1.00000       30.9740           0
       245 HEAD     245      PYPG     POLO     POLO     -1.00000       30.9740           0
       246 HEAD     246      PYPG     POLO     POLO     -1.00000       30.9740           0
       247 HEAD     247      PYPG     POLO     POLO     -1.00000       30.9740           0
       248 HEAD     248      PYPG     POLO     POLO     -1.00000       30.9740           0
       249 HEAD     249      PYPG     POLO     POLO     -1.00000       30.9740           0
       250 HEAD     250      PYPG     POLO     POLO     -1.00000       30.9740           0
       251 HEAD     251      PYPG     POLO     POLO     -1.00000       30.9740           0
       252 HEAD     252      PYPG     POLO     POLO     -1.00000       30.9740           0
       253 HEAD     253      PYPG     POLO     POLO     -1.00000       30.9740           0
       254 HEAD     254      PYPG     POLO     POLO     -1.00000       30.9740           0
       255 HEAD     255      PYPG     POLO     POLO     -1.00000       30.9740           0
       256 HEAD     256      PYPG     POLO     POLO     -1.00000       30.9740           0
       257 HEAD     257      PYPG     POLO     POLO     -1.00000       30.9740           0
       258 HEAD     258      PYPG     POLO     POLO     -1.00000       30.9740           0
       259 HEAD     259      PYPG     POLO     POLO     -1.00000       30.9740           0
       260 HEAD     260      PYPG     POLO     POLO     -1.00000       30.9740           0
       261 HEAD     261      PVCL2    POLO     POL2     -2.00000       30.9740           0
       262 HEAD     262      PVCL2    POLO     POL2     -2.00000       30.9740           0
       263 HEAD     263      PVCL2    POLO     POL2     -2.00000       30.9740           0
       264 HEAD     264      PVCL2    POLO     POL2     -2.00000       30.9740           0
       265 HEAD     265      QMPE     POLO     POLO      0.00000       30.9740           0
       266 HEAD     266      QMPE     POLO     POLO      0.00000       30.9740           0
       267 HEAD     267      QMPE     POLO     POLO      0.00000       30.9740           0
       268 HEAD     268      QMPE     POLO     POLO      0.00000       30.9740           0
       269 HEAD     269      QMPE     POLO     POLO      0.00000       30.9740           0
       270 HEAD     270      QMPE     POLO     POLO      0.00000       30.9740           0
       271 HEAD     271      QMPE     POLO     POLO      0.00000       30.9740           0
       272 HEAD     272      QMPE     POLO     POLO      0.00000       30.9740           0
       273 HEAD     273      QMPE     POLO     POLO      0.00000       30.9740           0
       274 HEAD     274      QMPE     POLO     POLO      0.00000       30.9740           0
       275 HEAD     275      QMPE     POLO     POLO      0.00000       30.9740           0
       276 HEAD     276      QMPE     POLO     POLO      0.00000       30.9740           0
       277 HEAD     277      QMPE     POLO     POLO      0.00000       30.9740           0
       278 HEAD     278      QMPE     POLO     POLO      0.00000       30.9740           0
       279 HEAD     279      QMPE     POLO     POLO      0.00000       30.9740           0
       280 HEAD     280      QMPE     POLO     POLO      0.00000       30.9740           0
       281 HEAD     281      QMPE     POLO     POLO      0.00000       30.9740           0
       282 HEAD     282      QMPE     POLO     POLO      0.00000       30.9740           0
       283 HEAD     283      QMPE     POLO     POLO      0.00000       30.9740           0
       284 HEAD     284      QMPE     POLO     POLO      0.00000       30.9740           0
       285 HEAD     285      QMPE     POLO     POLO      0.00000       30.9740           0
       286 HEAD     286      QMPE     POLO     POLO      0.00000       30.9740           0
       287 HEAD     287      QMPE     POLO     POLO      0.00000       30.9740           0
       288 HEAD     288      QMPE     POLO     POLO      0.00000       30.9740           0
       289 HEAD     289      PMPE     POLO     POLO      0.00000       30.9740           0
       290 HEAD     290      PMPE     POLO     POLO      0.00000       30.9740           0
       291 HEAD     291      PMPE     POLO     POLO      0.00000       30.9740           0
       292 HEAD     292      PMPE     POLO     POLO      0.00000       30.9740           0
       293 HEAD     293      PMPE     POLO     POLO      0.00000       30.9740           0
       294 HEAD     294      PMPE     POLO     POLO      0.00000       30.9740           0
       295 HEAD     295      PMPE     POLO     POLO      0.00000       30.9740           0
       296 HEAD     296      PMPE     POLO     POLO      0.00000       30.9740           0
       297 HEAD     297      PMPE     POLO     POLO      0.00000       30.9740           0
       298 HEAD     298      PMPE     POLO     POLO      0.00000       30.9740           0
       299 HEAD     299      PMPE     POLO     POLO      0.00000       30.9740           0
       300 HEAD     300      PMPE     POLO     POLO      0.00000       30.9740           0
       301 HEAD     301      PMPE     POLO     POLO      0.00000       30.9740           0
       302 HEAD     302      PMPE     POLO     POLO      0.00000       30.9740           0
       303 HEAD     303      PMPE     POLO     POLO      0.00000       30.9740           0
       304 HEAD     304      PMPE     POLO     POLO      0.00000       30.9740           0
       305 HEAD     305      PMPE     POLO     POLO      0.00000       30.9740           0
       306 HEAD     306      PMPE     POLO     POLO      0.00000       30.9740           0
       307 HEAD     307      PMPE     POLO     POLO      0.00000       30.9740           0
       308 HEAD     308      PMPE     POLO     POLO      0.00000       30.9740           0
       309 HEAD     309      PMPE     POLO     POLO      0.00000       30.9740           0
       310 HEAD     310      PMPE     POLO     POLO      0.00000       30.9740           0
       311 HEAD     311      PMPE     POLO     POLO      0.00000       30.9740           0
       312 HEAD     312      PMPE     POLO     POLO      0.00000       30.9740           0
       313 HEAD     313      PMPE     POLO     POLO      0.00000       30.9740           0
       314 HEAD     314      PMPE     POLO     POLO      0.00000       30.9740           0
       315 HEAD     315      PMPE     POLO     POLO      0.00000       30.9740           0
       316 HEAD     316      PMPE     POLO     POLO      0.00000       30.9740           0
       317 HEAD     317      PMPE     POLO     POLO      0.00000       30.9740           0
       318 HEAD     318      PMPE     POLO     POLO      0.00000       30.9740           0
       319 HEAD     319      PMPE     POLO     POLO      0.00000       30.9740           0
       320 HEAD     320      PMPE     POLO     POLO      0.00000       30.9740           0
       321 HEAD     321      PMPE     POLO     POLO      0.00000       30.9740           0
       322 HEAD     322      PMPE     POLO     POLO      0.00000       30.9740           0
       323 HEAD     323      PMPE     POLO     POLO      0.00000       30.9740           0
       324 HEAD     324      PMPE     POLO     POLO      0.00000       30.9740           0
       325 HEAD     325      PMPE     POLO     POLO      0.00000       30.9740           0
       326 HEAD     326      PMPE     POLO     POLO      0.00000       30.9740           0
       327 HEAD     327      PMPE     POLO     POLO      0.00000       30.9740           0
       328 HEAD     328      PMPE     POLO     POLO      0.00000       30.9740           0
       329 HEAD     329      PMPE     POLO     POLO      0.00000       30.9740           0
       330 HEAD     330      PMPE     POLO     POLO      0.00000       30.9740           0
       331 HEAD     331      PMPE     POLO     POLO      0.00000       30.9740           0
       332 HEAD     332      PMPE     POLO     POLO      0.00000       30.9740           0
       333 HEAD     333      PMPE     POLO     POLO      0.00000       30.9740           0
       334 HEAD     334      PMPE     POLO     POLO      0.00000       30.9740           0
       335 HEAD     335      PMPE     POLO     POLO      0.00000       30.9740           0
       336 HEAD     336      PMPE     POLO     POLO      0.00000       30.9740           0
       337 HEAD     337      PMPE     POLO     POLO      0.00000       30.9740           0
       338 HEAD     338      PMPE     POLO     POLO      0.00000       30.9740           0
       339 HEAD     339      PMPE     POLO     POLO      0.00000       30.9740           0
       340 HEAD     340      PMPE     POLO     POLO      0.00000       30.9740           0
       341 HEAD     341      PMPE     POLO     POLO      0.00000       30.9740           0
       342 HEAD     342      PMPE     POLO     POLO      0.00000       30.9740           0
       343 HEAD     343      PMPE     POLO     POLO      0.00000       30.9740           0
       344 HEAD     344      PMPE     POLO     POLO      0.00000       30.9740           0
       345 HEAD     345      PMPE     POLO     POLO      0.00000       30.9740           0
       346 HEAD     346      PMPE     POLO     POLO      0.00000       30.9740           0
       347 HEAD     347      PMPE     POLO     POLO      0.00000       30.9740           0
       348 HEAD     348      PMPE     POLO     POLO      0.00000       30.9740           0
       349 HEAD     349      PMPE     POLO     POLO      0.00000       30.9740           0
       350 HEAD     350      PMPE     POLO     POLO      0.00000       30.9740           0
       351 HEAD     351      PMPE     POLO     POLO      0.00000       30.9740           0
       352 HEAD     352      PMPE     POLO     POLO      0.00000       30.9740           0
       353 HEAD     353      PMPE     POLO     POLO      0.00000       30.9740           0
       354 HEAD     354      PMPE     POLO     POLO      0.00000       30.9740           0
       355 HEAD     355      PMPE     POLO     POLO      0.00000       30.9740           0
       356 HEAD     356      PMPE     POLO     POLO      0.00000       30.9740           0
       357 HEAD     357      PMPE     POLO     POLO      0.00000       30.9740           0
       358 HEAD     358      PMPE     POLO     POLO      0.00000       30.9740           0
       359 HEAD     359      PMPE     POLO     POLO      0.00000       30.9740           0
       360 HEAD     360      PMPE     POLO     POLO      0.00000       30.9740           0
       361 HEAD     361      PMPE     POLO     POLO      0.00000       30.9740           0
       362 HEAD     362      PMPE     POLO     POLO      0.00000       30.9740           0
       363 HEAD     363      PMPE     POLO     POLO      0.00000       30.9740           0
       364 HEAD     364      PMPE     POLO     POLO      0.00000       30.9740           0
       365 HEAD     365      PMPE     POLO     POLO      0.00000       30.9740           0
       366 HEAD     366      PMPE     POLO     POLO      0.00000       30.9740           0
       367 HEAD     367      PMPE     POLO     POLO      0.00000       30.9740           0
       368 HEAD     368      PMPE     POLO     POLO      0.00000       30.9740           0
       369 HEAD     369      PMPE     POLO     POLO      0.00000       30.9740           0
       370 HEAD     370      PMPE     POLO     POLO      0.00000       30.9740           0
       371 HEAD     371      PMPE     POLO     POLO      0.00000       30.9740           0
       372 HEAD     372      PMPE     POLO     POLO      0.00000       30.9740           0
       373 HEAD     373      PMPE     POLO     POLO      0.00000       30.9740           0
       374 HEAD     374      PMPE     POLO     POLO      0.00000       30.9740           0
       375 HEAD     375      PMPE     POLO     POLO      0.00000       30.9740           0
       376 HEAD     376      PMPE     POLO     POLO      0.00000       30.9740           0
       377 HEAD     377      PMPE     POLO     POLO      0.00000       30.9740           0
       378 HEAD     378      PMPE     POLO     POLO      0.00000       30.9740           0
       379 HEAD     379      PMPE     POLO     POLO      0.00000       30.9740           0
       380 HEAD     380      PMPE     POLO     POLO      0.00000       30.9740           0
       381 HEAD     381      PMPG     POLO     POLO     -1.00000       30.9740           0
       382 HEAD     382      PMPG     POLO     POLO     -1.00000       30.9740           0
       383 HEAD     383      PMPG     POLO     POLO     -1.00000       30.9740           0
       384 HEAD     384      PMPG     POLO     POLO     -1.00000       30.9740           0
       385 HEAD     385      PMPG     POLO     POLO     -1.00000       30.9740           0
       386 HEAD     386      PMPG     POLO     POLO     -1.00000       30.9740           0
       387 HEAD     387      PMPG     POLO     POLO     -1.00000       30.9740           0
       388 HEAD     388      PMPG     POLO     POLO     -1.00000       30.9740           0
       389 HEAD     389      PMPG     POLO     POLO     -1.00000       30.9740           0
       390 HEAD     390      PMPG     POLO     POLO     -1.00000       30.9740           0
       391 HEAD     391      PMPG     POLO     POLO     -1.00000       30.9740           0
       392 HEAD     392      PMPG     POLO     POLO     -1.00000       30.9740           0
       393 HEAD     393      PMPG     POLO     POLO     -1.00000       30.9740           0
       394 HEAD     394      PMPG     POLO     POLO     -1.00000       30.9740           0
       395 HEAD     395      PMPG     POLO     POLO     -1.00000       30.9740           0
       396 HEAD     396      PMPG     POLO     POLO     -1.00000       30.9740           0
       397 HEAD     397      PMPG     POLO     POLO     -1.00000       30.9740           0
       398 HEAD     398      PMPG     POLO     POLO     -1.00000       30.9740           0
       399 HEAD     399      PMPG     POLO     POLO     -1.00000       30.9740           0
       400 HEAD     400      PMPG     POLO     POLO     -1.00000       30.9740           0

         0 !NBOND: bonds


         0 !NTHETA: angles


         0 !NPHI: dihedrals


         0 !NIMPHI: impropers


         0 !NDON: donors


         0 !NACC: acceptors


         0 !NNB

         0         0         0         0         0         0         0         0
         0         0         0         0         0         0         0         0
         0         0         0         0         0         0         0         0
         0         0         0         0         0         0         0         0
         0         0         0         0         0         0         0         0
         0         0         0         0         0         0         0         0
         0         0         0         0         0         0         0         0
         0         0         0         0         0         0         0         0
         0         0         0         0         0         0         0         0
         0         0         0         0         0         0         0         0
         0         0         0         0         0         0         0         0
         0         0         0         0         0         0         0         0
         0         0         0         0         0         0         0         0
         0         0         0         0         0         0         0         0
         0         0         0         0         0         0         0         0
         0         0         0         0         0         0         0         0
         0         0         0         0         0         0         0         0
         0         0         0         0         0         0         0         0
         0         0         0         0         0         0         0         0
         0         0         0         0         0         0         0         0
         0         0         0         0         0         0         0         0
         0         0         0         0         0         0         0         0
         0         0         0         0         0         0         0         0
         0         0         0         0         0         0         0         0
         0         0         0         0         0         0         0         0
         0         0         0         0         0         0         0         0
         0         0         0         0         0         0         0         0
         0         0         0         0         0         0         0         0
         0         0         0         0         0         0         0         0
         0         0         0         0         0         0         0         0
         0         0         0         0         0         0         0         0
         0         0         0         0         0         0         0         0
         0         0         0         0         0         0         0         0
         0         0         0         0         0         0         0         0
         0         0         0         0         0         0         0         0
         0         0         0         0         0         0         0         0
         0         0         0         0         0         0         0         0
         0         0         0         0         0         0         0         0
         0         0         0         0         0         0         0         0
         0         0         0         0         0         0         0         0
         0         0         0         0         0         0         0         0
         0         0         0         0         0         0         0         0
         0         0         0         0         0         0         0         0
         0         0         0         0         0         0         0         0
         0         0         0         0         0         0         0         0
         0         0         0         0         0         0         0         0
         0         0         0         0         0         0         0         0
         0         0         0         0         0         0         0         0
         0         0         0         0         0         0         0         0
         0         0         0         0         0         0         0         0

       400         0 !NGRP NST2
         0         0         0         1         0         0         2         0         0
         3         0         0         4         0         0         5         0         0
         6         0         0         7         0         0         8         0         0
         9         0         0        10         0         0        11         0         0
        12         0         0        13         0         0        14         0         0
        15         0         0        16         0         0        17         0         0
        18         0         0        19         0         0        20         0         0
        21         0         0        22         0         0        23         0         0
        24         0         0        25         0         0        26         0         0
        27         0         0        28         0         0        29         0         0
        30         0         0        31         0         0        32         0         0
        33         0         0        34         0         0        35         0         0
        36         0         0        37         0         0        38         0         0
        39         0         0        40         0         0        41         0         0
        42         0         0        43         0         0        44         0         0
        45         0         0        46         0         0        47         0         0
        48         0         0        49         0         0        50         0         0
        51         0         0        52         0         0        53         0         0
        54         0         0        55         0         0        56         0         0
        57         0         0        58         0         0        59         0         0
        60         0         0        61         0         0        62         0         0
        63         0         0        64         0         0        65         0         0
        66         0         0        67         0         0        68         0         0
        69         0         0        70         0         0        71         0         0
        72         0         0        73         0         0        74         0         0
        75         0         0        76         0         0        77         0         0
        78         0         0        79         0         0        80         0         0
        81         0         0        82         0         0        83         0         0
        84         0         0        85         0         0        86         0         0
        87         0         0        88         0         0        89         0         0
        90         0         0        91         0         0        92         0         0
        93         0         0        94         0         0        95         0         0
        96         0         0        97         0         0        98         0         0
        99         0         0       100         0         0       101         0         0
       102         0         0       103         0         0       104         0         0
       105         0         0       106         0         0       107         0         0
       108         0         0       109         0         0       110         0         0
       111         0         0       112         0         0       113         0         0
       114         0         0       115         0         0       116         0         0
       117         0         0       118         0         0       119         0         0
       120         0         0       121         0         0       122         0         0
       123         0         0       124         0         0       125         0         0
       126         0         0       127         0         0       128         0         0
       129         0         0       130         0         0       131         0         0
       132         0         0       133         0         0       134         0         0
       135         0         0       136         0         0       137         0         0
       138         0         0       139         0         0       140         0         0
       141         0         0       142         0         0       143         0         0
       144         0         0       145         0         0       146         0         0
       147         0         0       148         0         0       149         0         0
       150         0         0       151         0         0       152         0         0
       153         0         0       154         0         0       155         0         0
       156         0         0       157         0         0       158         0         0
       159         0         0       160         0         0       161         0         0
       162         0         0       163         0         0       164         0         0
       165         0         0       166         0         0       167         0         0
       168         0         0       169         0         0       170         0         0
       171         0         0       172         0         0       173         0         0
       174         0         0       175         0         0       176         0         0
       177         0         0       178         0         0       179         0         0
       180         0         0       181         0         0       182         0         0
       183         0         0       184         0         0       185         0         0
       186         0         0       187         0         0       188         0         0
       189         0         0       190         0         0       191         0         0
       192         0         0       193         0         0       194         0         0
       195         0         0       196         0         0       197         0         0
       198         0         0       199         0         0       200         0         0
       201         0         0       202         0         0       203         0         0
       204         0         0       205         0         0       206         0         0
       207         0         0       208         0         0       209         0         0
       210         0         0       211         0         0       212         0         0
       213         0         0       214         0         0       215         0         0
       216         0         0       217         0         0       218         0         0
       219         0         0       220         0         0       221         0         0
       222         0         0       223         0         0       224         0         0
       225         0         0       226         0         0       227         0         0
       228         0         0       229         0         0       230         0         0
       231         0         0       232         0         0       233         0         0
       234         0         0       235         0         0       236         0         0
       237         0         0       238         0         0       239         0         0
       240         0         0       241         0         0       242         0         0
       243         0         0       244         0         0       245         0         0
       246         0         0       247         0         0       248         0         0
       249         0         0       250         0         0       251         0         0
       252         0         0       253         0         0       254         0         0
       255         0         0       256         0         0       257         0         0
       258         0         0       259         0         0       260         0         0
       261         0         0       262         0         0       263         0         0
       264         0         0       265         0         0       266         0         0
       267         0         0       268         0         0       269         0         0
       270         0         0       271         0         0       272         0         0
       273         0         0       274         0         0       275         0         0
       276         0         0       277         0         0       278         0         0
       279         0         0       280         0         0       281         0         0
       282         0         0       283         0         0       284         0         0
       285         0         0       286         0         0       287         0         0
       288         0         0       289         0         0       290         0         0
       291         0         0       292         0         0       293         0         0
       294         0         0       295         0         0       296         0         0
       297         0         0       298         0         0       299         0         0
       300         0         0       301         0         0       302         0         0
       303         0         0       304         0         0       305         0         0
       306         0         0       307         0         0       308         0         0
       309         0         0       310         0         0       311         0         0
       312         0         0       313         0         0       314         0         0
       315         0         0       316         0         0       317         0         0
       318         0         0       319         0         0       320         0         0
       321         0         0       322         0         0       323         0         0
       324         0         0       325         0         0       326         0         0
       327         0         0       328         0         0       329         0         0
       330         0         0       331         0         0       332         0         0
       333         0         0       334         0         0       335         0         0
       336         0         0       337         0         0       338         0         0
       339         0         0       340         0         0       341         0         0
       342         0         0       343         0         0       344         0         0
       345         0         0       346         0         0       347         0         0
       348         0         0       349         0         0       350         0         0
       351         0         0       352         0         0       353         0         0
       354         0         0       355         0         0       356         0         0
       357         0         0       358         0         0       359         0         0
       360         0         0       361         0         0       362         0         0
       363         0         0       364         0         0       365         0         0
       366         0         0       367         0         0       368         0         0
       369         0         0       370         0         0       371         0         0
       372         0         0       373         0         0       374         0         0
       375         0         0       376         0         0       377         0         0
       378         0         0       379         0         0       380         0         0
       381         0         0       382         0         0       383         0         0
       384         0         0       385         0         0       386         0         0
       387         0         0       388         0         0       389         0         0
       390         0         0       391         0         0       392         0         0
       393         0         0       394         0         0       395         0         0
       396         0         0       397         0         0       398         0         0
       399         0         0

         0         0 !NUMLP NUMLPH

         0 !NCRTERM: cross-terms

