* GENERATED BY CHARMM-GUI (HTTP://WWW.CHARMM-GUI.ORG) V3.7 ON JUL, 03. 2026. JOB
* GENERATES ION CONFORMATION USING MONTE-CARLO SIMULATION
*  DATE:     7/ 3/26      3:44:44      CREATED BY USER: charmm-gui
*
       180  EXT
         1         1  SOD       SOD             3.6296072500       32.1617037000      -37.2336361000  IONS      1               1.0000000000
         2         2  SOD       SOD           -26.6888749000       48.9381774000       38.5687254000  IONS      2               1.0000000000
         3         3  SOD       SOD           -47.1832911000       53.5494725000       28.1584912000  IONS      3               1.0000000000
         4         4  SOD       SOD            48.8323742470      -20.6196259066       30.4866433200  IONS      4               1.0000000000
         5         5  SOD       SOD            13.2573234000      -12.3684186000       41.2183984000  IONS      5               1.0000000000
         6         6  SOD       SOD            39.6420697000      -47.2991430000      -30.8438299000  IONS      6               1.0000000000
         7         7  SOD       SOD            51.0898389000        1.9989624800      -34.1203649000  IONS      7               1.0000000000
         8         8  SOD       SOD            19.6606382000       24.0344617000       24.9660439000  IONS      8               1.0000000000
         9         9  SOD       SOD            54.4237332000       54.5456687000      -29.3092412000  IONS      9               1.0000000000
        10        10  SOD       SOD            50.1665997630        5.5936149251      -23.6291051969  IONS      10              1.0000000000
        11        11  SOD       SOD           -55.2851983000      -13.6161571000       26.3593243000  IONS      11              1.0000000000
        12        12  SOD       SOD            51.0041334943       -9.4479812618      -27.9866428989  IONS      12              1.0000000000
        13        13  SOD       SOD            43.0681509000       31.4801585000       34.4785494000  IONS      13              1.0000000000
        14        14  SOD       SOD           -25.5958709000       -7.7401094400       33.2694984000  IONS      14              1.0000000000
        15        15  SOD       SOD            -5.5107343800      -11.6385537000      -27.9255471000  IONS      15              1.0000000000
        16        16  SOD       SOD           -14.2967730000       40.8556114000      -36.7403884000  IONS      16              1.0000000000
        17        17  SOD       SOD            18.2495906000       34.2767818000      -22.2626505000  IONS      17              1.0000000000
        18        18  SOD       SOD            55.4950436000       44.4920221000      -38.0357772000  IONS      18              1.0000000000
        19        19  SOD       SOD            35.6580660000       24.6312180000       40.6740536000  IONS      19              1.0000000000
        20        20  SOD       SOD            -8.6307086900       23.3952197000       25.3035969000  IONS      20              1.0000000000
        21        21  SOD       SOD           -18.4193809000       31.8386967000      -35.2471316000  IONS      21              1.0000000000
        22        22  SOD       SOD           -15.4498081000      -36.4959474000      -39.0863694000  IONS      22              1.0000000000
        23        23  SOD       SOD            -1.1120171700      -49.3180309000      -27.1134605000  IONS      23              1.0000000000
        24        24  SOD       SOD            15.2639547000      -36.0323347000       38.4608062000  IONS      24              1.0000000000
        25        25  SOD       SOD           -13.2813781000      -51.8086482000      -42.1217913000  IONS      25              1.0000000000
        26        26  SOD       SOD            21.2228302000      -48.8184466000       36.2444464000  IONS      26              1.0000000000
        27        27  SOD       SOD            28.9944812000      -23.5051557000      -34.4723564000  IONS      27              1.0000000000
        28        28  SOD       SOD           -45.7532993000       36.0621687000       28.7462774000  IONS      28              1.0000000000
        29        29  SOD       SOD             6.0764354100        4.0908027200      -37.3187766000  IONS      29              1.0000000000
        30        30  SOD       SOD            28.1877557000      -11.5655597000       28.4438761000  IONS      30              1.0000000000
        31        31  SOD       SOD           -37.0420046000       55.2386187000      -40.8565415000  IONS      31              1.0000000000
        32        32  SOD       SOD            56.1640528843       -8.7121978888       34.4289727268  IONS      32              1.0000000000
        33        33  SOD       SOD            39.7616144000       44.7924934000      -34.5325357000  IONS      33              1.0000000000
        34        34  SOD       SOD            32.8656819026        8.5895636483       31.1251463025  IONS      34              1.0000000000
        35        35  SOD       SOD            29.0465214000       16.1331909000      -32.0036787000  IONS      35              1.0000000000
        36        36  SOD       SOD           -41.1717517149       -7.9572431863       31.5160947303  IONS      36              1.0000000000
        37        37  SOD       SOD            32.5271605009       -0.9536932001      -38.3613826030  IONS      37              1.0000000000
        38        38  SOD       SOD           -46.4254498000       18.0997616000       28.0215773000  IONS      38              1.0000000000
        39        39  SOD       SOD            49.9608463000      -53.4964193000      -37.7697051000  IONS      39              1.0000000000
        40        40  SOD       SOD            14.4632232000       12.8182289000       31.4255983000  IONS      40              1.0000000000
        41        41  SOD       SOD           -24.7090534000      -35.8445767000       38.3953795000  IONS      41              1.0000000000
        42        42  SOD       SOD            19.4388281000      -16.3399892000      -26.1262567000  IONS      42              1.0000000000
        43        43  SOD       SOD           -17.2285847000      -10.5822280000       29.3628899000  IONS      43              1.0000000000
        44        44  SOD       SOD           -23.2269164000       11.6823399000       27.6391290000  IONS      44              1.0000000000
        45        45  SOD       SOD            23.6174667145      -14.9075279874       40.4920322944  IONS      45              1.0000000000
        46        46  SOD       SOD            26.1160042222      -17.5546487110      -23.8931205981  IONS      46              1.0000000000
        47        47  SOD       SOD            53.1648853000      -56.3436066000       22.5730843000  IONS      47              1.0000000000
        48        48  SOD       SOD           -53.8313499000        6.4016378500      -36.3132873000  IONS      48              1.0000000000
        49        49  SOD       SOD           -33.8068890000       -9.9882377100       33.5429386000  IONS      49              1.0000000000
        50        50  SOD       SOD            12.5787677000      -49.2988156000       25.2176212000  IONS      50              1.0000000000
        51        51  SOD       SOD             0.4459184740       53.5093954000      -34.8155299000  IONS      51              1.0000000000
        52        52  SOD       SOD            46.5959621000      -39.5675653000      -39.2274875000  IONS      52              1.0000000000
        53        53  SOD       SOD           -48.9155501000       37.9022686000      -27.2072060000  IONS      53              1.0000000000
        54        54  SOD       SOD            32.6452413939       -8.5655902029       38.2131214036  IONS      54              1.0000000000
        55        55  SOD       SOD           -25.1080829000       45.5174176000      -27.2735665000  IONS      55              1.0000000000
        56        56  SOD       SOD            54.2839214000       -7.3666195900      -40.1214077000  IONS      56              1.0000000000
        57        57  SOD       SOD           -49.1983286000       10.7629866000       26.5763945000  IONS      57              1.0000000000
        58        58  SOD       SOD           -30.0953019000      -31.6321577000       36.3974610000  IONS      58              1.0000000000
        59        59  SOD       SOD           -31.3786704000      -44.9975575000       40.0164692000  IONS      59              1.0000000000
        60        60  SOD       SOD           -49.7995565000      -40.4233415000       40.7612538000  IONS      60              1.0000000000
        61        61  SOD       SOD            -5.8150996500       15.4788418000       27.1078361000  IONS      61              1.0000000000
        62        62  SOD       SOD            -8.8927620613       45.4246845940       24.6259141038  IONS      62              1.0000000000
        63        63  SOD       SOD            26.0571938000       25.5938045000       27.4661732000  IONS      63              1.0000000000
        64        64  SOD       SOD           -31.2990795000      -50.1615809000      -27.5969454000  IONS      64              1.0000000000
        65        65  SOD       SOD            19.2946727000      -14.9760079000       33.5645471000  IONS      65              1.0000000000
        66        66  SOD       SOD            13.9462944000       -8.8019161400       29.2300342000  IONS      66              1.0000000000
        67        67  SOD       SOD            20.4466802000       18.3877357000       29.1625718000  IONS      67              1.0000000000
        68        68  SOD       SOD            18.2346696000       39.4778297000      -29.7278205000  IONS      68              1.0000000000
        69        69  SOD       SOD           -26.4076514000       28.6257741000      -41.2006006000  IONS      69              1.0000000000
        70        70  SOD       SOD           -16.9020093000       53.2759128000       36.5953473000  IONS      70              1.0000000000
        71        71  SOD       SOD            20.5440110000       29.6984713000       23.4159657000  IONS      71              1.0000000000
        72        72  SOD       SOD            36.1998115000       10.2875121000      -34.6562263000  IONS      72              1.0000000000
        73        73  SOD       SOD           -40.4798688000       36.3579714000      -34.6973283000  IONS      73              1.0000000000
        74        74  SOD       SOD            19.4535308000       49.8278092000       36.0593341000  IONS      74              1.0000000000
        75        75  SOD       SOD            15.7352375000      -16.4377368000      -32.7387226000  IONS      75              1.0000000000
        76        76  SOD       SOD           -41.2234995000       56.3871614000      -37.5429411000  IONS      76              1.0000000000
        77        77  SOD       SOD            53.1558359000      -47.4755388000      -26.9852354000  IONS      77              1.0000000000
        78        78  SOD       SOD           -46.2515198000       33.0232913000      -32.8778218000  IONS      78              1.0000000000
        79        79  SOD       SOD           -14.3828864000        9.8164524300       38.6648745000  IONS      79              1.0000000000
        80        80  SOD       SOD           -12.7907438000        8.2517414800      -38.0309040000  IONS      80              1.0000000000
        81        81  SOD       SOD           -39.5745325000        1.9255187900      -30.3749622000  IONS      81              1.0000000000
        82        82  SOD       SOD            52.3509266000       55.8341522000      -37.4310962000  IONS      82              1.0000000000
        83        83  SOD       SOD            39.9511828000       47.8432737000      -25.7000848000  IONS      83              1.0000000000
        84        84  SOD       SOD           -23.6977692000      -38.1796943000      -39.8597309000  IONS      84              1.0000000000
        85        85  SOD       SOD            -9.9668706642       14.8965049391       33.0935127927  IONS      85              1.0000000000
        86        86  SOD       SOD            12.0063956000       12.6644743000       41.4496411000  IONS      86              1.0000000000
        87        87  SOD       SOD            47.5117435000      -13.4948028000       36.8091882000  IONS      87              1.0000000000
        88        88  SOD       SOD           -56.0116820000       40.8639749000      -22.6187371000  IONS      88              1.0000000000
        89        89  SOD       SOD           -44.8040095000       33.6657259000      -26.5740155000  IONS      89              1.0000000000
        90        90  SOD       SOD            -1.8028142600      -36.3361581000       29.8839609000  IONS      90              1.0000000000
        91        91  SOD       SOD            22.1712190985       -3.6242011994      -31.6680198988  IONS      91              1.0000000000
        92        92  SOD       SOD            54.6691788671      -54.8554433901      -31.1531418611  IONS      92              1.0000000000
        93        93  SOD       SOD           -18.6117609000      -41.9531569000      -28.9269548000  IONS      93              1.0000000000
        94        94  SOD       SOD            26.7699786000      -28.0267539000       41.4701400000  IONS      94              1.0000000000
        95        95  SOD       SOD           -42.9930924000      -32.2377305000      -39.6875624000  IONS      95              1.0000000000
        96        96  SOD       SOD           -24.2426305000        3.9354327200      -30.5089205000  IONS      96              1.0000000000
        97        97  SOD       SOD           -12.0275239000      -30.1953745000       29.3963888000  IONS      97              1.0000000000
        98        98  SOD       SOD            40.5781790000      -19.9470570000       29.4800954000  IONS      98              1.0000000000
        99        99  SOD       SOD            10.4385545000       41.1658391000      -26.7734391000  IONS      99              1.0000000000
       100       100  SOD       SOD            47.7785888000       20.6754502000       40.4060787000  IONS      100             1.0000000000
       101       101  SOD       SOD             9.3899415100       26.0589520000       28.9457931000  IONS      101             1.0000000000
       102       102  SOD       SOD            17.1990618092       44.4200044469      -36.4320947245  IONS      102             1.0000000000
       103       103  SOD       SOD            43.5332775000       52.9141715000       29.4172874000  IONS      103             1.0000000000
       104       104  SOD       SOD           -31.9779804000       17.1149560000      -33.0472352000  IONS      104             1.0000000000
       105       105  SOD       SOD            -2.3022731872      -39.3216116867      -37.7492762869  IONS      105             1.0000000000
       106       106  SOD       SOD            50.1081011000       32.9967466000       26.4492917000  IONS      106             1.0000000000
       107       107  SOD       SOD            39.9124985000      -16.0148770000      -39.1366762000  IONS      107             1.0000000000
       108       108  SOD       SOD           -47.0200250000      -22.3922318000       30.7500938000  IONS      108             1.0000000000
       109       109  SOD       SOD             5.3241673500       34.8161274000       40.8658087000  IONS      109             1.0000000000
       110       110  SOD       SOD            13.8901096000      -53.8455352000      -40.5038685000  IONS      110             1.0000000000
       111       111  SOD       SOD           -52.9130279102        8.5426228372      -26.5330551989  IONS      111             1.0000000000
       112       112  SOD       SOD            19.8271695000      -25.6764856000      -39.0830386000  IONS      112             1.0000000000
       113       113  SOD       SOD           -35.4779809000      -47.8614815000       33.6710761000  IONS      113             1.0000000000
       114       114  SOD       SOD            52.5928031000      -21.7893326000      -31.0583758000  IONS      114             1.0000000000
       115       115  SOD       SOD            48.4886484000      -17.7034055000       34.6567239000  IONS      115             1.0000000000
       116       116  SOD       SOD            19.4182803000       40.3295538000       30.7102110000  IONS      116             1.0000000000
       117       117  SOD       SOD            -8.0870370700       15.1000192000       37.4785952000  IONS      117             1.0000000000
       118       118  SOD       SOD            14.7948648123       54.9828824982       40.6826200697  IONS      118             1.0000000000
       119       119  SOD       SOD            31.1049424858      -31.6520960999       35.2323060755  IONS      119             1.0000000000
       120       120  SOD       SOD            -7.4227941915       10.8203871838      -27.3072765976  IONS      120             1.0000000000
       121       121  SOD       SOD           -31.1253150000      -43.6639017000      -23.3707352000  IONS      121             1.0000000000
       122       122  SOD       SOD            -9.4883456045      -13.1521338061      -30.4297021057  IONS      122             1.0000000000
       123       123  SOD       SOD           -49.8695201000        4.3915572600       29.5888593000  IONS      123             1.0000000000
       124       124  SOD       SOD            -6.0902489300      -28.2862213000       39.9338154000  IONS      124             1.0000000000
       125       125  SOD       SOD           -42.9489783000      -44.6053052000      -41.2191078000  IONS      125             1.0000000000
       126       126  SOD       SOD            50.3552911000       24.1998541000      -32.7369094000  IONS      126             1.0000000000
       127       127  SOD       SOD           -11.2930439000       48.1387345000       34.0128153000  IONS      127             1.0000000000
       128       128  SOD       SOD           -15.0893923000      -37.5913669000       35.0622625000  IONS      128             1.0000000000
       129       129  SOD       SOD            50.8278963000       34.9656850000      -32.1015854000  IONS      129             1.0000000000
       130       130  SOD       SOD           -56.0878925000      -18.1300054000       37.6197631000  IONS      130             1.0000000000
       131       131  SOD       SOD           -35.3267676064      -48.1261521090       25.6033088833  IONS      131             1.0000000000
       132       132  SOD       SOD            -9.8660242400       20.2766272000       29.2728738000  IONS      132             1.0000000000
       133       133  SOD       SOD            27.8280090000      -43.0959642000      -34.3997601000  IONS      133             1.0000000000
       134       134  SOD       SOD            20.5023455000       -7.8246643600      -39.4588751000  IONS      134             1.0000000000
       135       135  SOD       SOD           -53.0168104906      -42.5038702967      -28.6194755995  IONS      135             1.0000000000
       136       136  SOD       SOD            51.9342343867      -28.5871891763      -41.2510974873  IONS      136             1.0000000000
       137       137  CLA       CLA           -43.6683273000      -43.9739108000      -33.1579941000  IONS      137            -1.0000000000
       138       138  CLA       CLA           -31.0828460000      -36.2266226000      -36.1734668000  IONS      138            -1.0000000000
       139       139  CLA       CLA           -49.1904288000        9.7997890300       39.1340377000  IONS      139            -1.0000000000
       140       140  CLA       CLA            12.0190056000       35.7786509000       34.6378971000  IONS      140            -1.0000000000
       141       141  CLA       CLA            26.3359620000      -55.1183453000       35.9127449000  IONS      141            -1.0000000000
       142       142  CLA       CLA           -10.2295451000       28.3067912000       30.4339432000  IONS      142            -1.0000000000
       143       143  CLA       CLA           -52.2012218831      -23.1717825075      -31.1762927094  IONS      143            -1.0000000000
       144       144  CLA       CLA           -14.0550521000      -26.5376763000       37.0114370000  IONS      144            -1.0000000000
       145       145  CLA       CLA            41.7553573000       13.1709065000       40.6208912000  IONS      145            -1.0000000000
       146       146  CLA       CLA            45.5374655000       21.1065318000       34.3869182000  IONS      146            -1.0000000000
       147       147  CLA       CLA            54.2350048000      -45.3721491000      -36.7704620000  IONS      147            -1.0000000000
       148       148  CLA       CLA            18.9178095000       22.2291654000       29.3202569000  IONS      148            -1.0000000000
       149       149  CLA       CLA            25.9902104000       28.1374091000       38.2937488000  IONS      149            -1.0000000000
       150       150  CLA       CLA            -3.2543157493      -19.3759407100       25.0807713628  IONS      150            -1.0000000000
       151       151  CLA       CLA           -20.5792330000        8.7725117200       34.6840669000  IONS      151            -1.0000000000
       152       152  CLA       CLA             9.8654362500       10.6122749000       31.9424593000  IONS      152            -1.0000000000
       153       153  CLA       CLA             7.6207830800       -8.3215135200       36.7042818000  IONS      153            -1.0000000000
       154       154  CLA       CLA            54.6798139000       13.5819268000       33.4266299000  IONS      154            -1.0000000000
       155       155  CLA       CLA             8.1538665800       19.5626077000      -36.5901755000  IONS      155            -1.0000000000
       156       156  CLA       CLA            19.9290017000      -19.2905153000       31.6497129000  IONS      156            -1.0000000000
       157       157  CLA       CLA           -38.2286655000      -44.5784549000       32.7506956000  IONS      157            -1.0000000000
       158       158  CLA       CLA           -35.1715563000       19.1363800000      -41.9782434000  IONS      158            -1.0000000000
       159       159  CLA       CLA            23.4463049566      -19.7194776337       32.2671340120  IONS      159            -1.0000000000
       160       160  CLA       CLA           -41.2188982000       45.9399608000      -37.5302403000  IONS      160            -1.0000000000
       161       161  CLA       CLA             0.0493200743      -29.3416319000       42.0211325000  IONS      161            -1.0000000000
       162       162  CLA       CLA           -12.7022451000       -8.0536030700       25.7546558000  IONS      162            -1.0000000000
       163       163  CLA       CLA             2.9242193200      -41.3462142000       30.9975865000  IONS      163            -1.0000000000
       164       164  CLA       CLA           -19.9987647000        1.3528879900      -35.6756419000  IONS      164            -1.0000000000
       165       165  CLA       CLA           -39.9506445000       16.7432451000      -30.8360730000  IONS      165            -1.0000000000
       166       166  CLA       CLA             7.8371364900      -21.7779705000      -40.9587694000  IONS      166            -1.0000000000
       167       167  CLA       CLA           -11.7961991000       14.5510679000       27.9341418000  IONS      167            -1.0000000000
       168       168  CLA       CLA           -44.1856454000      -20.0581755000      -33.3027126000  IONS      168            -1.0000000000
       169       169  CLA       CLA           -18.3155275000      -31.0141698000      -41.5247570000  IONS      169            -1.0000000000
       170       170  CLA       CLA            19.2022263967       45.0056021988      -27.8497252093  IONS      170            -1.0000000000
       171       171  CLA       CLA            17.5680368814       45.4979936291       28.3648559105  IONS      171            -1.0000000000
       172       172  CLA       CLA            44.5074308000      -46.1278047000      -29.5992890000  IONS      172            -1.0000000000
       173       173  CLA       CLA           -49.4540742000       46.1563009000      -31.3989234000  IONS      173            -1.0000000000
       174       174  CLA       CLA            -3.7609933300      -19.0060435000       33.8180588000  IONS      174            -1.0000000000
       175       175  CLA       CLA           -44.8713340000      -11.4526145000      -33.6288336000  IONS      175            -1.0000000000
       176       176  CLA       CLA            17.7048695000       46.5314426000       40.7797214000  IONS      176            -1.0000000000
       177       177  CLA       CLA            10.1964310000      -55.3396171000      -32.9837425000  IONS      177            -1.0000000000
       178       178  CLA       CLA           -13.2979836000      -22.1435205000      -28.4584768000  IONS      178            -1.0000000000
       179       179  CLA       CLA           -19.3357063000       56.1252978000      -26.5774223000  IONS      179            -1.0000000000
       180       180  CLA       CLA           -12.0211969000        7.6171248500       41.4287932000  IONS      180            -1.0000000000
