* GENERATED BY CHARMM-GUI (HTTP://WWW.CHARMM-GUI.ORG) V3.7 ON JUL, 03. 2026. JOB
* GENERATES LIPID PACKING USING BIG SPHERES
*  DATE:     7/ 3/26      3:41:12      CREATED BY USER: charmm-gui
*
       400  EXT
         1         1  POPE      POLO           32.5358573822       10.8993122167       11.9515425053  HEAD      1               0.0000000000
         2         2  POPE      POLO          -25.4447631018      -52.9302019782       11.9672185468  HEAD      2               0.0000000000
         3         3  POPE      POLO          -46.4440626401       52.4832416419       12.0797307947  HEAD      3               0.0000000000
         4         4  POPE      POLO            3.9210423013       -0.2792569173       11.9707867272  HEAD      4               0.0000000000
         5         5  POPE      POLO           21.9989151049       23.1433087146       11.9020867258  HEAD      5               0.0000000000
         6         6  POPE      POLO            0.3590603230       -8.2037267928       11.8889923946  HEAD      6               0.0000000000
         7         7  POPE      POLO          -55.5229200957      -45.6472697074       12.0223213012  HEAD      7               0.0000000000
         8         8  POPE      POLO           -3.0989342890      -31.0747159324       11.9762592708  HEAD      8               0.0000000000
         9         9  POPE      POLO          -22.5836015781       13.9510017632       11.9919876800  HEAD      9               0.0000000000
        10        10  POPE      POLO           -2.7585325137       22.0832475093       11.9580835620  HEAD      10              0.0000000000
        11        11  POPE      POLO           15.1035091429        8.3917692767       12.0270967967  HEAD      11              0.0000000000
        12        12  POPE      POLO          -39.9045668254       -5.4179405776       11.9683873906  HEAD      12              0.0000000000
        13        13  POPE      POLO           23.5711393430        9.5342462658       12.0654018735  HEAD      13              0.0000000000
        14        14  POPE      POLO           48.3854823825       -8.9522487648       11.8939905037  HEAD      14              0.0000000000
        15        15  POPE      POLO           -7.4652100412      -23.6203826220       11.9871738983  HEAD      15              0.0000000000
        16        16  POPE      POLO          -28.6804157917      -17.6044243753       11.9785133066  HEAD      16              0.0000000000
        17        17  POPE      POLO            2.0148538275       14.7801940874       12.0231254272  HEAD      17              0.0000000000
        18        18  POPE      POLO           39.3988431090      -32.4381470640       11.9652592740  HEAD      18              0.0000000000
        19        19  POPE      POLO            8.7270864056       -7.3356640155       11.9894938715  HEAD      19              0.0000000000
        20        20  POPE      POLO          -56.3975048761       -7.9690121759       12.0489668044  HEAD      20              0.0000000000
        21        21  POPE      POLO          -11.5703865094      -31.2925351752       11.9702467404  HEAD      21              0.0000000000
        22        22  POPE      POLO            0.7714096810      -53.8273619335       12.0181096082  HEAD      22              0.0000000000
        23        23  POPE      POLO          -33.8425549660      -11.3627611742       11.9423956154  HEAD      23              0.0000000000
        24        24  POPE      POLO           27.5257079691       44.6670814883       12.0148447199  HEAD      24              0.0000000000
        25        25  POPE      POLO          -50.8826778286      -53.0963474841       12.0368360332  HEAD      25              0.0000000000
        26        26  POPE      POLO          -33.7781527043      -38.1278816460       11.9767544016  HEAD      26              0.0000000000
        27        27  OYPE      POLO          -16.6719811927      -53.2725202370       11.9524519283  HEAD      27              0.0000000000
        28        28  OYPE      POLO          -27.3702679903       23.5313163702       12.0873390295  HEAD      28              0.0000000000
        29        29  OYPE      POLO           40.9081828941       12.5453470596       11.9298552837  HEAD      29              0.0000000000
        30        30  OYPE      POLO          -33.3707195323       45.4940646632       11.9835318163  HEAD      30              0.0000000000
        31        31  OYPE      POLO            0.5216506822       44.5172227068       11.9108011832  HEAD      31              0.0000000000
        32        32  OYPE      POLO          -51.0593302657        7.9057722927       11.9439157139  HEAD      32              0.0000000000
        33        33  OYPE      POLO           -3.5610516999       36.8519361047       11.9922190241  HEAD      33              0.0000000000
        34        34  OYPE      POLO            4.9112634713       37.4003166758       11.9912194798  HEAD      34              0.0000000000
        35        35  OYPE      POLO          -12.0546832123       52.3868008095       12.0047492761  HEAD      35              0.0000000000
        36        36  OYPE      POLO           50.6016052431       37.0850413402       11.9246913445  HEAD      36              0.0000000000
        37        37  OYPE      POLO            5.4903778128       22.4889713735       11.9275394382  HEAD      37              0.0000000000
        38        38  OYPE      POLO           35.3335628337      -39.9149155592       12.1363774147  HEAD      38              0.0000000000
        39        39  OYPE      POLO           53.2484921256      -53.1997588848       12.0485260662  HEAD      39              0.0000000000
        40        40  OYPE      POLO           36.3617263830      -53.9254142841       11.9692204170  HEAD      40              0.0000000000
        41        41  OYPE      POLO          -38.3420130576        2.6102972409       12.0080276539  HEAD      41              0.0000000000
        42        42  OYPE      POLO           52.8677294129      -38.3835139876       11.9400978406  HEAD      42              0.0000000000
        43        43  PYPG      POLO          -18.0487209068        6.7060340100       11.9179550539  HEAD      43              0.0000000000
        44        44  PYPG      POLO           30.0444186860      -18.3284847536       12.1326541356  HEAD      44              0.0000000000
        45        45  PYPG      POLO           26.1850009954       -4.0758045671       11.9687411207  HEAD      45              0.0000000000
        46        46  PYPG      POLO           42.7574183467       -2.0969850068       12.1013187462  HEAD      46              0.0000000000
        47        47  PYPG      POLO          -55.1161110851       52.1499054139       12.0940301779  HEAD      47              0.0000000000
        48        48  PYPG      POLO           -6.2693692706       14.5193963873       11.8996119505  HEAD      48              0.0000000000
        49        49  PYPG      POLO          -36.7305950394       38.1235622288       11.9802032463  HEAD      49              0.0000000000
        50        50  PYPG      POLO          -36.8235671196      -19.6509407872       11.9585958882  HEAD      50              0.0000000000
        51        51  PYPG      POLO           47.5506863838       29.0756942664       12.0515576931  HEAD      51              0.0000000000
        52        52  PYPG      POLO          -39.0369531300       16.3455817412       11.9088188514  HEAD      52              0.0000000000
        53        53  PYPG      POLO           13.3576711175      -32.4326324154       12.1253200610  HEAD      53              0.0000000000
        54        54  PYPG      POLO           24.9588653970       30.4827263674       12.0905577725  HEAD      54              0.0000000000
        55        55  PYPG      POLO          -19.3024716996       21.8877615444       11.8531110507  HEAD      55              0.0000000000
        56        56  PYPG      POLO          -40.4402816295       30.5193936918       11.9486356298  HEAD      56              0.0000000000
        57        57  PYPG      POLO           22.7345740311       51.5189990794       12.0081211318  HEAD      57              0.0000000000
        58        58  PYPG      POLO            9.2164779222      -39.5648276921       12.0871653718  HEAD      58              0.0000000000
        59        59  PYPG      POLO           48.8604997925       13.8243208306       12.0232839643  HEAD      59              0.0000000000
        60        60  PYPG      POLO          -20.7360018188       -1.5563318746       12.0515098215  HEAD      60              0.0000000000
        61        61  PVCL2     POLO           14.0710064249      -15.4373913479       12.0262780630  HEAD      61              0.0000000000
        62        62  PVCL2     POLO           32.5594346504       35.8582827610       12.0222341773  HEAD      62              0.0000000000
        63        63  PVCL2     POLO          -30.2733216969       -2.0632229204       11.9331635851  HEAD      63              0.0000000000
        64        64  PVCL2     POLO          -38.1913207516      -29.2223199921       12.0088673756  HEAD      64              0.0000000000
        65        65  QMPE      POLO           23.6498097562      -11.6953951667       12.0553223033  HEAD      65              0.0000000000
        66        66  QMPE      POLO           21.8595249017      -32.7002498485       11.9162900029  HEAD      66              0.0000000000
        67        67  QMPE      POLO           40.1716760792      -46.7153558687       12.1039142105  HEAD      67              0.0000000000
        68        68  QMPE      POLO          -34.1049394274      -52.7722324847       11.9922581542  HEAD      68              0.0000000000
        69        69  QMPE      POLO          -26.2910883852        6.6069988468       11.9421458287  HEAD      69              0.0000000000
        70        70  QMPE      POLO           38.9265483120       27.9652628717       11.8752306360  HEAD      70              0.0000000000
        71        71  QMPE      POLO          -14.2506969558       14.1309422823       11.9557818380  HEAD      71              0.0000000000
        72        72  QMPE      POLO           52.0901157672       21.8124062267       11.8813350864  HEAD      72              0.0000000000
        73        73  QMPE      POLO           -3.4491198353      -46.2319999320       12.0084594248  HEAD      73              0.0000000000
        74        74  QMPE      POLO          -50.7694311211      -15.2131839759       11.9285323901  HEAD      74              0.0000000000
        75        75  QMPE      POLO           -3.6340846634       51.8292646886       12.0902115753  HEAD      75              0.0000000000
        76        76  QMPE      POLO            0.8853962233       29.7718815518       11.9989578097  HEAD      76              0.0000000000
        77        77  QMPE      POLO          -20.7728284526      -45.7264248136       11.9443844712  HEAD      77              0.0000000000
        78        78  QMPE      POLO           45.4829600281       44.0958450580       11.9015009270  HEAD      78              0.0000000000
        79        79  QMPE      POLO           51.2753446308      -23.9364864320       11.9539984702  HEAD      79              0.0000000000
        80        80  QMPE      POLO           18.1854973593      -54.2768084442       11.9994039427  HEAD      80              0.0000000000
        81        81  QMPE      POLO          -34.1277953982        9.2072537750       12.1121636790  HEAD      81              0.0000000000
        82        82  QMPE      POLO          -51.3528999750      -37.9596663431       11.9321189777  HEAD      82              0.0000000000
        83        83  QMPE      POLO           44.8652777081      -53.6970574315       12.0539490361  HEAD      83              0.0000000000
        84        84  QMPE      POLO           22.1620647859       37.9126268029       11.9288238163  HEAD      84              0.0000000000
        85        85  QMPE      POLO            5.3309402657      -32.0741681718       12.0119473026  HEAD      85              0.0000000000
        86        86  QMPE      POLO          -15.6476653329       29.5004380728       11.9343558125  HEAD      86              0.0000000000
        87        87  QMPE      POLO           37.8779040555        4.7056328929       12.1512082372  HEAD      87              0.0000000000
        88        88  QMPE      POLO            0.6343613107      -38.7561259517       12.0713224884  HEAD      88              0.0000000000
        89        89  PMPE      POLO           36.9717625956       44.2344422885       11.8934730752  HEAD      89              0.0000000000
        90        90  PMPE      POLO           17.1476546442       30.1915079305       11.8895595672  HEAD      90              0.0000000000
        91        91  PMPE      POLO          -44.1722968933       23.2068772913       12.0327867177  HEAD      91              0.0000000000
        92        92  PMPE      POLO           27.3941408343       17.1434345547       11.9481027602  HEAD      92              0.0000000000
        93        93  PMPE      POLO           17.3973579448       -5.8370697332       12.2115703922  HEAD      93              0.0000000000
        94        94  PMPE      POLO           38.1207909787      -17.9811530025       12.1452619038  HEAD      94              0.0000000000
        95        95  PMPE      POLO           12.0060076094        0.6215175570       11.9730710800  HEAD      95              0.0000000000
        96        96  PMPE      POLO            8.9726817801       30.3387400586       11.9573720218  HEAD      96              0.0000000000
        97        97  PMPE      POLO           49.4019232118       51.6692818035       12.0714892412  HEAD      97              0.0000000000
        98        98  PMPE      POLO          -52.5755702993       22.7790883978       11.9006484646  HEAD      98              0.0000000000
        99        99  PMPE      POLO           34.7091892249      -25.4691218383       11.9470846213  HEAD      99              0.0000000000
       100       100  PMPE      POLO            4.5026330699      -15.9263021122       11.9147687152  HEAD      100             0.0000000000
       101       101  PMPE      POLO          -45.2345061132      -21.7057747327       11.9771838344  HEAD      101             0.0000000000
       102       102  PMPE      POLO          -23.9028566866       30.7892400835       11.9928454549  HEAD      102             0.0000000000
       103       103  PMPE      POLO          -15.8259002645      -23.8403016548       12.0307080312  HEAD      103             0.0000000000
       104       104  PMPE      POLO           18.4648928319       15.9574156929       12.1518613869  HEAD      104             0.0000000000
       105       105  PMPE      POLO          -48.2610232279       -7.1394503168       12.0799457065  HEAD      105             0.0000000000
       106       106  PMPE      POLO           46.0291324866      -16.9648229296       12.1026196246  HEAD      106             0.0000000000
       107       107  PMPE      POLO          -10.9276278130       21.9347842769       12.1037212977  HEAD      107             0.0000000000
       108       108  PMPE      POLO           26.4457986771      -40.0080035636       11.9318936463  HEAD      108             0.0000000000
       109       109  PMPE      POLO            4.8783439550       51.7226141395       12.0764237836  HEAD      109             0.0000000000
       110       110  PMPE      POLO           -9.6305052553        6.7466930631       11.9867058273  HEAD      110             0.0000000000
       111       111  PMPE      POLO          -41.8164356362       45.3367750342       12.0841853939  HEAD      111             0.0000000000
       112       112  PMPE      POLO           53.9724783703       44.6703732963       12.0022490843  HEAD      112             0.0000000000
       113       113  PMPE      POLO            0.8917252810      -23.5360043790       12.0162614529  HEAD      113             0.0000000000
       114       114  PMPE      POLO          -46.8076891087      -45.2922259482       11.9147094006  HEAD      114             0.0000000000
       115       115  PMPE      POLO          -35.6241117441       23.5863524295       12.0644244337  HEAD      115             0.0000000000
       116       116  PMPE      POLO           30.7534379087      -33.1407897093       11.9251362175  HEAD      116             0.0000000000
       117       117  PMPE      POLO          -30.5624091858       16.4972143167       11.9126420880  HEAD      117             0.0000000000
       118       118  PMPE      POLO          -11.8156021032      -16.3078248083       12.0685093408  HEAD      118             0.0000000000
       119       119  PMPE      POLO           30.9680009717       25.3239406139       11.9805423762  HEAD      119             0.0000000000
       120       120  PMPE      POLO           17.5507336580      -25.6401810411       12.0532061236  HEAD      120             0.0000000000
       121       121  PMPE      POLO           31.3376773140      -47.2054149555       12.0606054908  HEAD      121             0.0000000000
       122       122  PMPE      POLO           22.4014504219      -19.5992947287       12.0843450378  HEAD      122             0.0000000000
       123       123  PMPE      POLO           -4.3784625784       -0.9324863461       12.0263865257  HEAD      123             0.0000000000
       124       124  PMPE      POLO           13.5440828170       22.8257186156       11.9825552828  HEAD      124             0.0000000000
       125       125  PMPE      POLO          -25.2231157303       -9.9644352662       11.9551653383  HEAD      125             0.0000000000
       126       126  PMPE      POLO           44.1531490998      -39.2849068162       11.9720568784  HEAD      126             0.0000000000
       127       127  PMPE      POLO          -29.6552989780      -45.5809503234       11.8159009514  HEAD      127             0.0000000000
       128       128  PMPE      POLO          -28.4039045695       38.3728140449       11.9995674761  HEAD      128             0.0000000000
       129       129  PMPE      POLO           20.5169748175        1.9019212049       12.0213678018  HEAD      129             0.0000000000
       130       130  PMPE      POLO          -16.2115633968       45.2432266073       12.0465265254  HEAD      130             0.0000000000
       131       131  PMPE      POLO           42.3847779741       36.0658458229       12.0990672001  HEAD      131             0.0000000000
       132       132  PMPE      POLO           17.8937206371      -39.9909781612       12.0169280814  HEAD      132             0.0000000000
       133       133  PMPE      POLO          -24.7879796795       45.6260763276       12.0833505923  HEAD      133             0.0000000000
       134       134  PMPE      POLO          -46.0632571850        1.0307774261       11.9726976930  HEAD      134             0.0000000000
       135       135  PMPE      POLO           43.9936824553       20.7294990747       11.9521015360  HEAD      135             0.0000000000
       136       136  PMPE      POLO           10.2453987897       15.1529865928       12.0082757116  HEAD      136             0.0000000000
       137       137  PMPE      POLO          -55.8635409358       14.9960360564       11.9883105345  HEAD      137             0.0000000000
       138       138  PMPE      POLO            9.1618512992      -53.6604274115       11.9190075530  HEAD      138             0.0000000000
       139       139  PMPE      POLO          -29.4184024774       52.8110118524       12.0668501995  HEAD      139             0.0000000000
       140       140  PMPE      POLO           41.0035346256       51.4836109211       12.0638741905  HEAD      140             0.0000000000
       141       141  PMPE      POLO            6.9242715471        7.4809481138       11.9787772474  HEAD      141             0.0000000000
       142       142  PMPE      POLO          -20.7657358012       52.6350250064       11.9761671568  HEAD      142             0.0000000000
       143       143  PMPE      POLO           26.8113987386      -26.1552214356       12.0112825754  HEAD      143             0.0000000000
       144       144  PMPE      POLO          -38.3998361967      -45.4587814117       11.9908496882  HEAD      144             0.0000000000
       145       145  PMPE      POLO          -42.8262045837        9.1421342960       11.8830551314  HEAD      145             0.0000000000
       146       146  PMPE      POLO          -42.4644461391      -13.3704884460       12.0467108389  HEAD      146             0.0000000000
       147       147  PMPE      POLO          -12.3447702998      -46.0107605073       11.9561508866  HEAD      147             0.0000000000
       148       148  PMPE      POLO           32.2587951017       51.5788081517       12.0249749642  HEAD      148             0.0000000000
       149       149  PMPE      POLO            4.9523820816      -46.4380780148       12.0331523156  HEAD      149             0.0000000000
       150       150  PMPE      POLO          -53.8317851429       37.5011150162       11.8940210242  HEAD      150             0.0000000000
       151       151  PMPE      POLO          -42.4306102414      -52.6160619674       12.2114729547  HEAD      151             0.0000000000
       152       152  PMPE      POLO           55.6683508214       29.6704447317       12.0000008374  HEAD      152             0.0000000000
       153       153  PMPE      POLO           31.9663782629      -10.5398703298       12.0494713038  HEAD      153             0.0000000000
       154       154  PMPE      POLO            9.2973983787       44.7536115269       12.0782522991  HEAD      154             0.0000000000
       155       155  PMPE      POLO            9.2858847054      -24.2002117546       11.9313682806  HEAD      155             0.0000000000
       156       156  PMPE      POLO          -16.2248136082      -38.5025194203       12.0327366180  HEAD      156             0.0000000000
       157       157  PMPE      POLO           -1.4794476811        7.2059704910       12.0639257488  HEAD      157             0.0000000000
       158       158  PMPE      POLO           13.8877434939      -47.1202273134       12.0027261064  HEAD      158             0.0000000000
       159       159  PMPE      POLO          -20.1982417855      -31.2859426696       12.0148846394  HEAD      159             0.0000000000
       160       160  PMPE      POLO           56.3848628755      -30.8508345548       11.9719697225  HEAD      160             0.0000000000
       161       161  PMPE      POLO           53.8994843837        6.8160092811       12.0672778737  HEAD      161             0.0000000000
       162       162  PMPE      POLO          -16.8925092617       -9.1363268555       11.9968077710  HEAD      162             0.0000000000
       163       163  PMPE      POLO          -50.5226629488       45.0474336468       11.8984201465  HEAD      163             0.0000000000
       164       164  PMPE      POLO           -7.4202208866       29.4620139067       12.0610794740  HEAD      164             0.0000000000
       165       165  PMPE      POLO          -20.0108996940       38.0251211206       12.0007542113  HEAD      165             0.0000000000
       166       166  PMPE      POLO           -8.0595212689      -53.1205157782       12.0757764568  HEAD      166             0.0000000000
       167       167  PMPE      POLO           43.0257397263      -25.0056672065       11.9813256829  HEAD      167             0.0000000000
       168       168  PMPE      POLO          -37.9809076739       52.8178169454       12.1165715067  HEAD      168             0.0000000000
       169       169  PMPE      POLO          -24.2315092921      -24.2591972380       11.9901920848  HEAD      169             0.0000000000
       170       170  PMPE      POLO          -48.7817671750       30.3352935014       12.0559148572  HEAD      170             0.0000000000
       171       171  PMPE      POLO           -8.1909244574       -8.2462482738       11.9968185375  HEAD      171             0.0000000000
       172       172  PMPE      POLO           35.7659267327       18.7930414475       11.9311043421  HEAD      172             0.0000000000
       173       173  PMPE      POLO           47.8162407819      -31.5970037905       12.0693064608  HEAD      173             0.0000000000
       174       174  PMPE      POLO           54.0114685544      -15.9780641979       11.9077605906  HEAD      174             0.0000000000
       175       175  PMPE      POLO           34.6395671609       -2.8416476723       12.0057395885  HEAD      175             0.0000000000
       176       176  PMPE      POLO           -7.9785383720       44.5719354411       12.0002528791  HEAD      176             0.0000000000
       177       177  PMPE      POLO           50.8664557184       -0.8986781399       12.0231440520  HEAD      177             0.0000000000
       178       178  PMPE      POLO           48.8317394698      -45.9332956565       12.1266774427  HEAD      178             0.0000000000
       179       179  PMPE      POLO          -47.9878109321      -29.9844707436       11.9315955592  HEAD      179             0.0000000000
       180       180  PMPE      POLO           13.7483239814       51.8433583037       12.1896121121  HEAD      180             0.0000000000
       181       181  PMPG      POLO          -11.6737836211       36.7928059747       12.0602975828  HEAD      181             0.0000000000
       182       182  PMPG      POLO          -47.5206298675       15.5511017589       12.0443453434  HEAD      182             0.0000000000
       183       183  PMPG      POLO          -54.1264703870       -0.2391524872       11.9999321876  HEAD      183             0.0000000000
       184       184  PMPG      POLO           -7.8052338696      -38.8585401413       12.0393369881  HEAD      184             0.0000000000
       185       185  PMPG      POLO           27.2134969002      -54.5075378171       11.9591686118  HEAD      185             0.0000000000
       186       186  PMPG      POLO           29.0521415874        3.5239546081       12.0908858734  HEAD      186             0.0000000000
       187       187  PMPG      POLO          -53.3552951128      -23.0927019058       11.9067393146  HEAD      187             0.0000000000
       188       188  PMPG      POLO          -28.6567217983      -31.1796408750       11.9791169477  HEAD      188             0.0000000000
       189       189  PMPG      POLO           13.5526319342       37.4369389186       11.9688404217  HEAD      189             0.0000000000
       190       190  PMPG      POLO           45.8544278610        5.7655485484       11.9751901109  HEAD      190             0.0000000000
       191       191  PMPG      POLO           -3.7859808799      -15.9434851240       12.1299955532  HEAD      191             0.0000000000
       192       192  PMPG      POLO          -31.9932949736       30.8696660566       12.0834747991  HEAD      192             0.0000000000
       193       193  PMPG      POLO          -24.6813851036      -38.4030047240       11.9989275446  HEAD      193             0.0000000000
       194       194  PMPG      POLO          -45.4713496232       37.9231328346       12.0064940734  HEAD      194             0.0000000000
       195       195  PMPG      POLO          -20.2328453391      -16.8267937449       11.9075222257  HEAD      195             0.0000000000
       196       196  PMPG      POLO          -12.8327865425       -0.8621290139       11.8746448152  HEAD      196             0.0000000000
       197       197  PMPG      POLO           22.7020511167      -47.2377869699       12.0042691665  HEAD      197             0.0000000000
       198       198  PMPG      POLO          -42.6187745057      -37.9628494568       12.0786233461  HEAD      198             0.0000000000
       199       199  PMPG      POLO           17.9008473265       44.7740223753       12.0748960738  HEAD      199             0.0000000000
       200       200  PMPG      POLO           40.3347500190      -10.2125174059       12.0290688334  HEAD      200             0.0000000000
       201       201  POPE      POLO          -29.6417460639        3.5139264226      -12.0411749382  HEAD      201             0.0000000000
       202       202  POPE      POLO           47.5339245172      -36.0028633076      -11.9724649935  HEAD      202             0.0000000000
       203       203  POPE      POLO           51.2542942723      -28.3034820280      -12.0387553495  HEAD      203             0.0000000000
       204       204  POPE      POLO          -23.8409391422      -18.2280910821      -12.0653946328  HEAD      204             0.0000000000
       205       205  POPE      POLO          -18.3500033977       13.0728482380      -12.0641058568  HEAD      205             0.0000000000
       206       206  POPE      POLO           -6.1721274656       45.0917750924      -12.0602925813  HEAD      206             0.0000000000
       207       207  POPE      POLO           41.5393886468       47.0368744950      -12.0347685262  HEAD      207             0.0000000000
       208       208  POPE      POLO           46.2607501889       -6.2345858837      -11.8668986183  HEAD      208             0.0000000000
       209       209  POPE      POLO          -26.2152137623      -40.2812055760      -12.1931175432  HEAD      209             0.0000000000
       210       210  POPE      POLO          -19.9678686223       50.7830044302      -11.9732848491  HEAD      210             0.0000000000
       211       211  POPE      POLO           19.4636123738      -28.9200730011      -12.0165472449  HEAD      211             0.0000000000
       212       212  POPE      POLO           53.5833968489        8.9194624898      -12.2354680492  HEAD      212             0.0000000000
       213       213  POPE      POLO            5.0489664599       53.4918640849      -12.0223250699  HEAD      213             0.0000000000
       214       214  POPE      POLO           19.5626395948       25.3340357963      -11.9935100763  HEAD      214             0.0000000000
       215       215  POPE      POLO           -5.8418503609      -30.9278220569      -11.9656292202  HEAD      215             0.0000000000
       216       216  POPE      POLO           -4.7276461790      -45.6063346758      -12.0896377434  HEAD      216             0.0000000000
       217       217  POPE      POLO          -34.5204770510      -41.3519119486      -12.0770631487  HEAD      217             0.0000000000
       218       218  POPE      POLO          -44.7268804815      -27.2970840112      -12.0127232397  HEAD      218             0.0000000000
       219       219  POPE      POLO          -39.5240105764      -34.3851230846      -12.0621439938  HEAD      219             0.0000000000
       220       220  POPE      POLO          -42.6416435795        9.5376122626      -11.9837497199  HEAD      220             0.0000000000
       221       221  POPE      POLO          -55.6550714732       16.3717374410      -11.9258766519  HEAD      221             0.0000000000
       222       222  POPE      POLO           41.6162752025      -51.3003248744      -12.0323108898  HEAD      222             0.0000000000
       223       223  POPE      POLO          -11.1433504716       28.9749360602      -12.0051110455  HEAD      223             0.0000000000
       224       224  POPE      POLO          -54.5971022333      -50.3617148084      -11.9449982836  HEAD      224             0.0000000000
       225       225  POPE      POLO          -50.0226616624       55.4952641759      -12.0713865189  HEAD      225             0.0000000000
       226       226  POPE      POLO           27.8697439850       24.0954182867      -12.0574392611  HEAD      226             0.0000000000
       227       227  OYPE      POLO          -16.6901135888       35.9742395067      -11.8894857034  HEAD      227             0.0000000000
       228       228  OYPE      POLO          -14.4073820646       43.7143360251      -12.0748466406  HEAD      228             0.0000000000
       229       229  OYPE      POLO           16.7734992986      -50.8276694022      -12.1120580211  HEAD      229             0.0000000000
       230       230  OYPE      POLO            7.2268727420      -36.9373074569      -11.8957176194  HEAD      230             0.0000000000
       231       231  OYPE      POLO           36.1744502782       23.8716132133      -12.0036421974  HEAD      231             0.0000000000
       232       232  OYPE      POLO           -6.1556727408       22.0573267016      -11.9446596898  HEAD      232             0.0000000000
       233       233  OYPE      POLO            8.0986748929        0.1159592822      -11.9362314797  HEAD      233             0.0000000000
       234       234  OYPE      POLO          -30.9045699135       41.8210946301      -11.9689199824  HEAD      234             0.0000000000
       235       235  OYPE      POLO           33.6265399525        1.4010596621      -11.9884999023  HEAD      235             0.0000000000
       236       236  OYPE      POLO           12.9270877172       -6.9150768148      -11.9892448144  HEAD      236             0.0000000000
       237       237  OYPE      POLO           33.2935036824      -51.4061446034      -12.0753922105  HEAD      237             0.0000000000
       238       238  OYPE      POLO          -51.0067800366        9.2460263668      -11.9923039662  HEAD      238             0.0000000000
       239       239  OYPE      POLO           28.7378780872        8.6863943441      -12.0383143010  HEAD      239             0.0000000000
       240       240  OYPE      POLO           28.9413528754      -43.0239932347      -12.0626769813  HEAD      240             0.0000000000
       241       241  OYPE      POLO            6.0748288421       16.0331496324      -11.9541645658  HEAD      241             0.0000000000
       242       242  OYPE      POLO          -34.3219955283       10.5339564274      -12.0661152514  HEAD      242             0.0000000000
       243       243  PYPG      POLO           -9.5472369412      -38.6197669665      -12.0081010108  HEAD      243             0.0000000000
       244       244  PYPG      POLO          -22.7862733006      -32.6415912944      -11.9664312785  HEAD      244             0.0000000000
       245       245  PYPG      POLO          -42.9043735897      -42.0174705948      -11.9812924942  HEAD      245             0.0000000000
       246       246  PYPG      POLO          -16.4404302352       -1.9866523309      -11.9987886501  HEAD      246             0.0000000000
       247       247  PYPG      POLO           14.8460020754       32.4513560807      -11.9772978220  HEAD      247             0.0000000000
       248       248  PYPG      POLO          -16.4422697646      -54.0791525845      -12.0819499115  HEAD      248             0.0000000000
       249       249  PYPG      POLO           40.3868466913       31.7125214188      -11.9779050413  HEAD      249             0.0000000000
       250       250  PYPG      POLO           44.4378812400       24.1521607491      -11.9420138265  HEAD      250             0.0000000000
       251       251  PYPG      POLO           -1.2391380663      -37.7548020002      -11.9789287734  HEAD      251             0.0000000000
       252       252  PYPG      POLO          -36.8797679426      -12.0134841465      -12.1021854674  HEAD      252             0.0000000000
       253       253  PYPG      POLO           23.9662643639       32.1461056428      -12.0593817834  HEAD      253             0.0000000000
       254       254  PYPG      POLO          -22.8921351463       42.9620940947      -12.0332775867  HEAD      254             0.0000000000
       255       255  PYPG      POLO          -39.2525330810       17.1309386911      -12.0139174142  HEAD      255             0.0000000000
       256       256  PYPG      POLO          -51.9900956940       23.7708564855      -12.0575860566  HEAD      256             0.0000000000
       257       257  PYPG      POLO           -8.0982874308      -53.3733565437      -11.9436366488  HEAD      257             0.0000000000
       258       258  PYPG      POLO           32.7299644071       16.2398864970      -12.1189367346  HEAD      258             0.0000000000
       259       259  PYPG      POLO           54.1898962071       54.7500171475      -12.0095532322  HEAD      259             0.0000000000
       260       260  PYPG      POLO           11.7496117308        7.6021653539      -11.9065161302  HEAD      260             0.0000000000
       261       261  PVCL2     POLO           35.2509820711      -34.7992213570      -12.0525144512  HEAD      261             0.0000000000
       262       262  PVCL2     POLO           15.4154557789       16.8088329938      -11.9583269825  HEAD      262             0.0000000000
       263       263  PVCL2     POLO            9.3869139425       40.6254681548      -12.0605946598  HEAD      263             0.0000000000
       264       264  PVCL2     POLO          -49.1932300636       39.9904688734      -12.0029212197  HEAD      264             0.0000000000
       265       265  QMPE      POLO           24.4685408829      -35.8950748229      -12.0200754725  HEAD      265             0.0000000000
       266       266  QMPE      POLO           49.7250072727        1.2996138431      -11.9184360422  HEAD      266             0.0000000000
       267       267  QMPE      POLO           34.2071528075      -13.3246909186      -11.9977600073  HEAD      267             0.0000000000
       268       268  QMPE      POLO            5.6809860133      -22.2653008642      -12.0456078146  HEAD      268             0.0000000000
       269       269  QMPE      POLO          -47.4645839723       16.5238391871      -11.8818692079  HEAD      269             0.0000000000
       270       270  QMPE      POLO           45.9719988050       54.4264222332      -11.9574597381  HEAD      270             0.0000000000
       271       271  QMPE      POLO          -49.4303259079      -19.9843107300      -12.0755550171  HEAD      271             0.0000000000
       272       272  QMPE      POLO           25.3325911204        1.0854452816      -11.9203803457  HEAD      272             0.0000000000
       273       273  QMPE      POLO           29.7039803760       -5.9852953742      -11.9372392043  HEAD      273             0.0000000000
       274       274  QMPE      POLO            0.3773501300      -52.1086435831      -12.1041569952  HEAD      274             0.0000000000
       275       275  QMPE      POLO          -45.4394741891      -12.6040719565      -12.1207465976  HEAD      275             0.0000000000
       276       276  QMPE      POLO          -20.4981692966      -10.3211156149      -12.0014870759  HEAD      276             0.0000000000
       277       277  QMPE      POLO          -31.2586417555       18.7305062682      -12.0057636643  HEAD      277             0.0000000000
       278       278  QMPE      POLO           49.9291518585       47.0225345341      -11.9561077885  HEAD      278             0.0000000000
       279       279  QMPE      POLO          -24.6636356882      -55.1209233425      -11.9348199814  HEAD      279             0.0000000000
       280       280  QMPE      POLO           56.0162327060      -35.3319360178      -11.8919589311  HEAD      280             0.0000000000
       281       281  QMPE      POLO          -21.4541588543      -47.2418111128      -12.1517357920  HEAD      281             0.0000000000
       282       282  QMPE      POLO           20.5968104245      -43.3994504096      -11.8691050928  HEAD      282             0.0000000000
       283       283  QMPE      POLO           -1.8503987274       14.7226778014      -12.0420516179  HEAD      283             0.0000000000
       284       284  QMPE      POLO           49.8379279725      -50.9192277876      -12.0135859299  HEAD      284             0.0000000000
       285       285  QMPE      POLO          -54.5303946568        1.8157325058      -12.0361071730  HEAD      285             0.0000000000
       286       286  QMPE      POLO           -3.0959694735       29.9290570182      -11.9966449986  HEAD      286             0.0000000000
       287       287  QMPE      POLO           46.7662800638      -20.9004509681      -11.9330228850  HEAD      287             0.0000000000
       288       288  QMPE      POLO            1.6881845522       46.0724385711      -12.1112740024  HEAD      288             0.0000000000
       289       289  PMPE      POLO           38.5566873942      -21.4053324123      -12.1314030407  HEAD      289             0.0000000000
       290       290  PMPE      POLO           -8.7935364917       37.2567709745      -11.8319022747  HEAD      290             0.0000000000
       291       291  PMPE      POLO          -48.1492073306      -34.6775480534      -11.9277858350  HEAD      291             0.0000000000
       292       292  PMPE      POLO          -14.1840237714      -31.6619011855      -11.8859071636  HEAD      292             0.0000000000
       293       293  PMPE      POLO          -36.6426627506       49.2161390054      -11.9742010658  HEAD      293             0.0000000000
       294       294  PMPE      POLO            3.7970934388      -44.5180261489      -12.0131064275  HEAD      294             0.0000000000
       295       295  PMPE      POLO          -17.8933550367      -39.4934911091      -12.1073496712  HEAD      295             0.0000000000
       296       296  PMPE      POLO           -4.7777260512        6.8258586329      -12.0432884135  HEAD      296             0.0000000000
       297       297  PMPE      POLO           53.2071173481      -42.9530462693      -12.0846122864  HEAD      297             0.0000000000
       298       298  PMPE      POLO           38.0807124266       -6.0413930113      -12.0739338490  HEAD      298             0.0000000000
       299       299  PMPE      POLO          -33.1554964491      -56.0446120753      -11.8594394339  HEAD      299             0.0000000000
       300       300  PMPE      POLO           42.2117595363      -13.7103539519      -11.9463967714  HEAD      300             0.0000000000
       301       301  PMPE      POLO           19.9970079513       39.5551044322      -12.0245383025  HEAD      301             0.0000000000
       302       302  PMPE      POLO          -54.1742845020       48.1136111983      -11.9633260598  HEAD      302             0.0000000000
       303       303  PMPE      POLO          -41.5476283434      -56.3949888027      -12.0931837688  HEAD      303             0.0000000000
       304       304  PMPE      POLO           -0.4630911031       37.9789663868      -11.8910067000  HEAD      304             0.0000000000
       305       305  PMPE      POLO          -32.6876103221       33.8034729133      -12.1425541578  HEAD      305             0.0000000000
       306       306  PMPE      POLO           45.0849399096      -43.6554894555      -11.9835408922  HEAD      306             0.0000000000
       307       307  PMPE      POLO          -40.7427814977      -19.7186327708      -12.1222836366  HEAD      307             0.0000000000
       308       308  PMPE      POLO           16.4821487950       47.0330749391      -12.0268880564  HEAD      308             0.0000000000
       309       309  PMPE      POLO          -46.4085477701      -49.6780021223      -11.9060968532  HEAD      309             0.0000000000
       310       310  PMPE      POLO           -8.2415120448       -1.0598345430      -11.9002852214  HEAD      310             0.0000000000
       311       311  PMPE      POLO           21.3078598878       -6.5883890443      -12.1217605901  HEAD      311             0.0000000000
       312       312  PMPE      POLO           30.5814801229      -20.7308008021      -11.9686693071  HEAD      312             0.0000000000
       313       313  PMPE      POLO           36.9818183570       39.3483889883      -11.9583910688  HEAD      313             0.0000000000
       314       314  PMPE      POLO          -32.3019988235      -19.0480753807      -11.9983940809  HEAD      314             0.0000000000
       315       315  PMPE      POLO          -56.1080241801       31.5737491629      -11.8616083538  HEAD      315             0.0000000000
       316       316  PMPE      POLO           37.1854264212      -44.1977585850      -11.9401237257  HEAD      316             0.0000000000
       317       317  PMPE      POLO          -35.8093811534       25.9260853995      -12.0663952889  HEAD      317             0.0000000000
       318       318  PMPE      POLO           32.8865152175       46.6860043188      -12.0211027451  HEAD      318             0.0000000000
       319       319  PMPE      POLO            4.7275186943       -7.6310921479      -12.0559816010  HEAD      319             0.0000000000
       320       320  PMPE      POLO          -19.5317339237       27.6606822164      -12.0164874286  HEAD      320             0.0000000000
       321       321  PMPE      POLO          -24.8558926281       -3.2789977042      -12.0141082170  HEAD      321             0.0000000000
       322       322  PMPE      POLO           45.5001309885        9.1060030407      -11.9062133357  HEAD      322             0.0000000000
       323       323  PMPE      POLO           17.4851842321      -14.0045134396      -11.9496525560  HEAD      323             0.0000000000
       324       324  PMPE      POLO           12.9620019509       54.3936077147      -11.9830770222  HEAD      324             0.0000000000
       325       325  PMPE      POLO           37.6292486272       54.1883794344      -12.0733916199  HEAD      325             0.0000000000
       326       326  PMPE      POLO          -21.5929383419        4.8743581171      -12.0168888415  HEAD      326             0.0000000000
       327       327  PMPE      POLO          -48.0270913761       30.6443903885      -11.9923369095  HEAD      327             0.0000000000
       328       328  PMPE      POLO          -23.0706332520       20.0356792914      -11.9280264589  HEAD      328             0.0000000000
       329       329  PMPE      POLO            2.5244248142      -30.0374500495      -12.0131298440  HEAD      329             0.0000000000
       330       330  PMPE      POLO          -26.3785838923       11.7011554556      -12.0452779061  HEAD      330             0.0000000000
       331       331  PMPE      POLO          -10.9571564937      -24.0279861315      -12.0468805769  HEAD      331             0.0000000000
       332       332  PMPE      POLO           14.1006805405      -21.7440339712      -11.9724704142  HEAD      332             0.0000000000
       333       333  PMPE      POLO           -2.6110191027      -23.1614306109      -12.0308291207  HEAD      333             0.0000000000
       334       334  PMPE      POLO          -27.6358381501      -25.8669164770      -11.9367715394  HEAD      334             0.0000000000
       335       335  PMPE      POLO           55.0792012345      -20.7820158091      -11.9758301265  HEAD      335             0.0000000000
       336       336  PMPE      POLO           24.6480563007       46.6932383585      -12.0693939249  HEAD      336             0.0000000000
       337       337  PMPE      POLO            9.1741577866      -14.6146182027      -11.9623167115  HEAD      337             0.0000000000
       338       338  PMPE      POLO          -33.2161314426       -4.3208019100      -12.0537980520  HEAD      338             0.0000000000
       339       339  PMPE      POLO           41.7338890411        1.5740513896      -12.0109249343  HEAD      339             0.0000000000
       340       340  PMPE      POLO           20.6405141637        8.2869752015      -12.0825700174  HEAD      340             0.0000000000
       341       341  PMPE      POLO          -53.1392933485      -27.7368510441      -12.0190622748  HEAD      341             0.0000000000
       342       342  PMPE      POLO          -29.7432030098      -48.0860425546      -12.0654157500  HEAD      342             0.0000000000
       343       343  PMPE      POLO          -28.6618516479      -11.4815785915      -12.1272031345  HEAD      343             0.0000000000
       344       344  PMPE      POLO           21.0318844677       54.4400073005      -11.9755545788  HEAD      344             0.0000000000
       345       345  PMPE      POLO           45.4085268757       39.3926831830      -12.0676464506  HEAD      345             0.0000000000
       346       346  PMPE      POLO           28.1290226175      -28.2271114451      -11.9961041473  HEAD      346             0.0000000000
       347       347  PMPE      POLO          -46.4354387564        2.1005669211      -12.0368737163  HEAD      347             0.0000000000
       348       348  PMPE      POLO          -15.5707245449      -17.0171763784      -12.0440099592  HEAD      348             0.0000000000
       349       349  PMPE      POLO          -13.2234521568        6.0356423587      -11.8745935699  HEAD      349             0.0000000000
       350       350  PMPE      POLO          -28.4278359680       49.7386860789      -12.1266001474  HEAD      350             0.0000000000
       351       351  PMPE      POLO          -27.8293092819       26.8743902767      -11.9660966430  HEAD      351             0.0000000000
       352       352  PMPE      POLO          -19.1794259333      -25.0010332241      -12.0396664684  HEAD      352             0.0000000000
       353       353  PMPE      POLO           15.7646659224      -36.4840417470      -12.0247844527  HEAD      353             0.0000000000
       354       354  PMPE      POLO            5.2237339692       31.7652686118      -12.0918451008  HEAD      354             0.0000000000
       355       355  PMPE      POLO          -41.5414250488       -4.9147645123      -11.9225899381  HEAD      355             0.0000000000
       356       356  PMPE      POLO           49.0446187796       16.6998529210      -11.9087491623  HEAD      356             0.0000000000
       357       357  PMPE      POLO          -37.9918427598      -48.9536111752      -12.1094509972  HEAD      357             0.0000000000
       358       358  PMPE      POLO            0.9897648521      -15.2155269117      -11.9009575199  HEAD      358             0.0000000000
       359       359  PMPE      POLO           48.5621120555       31.5796009926      -12.1088561425  HEAD      359             0.0000000000
       360       360  PMPE      POLO          -13.1783544764      -46.4161835474      -11.9651970424  HEAD      360             0.0000000000
       361       361  PMPE      POLO          -40.6483119040       33.1148100562      -11.8116529767  HEAD      361             0.0000000000
       362       362  PMPE      POLO          -36.0985686233      -26.6954918297      -11.8595124029  HEAD      362             0.0000000000
       363       363  PMPE      POLO           11.9100396461      -43.7310361657      -11.9406875499  HEAD      363             0.0000000000
       364       364  PMPE      POLO           28.9798128804       54.3628587304      -11.9744254100  HEAD      364             0.0000000000
       365       365  PMPE      POLO          -24.6626496297       34.6659276577      -12.0635382550  HEAD      365             0.0000000000
       366       366  PMPE      POLO           50.6120052263      -13.4280054120      -11.9352140583  HEAD      366             0.0000000000
       367       367  PMPE      POLO           22.3682141828      -21.1205913339      -11.9269158554  HEAD      367             0.0000000000
       368       368  PMPE      POLO          -11.5723781516       51.6086556981      -12.0822221346  HEAD      368             0.0000000000
       369       369  PMPE      POLO           52.8013479465       24.1172642227      -12.0860072083  HEAD      369             0.0000000000
       370       370  PMPE      POLO           -9.9941765139       13.8244268137      -11.9934934407  HEAD      370             0.0000000000
       371       371  PMPE      POLO           16.8791774223        0.6013485753      -12.0574664233  HEAD      371             0.0000000000
       372       372  PMPE      POLO           37.0077022143        8.9764061598      -12.1241073322  HEAD      372             0.0000000000
       373       373  PMPE      POLO          -49.9533000061       -5.3721436249      -11.9227416368  HEAD      373             0.0000000000
       374       374  PMPE      POLO           24.8015798027       16.1496684603      -12.0531571718  HEAD      374             0.0000000000
       375       375  PMPE      POLO          -31.2501197624      -33.5219812740      -12.0245521826  HEAD      375             0.0000000000
       376       376  PMPE      POLO           -3.1606139338       52.9984998503      -11.9901237770  HEAD      376             0.0000000000
       377       377  PMPE      POLO          -39.2507137432       41.5809013034      -11.8757410227  HEAD      377             0.0000000000
       378       378  PMPE      POLO          -38.0236934031        2.5527762352      -12.0114258396  HEAD      378             0.0000000000
       379       379  PMPE      POLO           10.3293861180       24.9687507025      -11.9801474366  HEAD      379             0.0000000000
       380       380  PMPE      POLO           54.4618218769       -6.0020765044      -12.0643946781  HEAD      380             0.0000000000
       381       381  PMPG      POLO           -3.8541921692       -8.0867098875      -12.1035968048  HEAD      381             0.0000000000
       382       382  PMPG      POLO           40.8847149077       16.3925770099      -12.0002709546  HEAD      382             0.0000000000
       383       383  PMPG      POLO           42.9156965868      -28.6439928698      -12.0517046060  HEAD      383             0.0000000000
       384       384  PMPG      POLO          -43.6116987580       23.9492656785      -11.9072614556  HEAD      384             0.0000000000
       385       385  PMPG      POLO          -51.1799846929      -42.3247810246      -11.8617763166  HEAD      385             0.0000000000
       386       386  PMPG      POLO           11.0651779869      -29.4291837913      -11.9875631676  HEAD      386             0.0000000000
       387       387  PMPG      POLO            2.0887553528       23.2801392519      -12.0006371800  HEAD      387             0.0000000000
       388       388  PMPG      POLO           32.1744426259       31.4831120378      -12.0678602797  HEAD      388             0.0000000000
       389       389  PMPG      POLO          -11.9756499256       -9.1622807651      -12.0096189227  HEAD      389             0.0000000000
       390       390  PMPG      POLO           53.5477961324       39.4994591626      -11.9176521736  HEAD      390             0.0000000000
       391       391  PMPG      POLO           28.5101626925       39.2665883569      -12.0007646138  HEAD      391             0.0000000000
       392       392  PMPG      POLO            3.3986388221        7.6580040029      -12.0260209603  HEAD      392             0.0000000000
       393       393  PMPG      POLO           25.9066010528      -13.5104521170      -12.0975674836  HEAD      393             0.0000000000
       394       394  PMPG      POLO          -45.1155421651       48.6100581106      -12.0217890143  HEAD      394             0.0000000000
       395       395  PMPG      POLO           24.9965920902      -50.8506718320      -11.9747723830  HEAD      395             0.0000000000
       396       396  PMPG      POLO            0.0194030291       -0.2568665517      -11.8771116811  HEAD      396             0.0000000000
       397       397  PMPG      POLO          -14.7367258432       20.8539548592      -12.0115810915  HEAD      397             0.0000000000
       398       398  PMPG      POLO           -7.3305709084      -16.1893200207      -11.8921347151  HEAD      398             0.0000000000
       399       399  PMPG      POLO            8.5050275679      -51.3289449632      -11.9719833150  HEAD      399             0.0000000000
       400       400  PMPG      POLO          -53.8380743404      -12.9498451245      -12.1238032799  HEAD      400             0.0000000000
