* EQUILIBRATED WATER
*  DATE:    10/ 3/20     19:15:23      CREATED BY USER: apache
*
     18498  EXT
         1         1  TIP3      OH2           -28.0160362818      -29.9291851097       -8.1605431047  W2        1               0.0000000000
         2         1  TIP3      H1            -27.9269262818      -28.9853651097       -8.2928331047  W2        1               0.0000000000
         3         1  TIP3      H2            -28.6542762818      -30.2045451097       -8.8186031047  W2        1               0.0000000000
         4         2  TIP3      OH2           -29.0829062818      -30.6741151097       -4.7417231047  W2        2               0.0000000000
         5         2  TIP3      H1            -29.1211562818      -31.3204851097       -4.0367631047  W2        2               0.0000000000
         6         2  TIP3      H2            -29.4052562818      -31.1406751097       -5.5128531047  W2        2               0.0000000000
         7         3  TIP3      OH2           -36.7144062818      -31.0599051097       -3.1487331047  W2        3               0.0000000000
         8         3  TIP3      H1            -36.6731962818      -31.6855751097       -2.4254931047  W2        3               0.0000000000
         9         3  TIP3      H2            -36.0116362818      -30.4360451097       -2.9666931047  W2        3               0.0000000000
        10         4  TIP3      OH2           -25.3768862818      -27.7350751097       -6.4402131047  W2        4               0.0000000000
        11         4  TIP3      H1            -25.8176162818      -28.4554751097       -5.9896531047  W2        4               0.0000000000
        12         4  TIP3      H2            -25.3899162818      -27.0143551097       -5.8104431047  W2        4               0.0000000000
        13         5  TIP3      OH2           -35.7910962818      -26.6100151097       -4.6138231047  W2        5               0.0000000000
        14         5  TIP3      H1            -36.1605762818      -27.4119651097       -4.9833931047  W2        5               0.0000000000
        15         5  TIP3      H2            -34.8499862818      -26.7785251097       -4.5674831047  W2        5               0.0000000000
        16         6  TIP3      OH2           -39.1810462818      -32.9497551097       -9.2209431047  W2        6               0.0000000000
        17         6  TIP3      H1            -39.6287062818      -32.1038851097       -9.2392931047  W2        6               0.0000000000
        18         6  TIP3      H2            -39.7419262818      -33.5293351097       -9.7364331047  W2        6               0.0000000000
        19         7  TIP3      OH2           -38.4704362818      -30.7877951097       -7.0951431047  W2        7               0.0000000000
        20         7  TIP3      H1            -38.2570862818      -31.5576351097       -6.5678431047  W2        7               0.0000000000
        21         7  TIP3      H2            -37.7326762818      -30.6981251097       -7.6983831047  W2        7               0.0000000000
        22         8  TIP3      OH2           -28.2653362818      -22.6309051097       -6.2281731047  W2        8               0.0000000000
        23         8  TIP3      H1            -27.6456962818      -23.3074351097       -6.5012531047  W2        8               0.0000000000
        24         8  TIP3      H2            -28.4735962818      -22.8488251097       -5.3196831047  W2        8               0.0000000000
        25         9  TIP3      OH2           -30.6934662818      -28.2419751097       -4.3356231047  W2        9               0.0000000000
        26         9  TIP3      H1            -30.3896762818      -28.9278351097       -4.9302131047  W2        9               0.0000000000
        27         9  TIP3      H2            -29.9720662818      -28.1231051097       -3.7178231047  W2        9               0.0000000000
        28        10  TIP3      OH2           -22.0304862818      -36.6404451097       -3.4750031047  W2        10              0.0000000000
        29        10  TIP3      H1            -21.9812662818      -36.0303251097       -2.7390931047  W2        10              0.0000000000
        30        10  TIP3      H2            -21.6049762818      -36.1793551097       -4.1978931047  W2        10              0.0000000000
        31        11  TIP3      OH2           -27.5527662818      -33.8477351097       -4.0081431047  W2        11              0.0000000000
        32        11  TIP3      H1            -27.4101762818      -34.7940351097       -3.9879831047  W2        11              0.0000000000
        33        11  TIP3      H2            -27.6588662818      -33.6407551097       -4.9366531047  W2        11              0.0000000000
        34        12  TIP3      OH2           -34.3979362818      -35.7460951097       -6.7356631047  W2        12              0.0000000000
        35        12  TIP3      H1            -34.3548262818      -34.8862451097       -7.1540331047  W2        12              0.0000000000
        36        12  TIP3      H2            -34.8555262818      -36.2986251097       -7.3693431047  W2        12              0.0000000000
        37        13  TIP3      OH2           -26.6756662818      -35.6155351097       -8.3348331047  W2        13              0.0000000000
        38        13  TIP3      H1            -26.0292362818      -35.9442151097       -7.7100731047  W2        13              0.0000000000
        39        13  TIP3      H2            -26.1657262818      -35.0976351097       -8.9576931047  W2        13              0.0000000000
        40        14  TIP3      OH2           -37.7777862818      -33.3495151097       -5.9735231047  W2        14              0.0000000000
        41        14  TIP3      H1            -37.1241262818      -33.8993451097       -5.5415131047  W2        14              0.0000000000
        42        14  TIP3      H2            -37.7538562818      -33.6236151097       -6.8903231047  W2        14              0.0000000000
        43        15  TIP3      OH2           -32.6213362818      -31.7993851097       -6.7583731047  W2        15              0.0000000000
        44        15  TIP3      H1            -32.0052362818      -32.3258451097       -6.2489731047  W2        15              0.0000000000
        45        15  TIP3      H2            -33.2074562818      -32.4395151097       -7.1620131047  W2        15              0.0000000000
        46        16  TIP3      OH2           -21.6390262818      -35.1625251097       -1.2390231047  W2        16              0.0000000000
        47        16  TIP3      H1            -22.3275662818      -34.5044551097       -1.3343631047  W2        16              0.0000000000
        48        16  TIP3      H2            -21.6235662818      -35.3597351097       -0.3024831047  W2        16              0.0000000000
        49        17  TIP3      OH2           -35.5877462818      -36.8282551097       -2.6615831047  W2        17              0.0000000000
        50        17  TIP3      H1            -35.8065762818      -36.2981951097       -3.4279831047  W2        17              0.0000000000
        51        17  TIP3      H2            -36.2556562818      -36.6017051097       -2.0144431047  W2        17              0.0000000000
        52        18  TIP3      OH2           -28.2187662818      -27.3281451097       -9.1176731047  W2        18              0.0000000000
        53        18  TIP3      H1            -28.5142562818      -27.6509151097       -9.9689831047  W2        18              0.0000000000
        54        18  TIP3      H2            -28.5429862818      -26.4284751097       -9.0764131047  W2        18              0.0000000000
        55        19  TIP3      OH2           -33.0186062818      -29.1526851097       -2.3742131047  W2        19              0.0000000000
        56        19  TIP3      H1            -33.7586962818      -28.5545351097       -2.2706931047  W2        19              0.0000000000
        57        19  TIP3      H2            -32.3046562818      -28.5987251097       -2.6898531047  W2        19              0.0000000000
        58        20  TIP3      OH2           -24.9118262818      -36.3246051097       -6.3542431047  W2        20              0.0000000000
        59        20  TIP3      H1            -25.1270262818      -37.0902651097       -5.8216431047  W2        20              0.0000000000
        60        20  TIP3      H2            -24.2560862818      -35.8521451097       -5.8413931047  W2        20              0.0000000000
        61        21  TIP3      OH2           -35.9940162818      -34.9360751097       -4.7093631047  W2        21              0.0000000000
        62        21  TIP3      H1            -35.3803862818      -34.3033151097       -4.3361231047  W2        21              0.0000000000
        63        21  TIP3      H2            -35.4819462818      -35.4085751097       -5.3656731047  W2        21              0.0000000000
        64        22  TIP3      OH2           -34.6111762818      -27.1883851097       -1.5870631047  W2        22              0.0000000000
        65        22  TIP3      H1            -34.6164162818      -26.3090351097       -1.9651331047  W2        22              0.0000000000
        66        22  TIP3      H2            -35.4647662818      -27.2719751097       -1.1620731047  W2        22              0.0000000000
        67        23  TIP3      OH2           -38.4900862818      -27.5175951097      -10.8051331047  W2        23              0.0000000000
        68        23  TIP3      H1            -38.7619962818      -27.2884951097      -11.6938431047  W2        23              0.0000000000
        69        23  TIP3      H2            -38.4445162818      -26.6797151097      -10.3446031047  W2        23              0.0000000000
        70        24  TIP3      OH2           -24.8651162818      -25.8960051097       -4.0922831047  W2        24              0.0000000000
        71        24  TIP3      H1            -25.8067462818      -25.8376151097       -3.9305931047  W2        24              0.0000000000
        72        24  TIP3      H2            -24.5885062818      -24.9899551097       -4.2293131047  W2        24              0.0000000000
        73        25  TIP3      OH2           -24.5644162818      -37.6094751097       -2.6748931047  W2        25              0.0000000000
        74        25  TIP3      H1            -25.3004962818      -36.9987651097       -2.7127631047  W2        25              0.0000000000
        75        25  TIP3      H2            -23.8810162818      -37.1945751097       -3.2012531047  W2        25              0.0000000000
        76        26  TIP3      OH2           -31.5612762818      -39.5227451097       -5.2090931047  W2        26              0.0000000000
        77        26  TIP3      H1            -31.6788562818      -40.4711451097       -5.2632631047  W2        26              0.0000000000
        78        26  TIP3      H2            -32.4162662818      -39.1901351097       -4.9359831047  W2        26              0.0000000000
        79        27  TIP3      OH2           -26.6129962818      -24.1146551097       -7.4671231047  W2        27              0.0000000000
        80        27  TIP3      H1            -26.1877662818      -24.8218651097       -7.9521631047  W2        27              0.0000000000
        81        27  TIP3      H2            -26.2959962818      -23.3133851097       -7.8839031047  W2        27              0.0000000000
        82        28  TIP3      OH2           -25.4533462818      -26.2138051097       -8.9584631047  W2        28              0.0000000000
        83        28  TIP3      H1            -25.7108662818      -26.9037951097       -9.5698731047  W2        28              0.0000000000
        84        28  TIP3      H2            -25.3822662818      -26.6566851097       -8.1128731047  W2        28              0.0000000000
        85        29  TIP3      OH2           -23.7673262818      -27.6471351097       -0.4811131047  W2        29              0.0000000000
        86        29  TIP3      H1            -23.6276962818      -28.2388851097       -1.2204131047  W2        29              0.0000000000
        87        29  TIP3      H2            -23.6000462818      -26.7745451097       -0.8372331047  W2        29              0.0000000000
        88        30  TIP3      OH2           -29.2947862818      -30.6851851097      -10.7085131047  W2        30              0.0000000000
        89        30  TIP3      H1            -30.0062362818      -30.1502151097      -11.0604631047  W2        30              0.0000000000
        90        30  TIP3      H2            -28.6038262818      -30.6299751097      -11.3686231047  W2        30              0.0000000000
        91        31  TIP3      OH2           -29.2408662818      -32.2277551097      -13.6700131047  W2        31              0.0000000000
        92        31  TIP3      H1            -28.5398762818      -32.2050651097      -13.0186131047  W2        31              0.0000000000
        93        31  TIP3      H2            -28.9385762818      -32.8557851097      -14.3260831047  W2        31              0.0000000000
        94        32  TIP3      OH2           -21.9253962818      -31.3073351097       -2.4150731047  W2        32              0.0000000000
        95        32  TIP3      H1            -22.5779862818      -30.6127751097       -2.3259831047  W2        32              0.0000000000
        96        32  TIP3      H2            -21.4603662818      -31.0972451097       -3.2249131047  W2        32              0.0000000000
        97        33  TIP3      OH2           -25.8890162818      -30.4758551097       -9.7569231047  W2        33              0.0000000000
        98        33  TIP3      H1            -26.6209162818      -30.2474851097       -9.1838631047  W2        33              0.0000000000
        99        33  TIP3      H2            -25.4417962818      -31.1895851097       -9.3021731047  W2        33              0.0000000000
       100        34  TIP3      OH2           -25.9916662818      -32.3015951097       -0.6892231047  W2        34              0.0000000000
       101        34  TIP3      H1            -25.9117562818      -31.5381551097       -0.1173731047  W2        34              0.0000000000
       102        34  TIP3      H2            -26.5928962818      -32.0223551097       -1.3797131047  W2        34              0.0000000000
       103        35  TIP3      OH2           -34.2436462818      -29.8452351097       -7.8744231047  W2        35              0.0000000000
       104        35  TIP3      H1            -34.5741262818      -30.2158951097       -8.6927231047  W2        35              0.0000000000
       105        35  TIP3      H2            -33.6552362818      -30.5158351097       -7.5275931047  W2        35              0.0000000000
       106        36  TIP3      OH2           -32.8768962818      -26.4171751097       -5.1932031047  W2        36              0.0000000000
       107        36  TIP3      H1            -32.9717662818      -26.9958651097       -5.9497431047  W2        36              0.0000000000
       108        36  TIP3      H2            -32.1475362818      -26.7886051097       -4.6969231047  W2        36              0.0000000000
       109        37  TIP3      OH2           -33.8770962818      -31.0766751097       -4.2409231047  W2        37              0.0000000000
       110        37  TIP3      H1            -33.3118462818      -30.9552551097       -5.0038031047  W2        37              0.0000000000
       111        37  TIP3      H2            -33.5582062818      -30.4391751097       -3.6020731047  W2        37              0.0000000000
       112        38  TIP3      OH2           -27.5678762818      -25.5734851097       -3.5068731047  W2        38              0.0000000000
       113        38  TIP3      H1            -27.8082162818      -24.9111751097       -2.8589531047  W2        38              0.0000000000
       114        38  TIP3      H2            -27.7660562818      -26.4079651097       -3.0819131047  W2        38              0.0000000000
       115        39  TIP3      OH2           -32.9970262818      -26.6774051097        0.4762668953  W2        39              0.0000000000
       116        39  TIP3      H1            -33.3082762818      -25.8950851097        0.9315868953  W2        39              0.0000000000
       117        39  TIP3      H2            -33.6470062818      -26.8304951097       -0.2095331047  W2        39              0.0000000000
       118        40  TIP3      OH2           -27.0180662818      -31.3135651097      -12.0718031047  W2        40              0.0000000000
       119        40  TIP3      H1            -26.4385162818      -31.1635351097      -11.3249131047  W2        40              0.0000000000
       120        40  TIP3      H2            -26.6040662818      -30.8428251097      -12.7951631047  W2        40              0.0000000000
       121        41  TIP3      OH2           -36.0770362818      -30.4792951097       -0.2951631047  W2        41              0.0000000000
       122        41  TIP3      H1            -36.0067162818      -29.8286151097        0.4033368953  W2        41              0.0000000000
       123        41  TIP3      H2            -36.9678162818      -30.3765451097       -0.6300731047  W2        41              0.0000000000
       124        42  TIP3      OH2           -29.2915762818      -24.5767151097       -8.6364931047  W2        42              0.0000000000
       125        42  TIP3      H1            -28.8178162818      -24.2810851097       -7.8590731047  W2        42              0.0000000000
       126        42  TIP3      H2            -29.8546462818      -23.8385551097       -8.8695331047  W2        42              0.0000000000
       127        43  TIP3      OH2           -34.7574362818      -24.6059051097        1.2396468953  W2        43              0.0000000000
       128        43  TIP3      H1            -34.7499062818      -24.7419351097        0.2921968953  W2        43              0.0000000000
       129        43  TIP3      H2            -35.6733962818      -24.7230951097        1.4916468953  W2        43              0.0000000000
       130        44  TIP3      OH2           -23.3192262818      -39.5635251097      -12.2588331047  W2        44              0.0000000000
       131        44  TIP3      H1            -24.2191562818      -39.4246251097      -11.9637731047  W2        44              0.0000000000
       132        44  TIP3      H2            -23.0673862818      -38.7320651097      -12.6606631047  W2        44              0.0000000000
       133        45  TIP3      OH2           -35.2533762818      -30.7758051097      -10.2851431047  W2        45              0.0000000000
       134        45  TIP3      H1            -35.5452462818      -30.0076351097      -10.7760131047  W2        45              0.0000000000
       135        45  TIP3      H2            -35.9278562818      -31.4351851097      -10.4480031047  W2        45              0.0000000000
       136        46  TIP3      OH2           -22.1300862818      -25.1972851097      -13.8824431047  W2        46              0.0000000000
       137        46  TIP3      H1            -22.0567362818      -24.2582651097      -13.7119131047  W2        46              0.0000000000
       138        46  TIP3      H2            -21.2245762818      -25.5024251097      -13.9387131047  W2        46              0.0000000000
       139        47  TIP3      OH2           -39.1603662818      -28.4128851097       -1.4701631047  W2        47              0.0000000000
       140        47  TIP3      H1            -39.6615262818      -28.4409451097       -2.2851931047  W2        47              0.0000000000
       141        47  TIP3      H2            -39.1549962818      -29.3185651097       -1.1604331047  W2        47              0.0000000000
       142        48  TIP3      OH2           -39.4100962818      -25.6325051097       -4.5861431047  W2        48              0.0000000000
       143        48  TIP3      H1            -38.4640362818      -25.7768051097       -4.6051931047  W2        48              0.0000000000
       144        48  TIP3      H2            -39.5224662818      -24.8482251097       -4.0490231047  W2        48              0.0000000000
       145        49  TIP3      OH2           -21.2122462818      -24.9665351097        1.0962268953  W2        49              0.0000000000
       146        49  TIP3      H1            -21.2615662818      -25.9217251097        1.0589868953  W2        49              0.0000000000
       147        49  TIP3      H2            -22.0390162818      -24.6990051097        1.4976068953  W2        49              0.0000000000
       148        50  TIP3      OH2           -30.2338462818      -25.3926151097       -0.0276331047  W2        50              0.0000000000
       149        50  TIP3      H1            -30.1463862818      -24.5661551097        0.4472768953  W2        50              0.0000000000
       150        50  TIP3      H2            -31.0973362818      -25.7222351097        0.2212968953  W2        50              0.0000000000
       151        51  TIP3      OH2           -29.8192662818      -21.6202451097      -10.2215731047  W2        51              0.0000000000
       152        51  TIP3      H1            -29.8946662818      -21.7415251097      -11.1680531047  W2        51              0.0000000000
       153        51  TIP3      H2            -29.7863962818      -20.6709751097      -10.1031131047  W2        51              0.0000000000
       154        52  TIP3      OH2           -36.1658862818      -22.8315451097       -8.4406731047  W2        52              0.0000000000
       155        52  TIP3      H1            -36.0138462818      -23.1795051097       -7.5620231047  W2        52              0.0000000000
       156        52  TIP3      H2            -37.0168462818      -23.1878151097       -8.6959531047  W2        52              0.0000000000
       157        53  TIP3      OH2           -26.7176662818      -22.4662251097      -13.2193331047  W2        53              0.0000000000
       158        53  TIP3      H1            -26.3428262818      -23.2106151097      -13.6900731047  W2        53              0.0000000000
       159        53  TIP3      H2            -26.7132962818      -22.7361651097      -12.3010031047  W2        53              0.0000000000
       160        54  TIP3      OH2           -27.0488562818      -22.5405151097      -10.4701131047  W2        54              0.0000000000
       161        54  TIP3      H1            -27.9838762818      -22.4403251097      -10.2914131047  W2        54              0.0000000000
       162        54  TIP3      H2            -26.7686662818      -23.2499151097       -9.8917931047  W2        54              0.0000000000
       163        55  TIP3      OH2           -24.0602662818      -33.4732851097        1.5764468953  W2        55              0.0000000000
       164        55  TIP3      H1            -24.4675862818      -32.9927251097        0.8557768953  W2        55              0.0000000000
       165        55  TIP3      H2            -24.0196962818      -34.3786851097        1.2685268953  W2        55              0.0000000000
       166        56  TIP3      OH2           -36.9113162818      -27.0893451097       -0.4268831047  W2        56              0.0000000000
       167        56  TIP3      H1            -36.6951862818      -27.4507851097        0.4326968953  W2        56              0.0000000000
       168        56  TIP3      H2            -37.7668462818      -27.4639651097       -0.6365331047  W2        56              0.0000000000
       169        57  TIP3      OH2           -34.2925162818      -38.6192951097       -4.4314631047  W2        57              0.0000000000
       170        57  TIP3      H1            -35.1541462818      -38.7064751097       -4.8391731047  W2        57              0.0000000000
       171        57  TIP3      H2            -34.3149462818      -37.7632851097       -4.0037031047  W2        57              0.0000000000
       172        58  TIP3      OH2           -29.6297362818      -38.8972551097       -1.0567631047  W2        58              0.0000000000
       173        58  TIP3      H1            -29.2094262818      -39.3125451097       -0.3037031047  W2        58              0.0000000000
       174        58  TIP3      H2            -30.5627762818      -39.0759251097       -0.9395631047  W2        58              0.0000000000
       175        59  TIP3      OH2           -26.3032462818      -35.1417351097       -0.2033131047  W2        59              0.0000000000
       176        59  TIP3      H1            -26.8172962818      -35.2675151097        0.5942868953  W2        59              0.0000000000
       177        59  TIP3      H2            -26.4587762818      -34.2294251097       -0.4476931047  W2        59              0.0000000000
       178        60  TIP3      OH2           -25.5407562818      -30.2807351097      -14.4420131047  W2        60              0.0000000000
       179        60  TIP3      H1            -25.4986762818      -30.5033451097      -15.3720131047  W2        60              0.0000000000
       180        60  TIP3      H2            -24.6915462818      -29.8820251097      -14.2520231047  W2        60              0.0000000000
       181        61  TIP3      OH2           -29.9680062818      -36.4049151097      -13.7716831047  W2        61              0.0000000000
       182        61  TIP3      H1            -30.2215262818      -36.3857551097      -12.8488731047  W2        61              0.0000000000
       183        61  TIP3      H2            -30.2247962818      -37.2763751097      -14.0730631047  W2        61              0.0000000000
       184        62  TIP3      OH2           -34.2015062818      -33.6538451097       -3.3364431047  W2        62              0.0000000000
       185        62  TIP3      H1            -34.8432962818      -33.6941151097       -2.6274331047  W2        62              0.0000000000
       186        62  TIP3      H2            -34.1643062818      -32.7273751097       -3.5741431047  W2        62              0.0000000000
       187        63  TIP3      OH2           -34.2045962818      -33.4328351097       -8.4244431047  W2        63              0.0000000000
       188        63  TIP3      H1            -35.0973062818      -33.7732251097       -8.4830631047  W2        63              0.0000000000
       189        63  TIP3      H2            -33.7539362818      -33.8097451097       -9.1801231047  W2        63              0.0000000000
       190        64  TIP3      OH2           -28.6690462818      -33.0168051097       -9.6073631047  W2        64              0.0000000000
       191        64  TIP3      H1            -29.0780162818      -32.2019451097       -9.8988831047  W2        64              0.0000000000
       192        64  TIP3      H2            -27.9484262818      -33.1567951097      -10.2216531047  W2        64              0.0000000000
       193        65  TIP3      OH2           -29.5668862818      -32.8411651097        1.8807068953  W2        65              0.0000000000
       194        65  TIP3      H1            -30.1295062818      -33.5460051097        2.2014868953  W2        65              0.0000000000
       195        65  TIP3      H2            -28.7405462818      -32.9619751097        2.3484668953  W2        65              0.0000000000
       196        66  TIP3      OH2           -27.6642762818      -33.5707651097       -6.7933931047  W2        66              0.0000000000
       197        66  TIP3      H1            -27.8598262818      -32.9650851097       -7.5083331047  W2        66              0.0000000000
       198        66  TIP3      H2            -27.4830162818      -34.4042451097       -7.2277631047  W2        66              0.0000000000
       199        67  TIP3      OH2           -36.4514562818      -33.3334951097       -1.4692431047  W2        67              0.0000000000
       200        67  TIP3      H1            -36.4895162818      -32.9333351097       -0.6005331047  W2        67              0.0000000000
       201        67  TIP3      H2            -36.9423462818      -34.1502551097       -1.3789531047  W2        67              0.0000000000
       202        68  TIP3      OH2           -33.0857162818      -35.9592651097      -14.6706431047  W2        68              0.0000000000
       203        68  TIP3      H1            -33.5166462818      -36.4042551097      -13.9409031047  W2        68              0.0000000000
       204        68  TIP3      H2            -33.8038462818      -35.5876351097      -15.1828931047  W2        68              0.0000000000
       205        69  TIP3      OH2           -39.8433762818      -36.2173151097       -7.6187731047  W2        69              0.0000000000
       206        69  TIP3      H1            -39.2126062818      -36.2461051097       -6.8993831047  W2        69              0.0000000000
       207        69  TIP3      H2            -39.3939462818      -36.6424451097       -8.3491831047  W2        69              0.0000000000
       208        70  TIP3      OH2           -38.5691662818      -35.4711151097      -12.1947331047  W2        70              0.0000000000
       209        70  TIP3      H1            -38.0949962818      -34.8801251097      -12.7796431047  W2        70              0.0000000000
       210        70  TIP3      H2            -39.2865262818      -34.9408251097      -11.8477231047  W2        70              0.0000000000
       211        71  TIP3      OH2           -28.4003562818      -31.9326351097       -2.1221531047  W2        71              0.0000000000
       212        71  TIP3      H1            -28.0768762818      -32.5636651097       -2.7651031047  W2        71              0.0000000000
       213        71  TIP3      H2            -28.8404262818      -32.4674151097       -1.4614131047  W2        71              0.0000000000
       214        72  TIP3      OH2           -31.6230662818      -36.0050851097       -7.3380331047  W2        72              0.0000000000
       215        72  TIP3      H1            -32.5339562818      -35.9484051097       -7.0494331047  W2        72              0.0000000000
       216        72  TIP3      H2            -31.1177762818      -36.0655351097       -6.5273131047  W2        72              0.0000000000
       217        73  TIP3      OH2           -36.7947262818      -34.3764551097       -8.5112731047  W2        73              0.0000000000
       218        73  TIP3      H1            -37.6839262818      -34.2769051097       -8.8513131047  W2        73              0.0000000000
       219        73  TIP3      H2            -36.4982362818      -35.2181551097       -8.8574831047  W2        73              0.0000000000
       220        74  TIP3      OH2           -33.1415462818      -34.3761951097      -10.8548131047  W2        74              0.0000000000
       221        74  TIP3      H1            -32.2099962818      -34.2471951097      -10.6765031047  W2        74              0.0000000000
       222        74  TIP3      H2            -33.3565162818      -33.7067651097      -11.5043431047  W2        74              0.0000000000
       223        75  TIP3      OH2           -27.2178762818      -36.7704551097       -4.0738531047  W2        75              0.0000000000
       224        75  TIP3      H1            -27.8947162818      -36.6391451097       -3.4098831047  W2        75              0.0000000000
       225        75  TIP3      H2            -27.7033862818      -36.9255051097       -4.8840831047  W2        75              0.0000000000
       226        76  TIP3      OH2           -34.4675262818      -33.1819751097      -13.2882031047  W2        76              0.0000000000
       227        76  TIP3      H1            -35.0100162818      -33.5615951097      -13.9794431047  W2        76              0.0000000000
       228        76  TIP3      H2            -33.6340362818      -32.9875051097      -13.7167931047  W2        76              0.0000000000
       229        77  TIP3      OH2           -23.9303662818      -21.0989151097        2.2029068953  W2        77              0.0000000000
       230        77  TIP3      H1            -23.7304962818      -20.6747251097        1.3684368953  W2        77              0.0000000000
       231        77  TIP3      H2            -23.2749962818      -20.7550951097        2.8099468953  W2        77              0.0000000000
       232        78  TIP3      OH2           -36.3323862818      -28.6247851097        1.8109568953  W2        78              0.0000000000
       233        78  TIP3      H1            -35.6001462818      -28.3701951097        2.3724068953  W2        78              0.0000000000
       234        78  TIP3      H2            -37.1125162818      -28.4202451097        2.3264968953  W2        78              0.0000000000
       235        79  TIP3      OH2           -30.3030962818      -33.2177851097       -5.4510731047  W2        79              0.0000000000
       236        79  TIP3      H1            -29.7387562818      -33.7641251097       -5.9981131047  W2        79              0.0000000000
       237        79  TIP3      H2            -30.4507562818      -33.7395951097       -4.6623131047  W2        79              0.0000000000
       238        80  TIP3      OH2           -35.3011262818      -37.0811751097       -9.0325931047  W2        80              0.0000000000
       239        80  TIP3      H1            -35.6181762818      -37.9836451097       -9.0680531047  W2        80              0.0000000000
       240        80  TIP3      H2            -34.5197162818      -37.0794351097       -9.5854331047  W2        80              0.0000000000
       241        81  TIP3      OH2           -31.6765062818      -34.8291751097       -3.0370331047  W2        81              0.0000000000
       242        81  TIP3      H1            -32.5119762818      -34.3752251097       -2.9267931047  W2        81              0.0000000000
       243        81  TIP3      H2            -31.1524462818      -34.5533251097       -2.2850431047  W2        81              0.0000000000
       244        82  TIP3      OH2           -31.1322462818      -28.6164051097      -11.3523931047  W2        82              0.0000000000
       245        82  TIP3      H1            -31.8771462818      -29.1238751097      -11.6746031047  W2        82              0.0000000000
       246        82  TIP3      H2            -31.2665262818      -28.5676051097      -10.4059131047  W2        82              0.0000000000
       247        83  TIP3      OH2           -23.9823562818      -29.4835851097       -2.5656331047  W2        83              0.0000000000
       248        83  TIP3      H1            -23.3404762818      -29.0269551097       -3.1094131047  W2        83              0.0000000000
       249        83  TIP3      H2            -24.8126662818      -29.3703451097       -3.0282231047  W2        83              0.0000000000
       250        84  TIP3      OH2           -27.2345662818      -35.8024151097      -13.1531331047  W2        84              0.0000000000
       251        84  TIP3      H1            -28.1731462818      -35.6908551097      -13.3042531047  W2        84              0.0000000000
       252        84  TIP3      H2            -26.9373562818      -34.9457251097      -12.8465631047  W2        84              0.0000000000
       253        85  TIP3      OH2           -29.6130362818      -28.4320751097       -0.1154831047  W2        85              0.0000000000
       254        85  TIP3      H1            -29.9584262818      -28.8138351097        0.6914768953  W2        85              0.0000000000
       255        85  TIP3      H2            -29.8130262818      -27.4987151097       -0.0441931047  W2        85              0.0000000000
       256        86  TIP3      OH2           -26.5162162818      -33.9351451097      -11.4923931047  W2        86              0.0000000000
       257        86  TIP3      H1            -25.6243162818      -34.0726451097      -11.1732731047  W2        86              0.0000000000
       258        86  TIP3      H2            -26.4598562818      -33.1445351097      -12.0290431047  W2        86              0.0000000000
       259        87  TIP3      OH2           -36.0074162818      -29.3214051097       -5.5826031047  W2        87              0.0000000000
       260        87  TIP3      H1            -35.2626962818      -29.3238351097       -6.1839531047  W2        87              0.0000000000
       261        87  TIP3      H2            -35.9297562818      -30.1450251097       -5.1010931047  W2        87              0.0000000000
       262        88  TIP3      OH2           -29.0068362818      -27.1579751097      -12.3269331047  W2        88              0.0000000000
       263        88  TIP3      H1            -29.3019962818      -26.3311851097      -11.9454531047  W2        88              0.0000000000
       264        88  TIP3      H2            -29.7098362818      -27.7772851097      -12.1307931047  W2        88              0.0000000000
       265        89  TIP3      OH2           -38.9994462818      -30.8607151097       -0.2677531047  W2        89              0.0000000000
       266        89  TIP3      H1            -38.7765862818      -31.2787551097        0.5639968953  W2        89              0.0000000000
       267        89  TIP3      H2            -39.6014362818      -31.4732151097       -0.6904731047  W2        89              0.0000000000
       268        90  TIP3      OH2           -31.9829562818      -31.3437251097        1.9452168953  W2        90              0.0000000000
       269        90  TIP3      H1            -32.2788762818      -31.5094251097        1.0501268953  W2        90              0.0000000000
       270        90  TIP3      H2            -31.0514362818      -31.5636951097        1.9346068953  W2        90              0.0000000000
       271        91  TIP3      OH2           -27.3626762818      -25.9705251097       -0.1649831047  W2        91              0.0000000000
       272        91  TIP3      H1            -28.2632462818      -25.7872651097       -0.4325931047  W2        91              0.0000000000
       273        91  TIP3      H2            -27.3285662818      -25.7115951097        0.7558968953  W2        91              0.0000000000
       274        92  TIP3      OH2           -21.6313462818      -33.7257351097      -11.7977231047  W2        92              0.0000000000
       275        92  TIP3      H1            -22.1857162818      -34.1219351097      -12.4699731047  W2        92              0.0000000000
       276        92  TIP3      H2            -21.5309862818      -32.8152151097      -12.0753931047  W2        92              0.0000000000
       277        93  TIP3      OH2           -21.6681462818      -27.9255651097        1.0394268953  W2        93              0.0000000000
       278        93  TIP3      H1            -22.5192962818      -27.6871851097        0.6720668953  W2        93              0.0000000000
       279        93  TIP3      H2            -21.0778062818      -27.9422451097        0.2861368953  W2        93              0.0000000000
       280        94  TIP3      OH2           -23.3361762818      -24.9396951097      -11.3325131047  W2        94              0.0000000000
       281        94  TIP3      H1            -23.7090662818      -25.7653151097      -11.0234531047  W2        94              0.0000000000
       282        94  TIP3      H2            -23.0588262818      -25.1227551097      -12.2301731047  W2        94              0.0000000000
       283        95  TIP3      OH2           -26.1757862818      -30.1317451097       -4.3113231047  W2        95              0.0000000000
       284        95  TIP3      H1            -27.1040962818      -30.3635551097       -4.3383931047  W2        95              0.0000000000
       285        95  TIP3      H2            -25.7246762818      -30.9087651097       -4.6414431047  W2        95              0.0000000000
       286        96  TIP3      OH2           -33.6324762818      -25.8035851097       -8.1784531047  W2        96              0.0000000000
       287        96  TIP3      H1            -33.1052562818      -25.0301451097       -8.3785731047  W2        96              0.0000000000
       288        96  TIP3      H2            -34.5126262818      -25.5786651097       -8.4800531047  W2        96              0.0000000000
       289        97  TIP3      OH2           -37.8777062818      -30.9411751097      -13.5912131047  W2        97              0.0000000000
       290        97  TIP3      H1            -37.2617162818      -30.3144551097      -13.2117331047  W2        97              0.0000000000
       291        97  TIP3      H2            -38.7394462818      -30.6251951097      -13.3195631047  W2        97              0.0000000000
       292        98  TIP3      OH2           -32.2052462818      -28.1405951097       -8.6020231047  W2        98              0.0000000000
       293        98  TIP3      H1            -32.4462462818      -27.2151551097       -8.5604931047  W2        98              0.0000000000
       294        98  TIP3      H2            -32.9458862818      -28.5994651097       -8.2056331047  W2        98              0.0000000000
       295        99  TIP3      OH2           -31.6905862818      -23.9912351097       -2.2869131047  W2        99              0.0000000000
       296        99  TIP3      H1            -31.3281162818      -23.1366751097       -2.5204731047  W2        99              0.0000000000
       297        99  TIP3      H2            -31.1590662818      -24.2830751097       -1.5462831047  W2        99              0.0000000000
       298       100  TIP3      OH2           -33.5221662818      -23.1188351097       -9.0568031047  W2        100             0.0000000000
       299       100  TIP3      H1            -34.4721162818      -23.0130951097       -9.0054731047  W2        100             0.0000000000
       300       100  TIP3      H2            -33.1703562818      -22.2980951097       -8.7120531047  W2        100             0.0000000000
       301       101  TIP3      OH2           -28.1465062818      -27.8921651097       -2.5863531047  W2        101             0.0000000000
       302       101  TIP3      H1            -28.5723762818      -28.1199951097       -1.7599531047  W2        101             0.0000000000
       303       101  TIP3      H2            -27.5659262818      -28.6309851097       -2.7688231047  W2        101             0.0000000000
       304       102  TIP3      OH2           -25.9436162818      -26.9631151097      -13.5124531047  W2        102             0.0000000000
       305       102  TIP3      H1            -25.5903062818      -27.3431351097      -12.7081031047  W2        102             0.0000000000
       306       102  TIP3      H2            -26.8922662818      -27.0566351097      -13.4255231047  W2        102             0.0000000000
       307       103  TIP3      OH2           -25.4880862818      -23.3402151097       -0.1168731047  W2        103             0.0000000000
       308       103  TIP3      H1            -26.0897662818      -23.8959251097       -0.6122431047  W2        103             0.0000000000
       309       103  TIP3      H2            -25.2067162818      -22.6732351097       -0.7431331047  W2        103             0.0000000000
       310       104  TIP3      OH2           -21.4401762818      -22.4838651097      -13.3114331047  W2        104             0.0000000000
       311       104  TIP3      H1            -20.6963862818      -21.8978151097      -13.4512731047  W2        104             0.0000000000
       312       104  TIP3      H2            -22.1343662818      -21.9152851097      -12.9781931047  W2        104             0.0000000000
       313       105  TIP3      OH2           -37.3654962818      -36.1074451097       -0.7096131047  W2        105             0.0000000000
       314       105  TIP3      H1            -38.2582662818      -35.7689051097       -0.7772131047  W2        105             0.0000000000
       315       105  TIP3      H2            -37.4642162818      -36.9628351097       -0.2915331047  W2        105             0.0000000000
       316       106  TIP3      OH2           -25.0776862818      -28.2909151097      -11.2856631047  W2        106             0.0000000000
       317       106  TIP3      H1            -25.3549262818      -29.0189851097      -10.7295531047  W2        106             0.0000000000
       318       106  TIP3      H2            -24.1503862818      -28.1717151097      -11.0804031047  W2        106             0.0000000000
       319       107  TIP3      OH2           -37.7142962818      -24.3030051097       -2.2746731047  W2        107             0.0000000000
       320       107  TIP3      H1            -37.4972662818      -25.2347651097       -2.3057031047  W2        107             0.0000000000
       321       107  TIP3      H2            -37.4679462818      -24.0285051097       -1.3913931047  W2        107             0.0000000000
       322       108  TIP3      OH2           -31.8528362818      -25.8515051097      -15.0654531047  W2        108             0.0000000000
       323       108  TIP3      H1            -31.6138562818      -26.5996951097      -15.6125631047  W2        108             0.0000000000
       324       108  TIP3      H2            -32.1217062818      -26.2393351097      -14.2326731047  W2        108             0.0000000000
       325       109  TIP3      OH2           -32.9157762818      -26.2811251097      -12.6091931047  W2        109             0.0000000000
       326       109  TIP3      H1            -32.7689762818      -26.8011451097      -11.8191031047  W2        109             0.0000000000
       327       109  TIP3      H2            -32.9186062818      -25.3743651097      -12.3026031047  W2        109             0.0000000000
       328       110  TIP3      OH2           -36.4626662818      -29.0287951097      -12.0986531047  W2        110             0.0000000000
       329       110  TIP3      H1            -37.1487362818      -28.6765451097      -11.5316831047  W2        110             0.0000000000
       330       110  TIP3      H2            -35.9398762818      -28.2658351097      -12.3452231047  W2        110             0.0000000000
       331       111  TIP3      OH2           -28.6311562818      -36.3664151097       -1.8197531047  W2        111             0.0000000000
       332       111  TIP3      H1            -27.9323662818      -36.2925451097       -1.1697831047  W2        111             0.0000000000
       333       111  TIP3      H2            -29.0120162818      -37.2309151097       -1.6654631047  W2        111             0.0000000000
       334       112  TIP3      OH2           -27.8466662818      -36.7142451097      -10.7225231047  W2        112             0.0000000000
       335       112  TIP3      H1            -27.6268362818      -36.2427051097      -11.5259831047  W2        112             0.0000000000
       336       112  TIP3      H2            -27.2882662818      -36.3199851097      -10.0524631047  W2        112             0.0000000000
       337       113  TIP3      OH2           -30.1780562818      -24.5837651097      -11.8597731047  W2        113             0.0000000000
       338       113  TIP3      H1            -30.9944462818      -24.0867951097      -11.8073431047  W2        113             0.0000000000
       339       113  TIP3      H2            -29.6484262818      -24.1084151097      -12.4998931047  W2        113             0.0000000000
       340       114  TIP3      OH2           -30.6466762818      -34.9863651097       -9.8876831047  W2        114             0.0000000000
       341       114  TIP3      H1            -29.8344162818      -34.4820451097       -9.8415131047  W2        114             0.0000000000
       342       114  TIP3      H2            -30.8913762818      -35.1313951097       -8.9737231047  W2        114             0.0000000000
       343       115  TIP3      OH2           -30.1110362818      -34.0000951097       -0.7030231047  W2        115             0.0000000000
       344       115  TIP3      H1            -29.9920062818      -33.4265551097        0.0540168953  W2        115             0.0000000000
       345       115  TIP3      H2            -29.4555762818      -34.6881551097       -0.5882431047  W2        115             0.0000000000
       346       116  TIP3      OH2           -29.7630062818      -37.9050651097       -8.9495731047  W2        116             0.0000000000
       347       116  TIP3      H1            -30.1096562818      -37.2880051097       -8.3051431047  W2        116             0.0000000000
       348       116  TIP3      H2            -29.1043162818      -37.4044951097       -9.4310231047  W2        116             0.0000000000
       349       117  TIP3      OH2           -32.8397462818      -23.5400451097      -11.8780831047  W2        117             0.0000000000
       350       117  TIP3      H1            -32.6788762818      -22.7402951097      -12.3788231047  W2        117             0.0000000000
       351       117  TIP3      H2            -33.0369662818      -23.2334451097      -10.9930231047  W2        117             0.0000000000
       352       118  TIP3      OH2           -34.1053062818      -36.8421251097      -12.2623231047  W2        118             0.0000000000
       353       118  TIP3      H1            -34.1888262818      -35.9538151097      -11.9156831047  W2        118             0.0000000000
       354       118  TIP3      H2            -33.2152762818      -37.1074551097      -12.0306431047  W2        118             0.0000000000
       355       119  TIP3      OH2           -23.9064562818      -36.0930651097        0.1319468953  W2        119             0.0000000000
       356       119  TIP3      H1            -24.8228762818      -35.8308951097        0.0443168953  W2        119             0.0000000000
       357       119  TIP3      H2            -23.5709562818      -36.0961651097       -0.7645231047  W2        119             0.0000000000
       358       120  TIP3      OH2           -25.3043562818      -32.3429651097       -5.7723231047  W2        120             0.0000000000
       359       120  TIP3      H1            -26.1019162818      -32.7579451097       -6.1008231047  W2        120             0.0000000000
       360       120  TIP3      H2            -24.8592462818      -33.0335951097       -5.2812731047  W2        120             0.0000000000
       361       121  TIP3      OH2           -35.8467762818      -26.4149051097      -13.2018731047  W2        121             0.0000000000
       362       121  TIP3      H1            -35.2546262818      -25.7154251097      -12.9256331047  W2        121             0.0000000000
       363       121  TIP3      H2            -35.3874762818      -26.8479551097      -13.9214131047  W2        121             0.0000000000
       364       122  TIP3      OH2           -37.5308562818      -33.7506051097      -14.0859331047  W2        122             0.0000000000
       365       122  TIP3      H1            -37.5755962818      -32.8112951097      -13.9072331047  W2        122             0.0000000000
       366       122  TIP3      H2            -38.4185362818      -33.9861151097      -14.3557231047  W2        122             0.0000000000
       367       123  TIP3      OH2           -24.2178962818      -23.0867151097       -4.1499731047  W2        123             0.0000000000
       368       123  TIP3      H1            -24.3734662818      -22.4082751097       -4.8070431047  W2        123             0.0000000000
       369       123  TIP3      H2            -23.2852562818      -23.0147851097       -3.9469131047  W2        123             0.0000000000
       370       124  TIP3      OH2           -36.7226562818      -38.9689451097       -5.4128331047  W2        124             0.0000000000
       371       124  TIP3      H1            -36.9516762818      -38.9096951097       -6.3403331047  W2        124             0.0000000000
       372       124  TIP3      H2            -37.1653162818      -39.7603951097       -5.1064231047  W2        124             0.0000000000
       373       125  TIP3      OH2           -37.7923262818      -25.0282351097       -9.2522531047  W2        125             0.0000000000
       374       125  TIP3      H1            -38.6244662818      -24.5559651097       -9.2251131047  W2        125             0.0000000000
       375       125  TIP3      H2            -37.2464962818      -24.5184751097       -9.8509431047  W2        125             0.0000000000
       376       126  TIP3      OH2           -38.5039562818      -22.4158651097        2.0775468953  W2        126             0.0000000000
       377       126  TIP3      H1            -37.9637362818      -22.6324651097        2.8374668953  W2        126             0.0000000000
       378       126  TIP3      H2            -38.9851562818      -23.2212651097        1.8877968953  W2        126             0.0000000000
       379       127  TIP3      OH2           -33.9066162818      -23.4964251097        3.6979668953  W2        127             0.0000000000
       380       127  TIP3      H1            -33.1388962818      -23.9553451097        4.0388868953  W2        127             0.0000000000
       381       127  TIP3      H2            -33.9279962818      -23.7224451097        2.7680868953  W2        127             0.0000000000
       382       128  TIP3      OH2           -29.8146562818      -23.9883651097      -14.9268531047  W2        128             0.0000000000
       383       128  TIP3      H1            -30.4585562818      -24.6195051097      -14.6054831047  W2        128             0.0000000000
       384       128  TIP3      H2            -29.0528262818      -24.5195651097      -15.1585031047  W2        128             0.0000000000
       385       129  TIP3      OH2           -27.3297462818      -25.1163151097        2.4271168953  W2        129             0.0000000000
       386       129  TIP3      H1            -27.6807962818      -25.9730151097        2.6701568953  W2        129             0.0000000000
       387       129  TIP3      H2            -26.6034262818      -24.9736451097        3.0340168953  W2        129             0.0000000000
       388       130  TIP3      OH2           -25.2103662818      -24.1713751097      -14.6930531047  W2        130             0.0000000000
       389       130  TIP3      H1            -24.9273262818      -24.9658551097      -14.2403631047  W2        130             0.0000000000
       390       130  TIP3      H2            -24.4705762818      -23.9382751097      -15.2539431047  W2        130             0.0000000000
       391       131  TIP3      OH2           -38.5970062818      -28.6054551097        3.0319768953  W2        131             0.0000000000
       392       131  TIP3      H1            -38.4529562818      -29.5073851097        2.7456468953  W2        131             0.0000000000
       393       131  TIP3      H2            -39.3692662818      -28.3192451097        2.5442068953  W2        131             0.0000000000
       394       132  TIP3      OH2           -34.2556362818      -28.2618851097      -14.8355631047  W2        132             0.0000000000
       395       132  TIP3      H1            -34.1912262818      -29.0559251097      -14.3049231047  W2        132             0.0000000000
       396       132  TIP3      H2            -33.6027162818      -28.3806051097      -15.5253631047  W2        132             0.0000000000
       397       133  TIP3      OH2           -31.9413962818      -28.6356451097        2.4646168953  W2        133             0.0000000000
       398       133  TIP3      H1            -32.2700162818      -28.3648351097        1.6073568953  W2        133             0.0000000000
       399       133  TIP3      H2            -31.7895762818      -29.5766651097        2.3771168953  W2        133             0.0000000000
       400       134  TIP3      OH2           -28.9032962818      -27.2147151097      -15.0997631047  W2        134             0.0000000000
       401       134  TIP3      H1            -29.1718862818      -27.0345051097      -14.1988731047  W2        134             0.0000000000
       402       134  TIP3      H2            -29.1097362818      -28.1400951097      -15.2311831047  W2        134             0.0000000000
       403       135  TIP3      OH2           -26.2068762818      -28.7199151097       -0.1521531047  W2        135             0.0000000000
       404       135  TIP3      H1            -25.4613962818      -28.1315451097       -0.2717531047  W2        135             0.0000000000
       405       135  TIP3      H2            -26.9641962818      -28.1379451097       -0.0888431047  W2        135             0.0000000000
       406       136  TIP3      OH2           -37.7643562818      -31.4051251097        2.4519068953  W2        136             0.0000000000
       407       136  TIP3      H1            -37.3562362818      -32.2624651097        2.3309668953  W2        136             0.0000000000
       408       136  TIP3      H2            -38.0245962818      -31.3909951097        3.3729368953  W2        136             0.0000000000
       409       137  TIP3      OH2           -33.1062562818      -30.2892651097      -12.5297631047  W2        137             0.0000000000
       410       137  TIP3      H1            -33.5660562818      -30.7734351097      -11.8439131047  W2        137             0.0000000000
       411       137  TIP3      H2            -32.8513862818      -30.9577251097      -13.1657131047  W2        137             0.0000000000
       412       138  TIP3      OH2           -33.8173262818      -32.3965551097       -0.1738031047  W2        138             0.0000000000
       413       138  TIP3      H1            -34.4357162818      -31.7218951097        0.1066668953  W2        138             0.0000000000
       414       138  TIP3      H2            -33.4732062818      -32.0751651097       -1.0071831047  W2        138             0.0000000000
       415       139  TIP3      OH2           -32.0352162818      -32.0460851097      -14.2674431047  W2        139             0.0000000000
       416       139  TIP3      H1            -32.2157162818      -32.2009651097      -15.1946131047  W2        139             0.0000000000
       417       139  TIP3      H2            -31.0851662818      -31.9382151097      -14.2226531047  W2        139             0.0000000000
       418       140  TIP3      OH2           -28.7975062818      -29.9250251097        3.1036768953  W2        140             0.0000000000
       419       140  TIP3      H1            -27.8443862818      -29.8411151097        3.0762768953  W2        140             0.0000000000
       420       140  TIP3      H2            -28.9580462818      -30.6368451097        3.7231668953  W2        140             0.0000000000
       421       141  TIP3      OH2           -22.6453862818      -29.6916651097      -14.8216331047  W2        141             0.0000000000
       422       141  TIP3      H1            -22.9189062818      -30.1161151097      -15.6348031047  W2        141             0.0000000000
       423       141  TIP3      H2            -22.6059762818      -28.7602151097      -15.0385931047  W2        141             0.0000000000
       424       142  TIP3      OH2           -33.4779562818      -35.0414751097        0.9085068953  W2        142             0.0000000000
       425       142  TIP3      H1            -33.3278662818      -35.7703451097        0.3064768953  W2        142             0.0000000000
       426       142  TIP3      H2            -33.4757162818      -34.2643051097        0.3497268953  W2        142             0.0000000000
       427       143  TIP3      OH2           -33.0653862818      -36.6718951097       -1.5987531047  W2        143             0.0000000000
       428       143  TIP3      H1            -32.5296362818      -36.2202251097       -2.2508231047  W2        143             0.0000000000
       429       143  TIP3      H2            -33.9174262818      -36.7799151097       -2.0213431047  W2        143             0.0000000000
       430       144  TIP3      OH2           -31.4835462818      -31.2322751097       -1.3592331047  W2        144             0.0000000000
       431       144  TIP3      H1            -30.7330662818      -31.3885251097       -1.9324531047  W2        144             0.0000000000
       432       144  TIP3      H2            -31.8227162818      -30.3806151097       -1.6346831047  W2        144             0.0000000000
       433       145  TIP3      OH2           -27.0679262818      -33.4170951097        3.6692968953  W2        145             0.0000000000
       434       145  TIP3      H1            -26.8757962818      -34.3481551097        3.5577468953  W2        145             0.0000000000
       435       145  TIP3      H2            -26.2102962818      -32.9921451097        3.6588368953  W2        145             0.0000000000
       436       146  TIP3      OH2           -25.7512062818      -30.6285751097        1.7465668953  W2        146             0.0000000000
       437       146  TIP3      H1            -26.0327062818      -29.9191151097        1.1689468953  W2        146             0.0000000000
       438       146  TIP3      H2            -24.8087762818      -30.7012751097        1.5956868953  W2        146             0.0000000000
       439       147  TIP3      OH2           -34.9993262818      -33.8431251097        2.8200668953  W2        147             0.0000000000
       440       147  TIP3      H1            -35.7664262818      -34.3756451097        2.6098268953  W2        147             0.0000000000
       441       147  TIP3      H2            -34.3204262818      -34.1530851097        2.2206968953  W2        147             0.0000000000
       442       148  TIP3      OH2           -32.2598362818      -39.2153251097       -1.1673931047  W2        148             0.0000000000
       443       148  TIP3      H1            -32.3578762818      -38.2690051097       -1.2727731047  W2        148             0.0000000000
       444       148  TIP3      H2            -33.0022162818      -39.5879451097       -1.6430431047  W2        148             0.0000000000
       445       149  TIP3      OH2           -30.9957862818      -34.8937851097        2.3964468953  W2        149             0.0000000000
       446       149  TIP3      H1            -31.2312462818      -35.1131151097        3.2979368953  W2        149             0.0000000000
       447       149  TIP3      H2            -31.7790962818      -35.1006651097        1.8866968953  W2        149             0.0000000000
       448       150  TIP3      OH2           -28.2801262818      -35.7664351097        1.4717968953  W2        150             0.0000000000
       449       150  TIP3      H1            -29.2275862818      -35.7344651097        1.6041268953  W2        150             0.0000000000
       450       150  TIP3      H2            -27.9674562818      -36.3917251097        2.1256168953  W2        150             0.0000000000
       451       151  TIP3      OH2           -26.6459762818      -37.1323251097        3.4769868953  W2        151             0.0000000000
       452       151  TIP3      H1            -26.7427962818      -38.0845951097        3.4711768953  W2        151             0.0000000000
       453       151  TIP3      H2            -26.9676662818      -36.8636451097        4.3375368953  W2        151             0.0000000000
       454       152  TIP3      OH2           -36.8190462818      -35.9227451097        2.5245368953  W2        152             0.0000000000
       455       152  TIP3      H1            -36.6073062818      -36.6291351097        1.9142868953  W2        152             0.0000000000
       456       152  TIP3      H2            -36.9302962818      -36.3601451097        3.3686568953  W2        152             0.0000000000
       457       153  TIP3      OH2           -32.0380262818      -39.9215851097        1.5038868953  W2        153             0.0000000000
       458       153  TIP3      H1            -31.3261862818      -40.5613651097        1.4897968953  W2        153             0.0000000000
       459       153  TIP3      H2            -32.1389862818      -39.6547551097        0.5901968953  W2        153             0.0000000000
       460       154  TIP3      OH2           -31.6842762818      -38.2387451097        3.5575168953  W2        154             0.0000000000
       461       154  TIP3      H1            -31.8160562818      -38.7143651097        2.7373668953  W2        154             0.0000000000
       462       154  TIP3      H2            -32.2835362818      -37.4943851097        3.5022268953  W2        154             0.0000000000
       463       155  TIP3      OH2           -32.1380462818      -21.3557151097      -13.2660831047  W2        155             0.0000000000
       464       155  TIP3      H1            -31.2049762818      -21.1978451097      -13.1222431047  W2        155             0.0000000000
       465       155  TIP3      H2            -32.4021662818      -20.6804151097      -13.8909331047  W2        155             0.0000000000
       466       156  TIP3      OH2           -38.5695562818      -26.7193351097      -13.7832731047  W2        156             0.0000000000
       467       156  TIP3      H1            -37.6556362818      -26.6404451097      -13.5098831047  W2        156             0.0000000000
       468       156  TIP3      H2            -38.5622462818      -27.4063751097      -14.4497131047  W2        156             0.0000000000
       469       157  TIP3      OH2           -39.9204962818      -21.3264851097       -8.7058831047  W2        157             0.0000000000
       470       157  TIP3      H1            -40.5677862818      -21.7883151097       -9.2387631047  W2        157             0.0000000000
       471       157  TIP3      H2            -39.5660362818      -21.9981551097       -8.1232631047  W2        157             0.0000000000
       472       158  TIP3      OH2           -39.0505762818      -23.2457851097       -6.9012631047  W2        158             0.0000000000
       473       158  TIP3      H1            -39.3848962818      -24.1260551097       -6.7292431047  W2        158             0.0000000000
       474       158  TIP3      H2            -38.8283362818      -22.9002851097       -6.0367031047  W2        158             0.0000000000
       475       159  TIP3      OH2           -21.5020962818      -22.4361451097       -3.9207831047  W2        159             0.0000000000
       476       159  TIP3      H1            -21.5234262818      -22.2513051097       -2.9818431047  W2        159             0.0000000000
       477       159  TIP3      H2            -20.8114762818      -21.8677451097       -4.2616431047  W2        159             0.0000000000
       478       160  TIP3      OH2           -21.9388062818      -22.8690351097       -0.9988731047  W2        160             0.0000000000
       479       160  TIP3      H1            -22.4259362818      -23.6046251097       -1.3701331047  W2        160             0.0000000000
       480       160  TIP3      H2            -21.3895362818      -23.2626451097       -0.3209331047  W2        160             0.0000000000
       481       161  TIP3      OH2           -23.4880762818      -27.0792251097        3.6391568953  W2        161             0.0000000000
       482       161  TIP3      H1            -24.3539662818      -27.1842551097        4.0333868953  W2        161             0.0000000000
       483       161  TIP3      H2            -23.1114862818      -26.3208951097        4.0856268953  W2        161             0.0000000000
       484       162  TIP3      OH2           -22.1871062818      -28.8228551097      -10.8465931047  W2        162             0.0000000000
       485       162  TIP3      H1            -21.3369662818      -28.4017651097      -10.7194331047  W2        162             0.0000000000
       486       162  TIP3      H2            -22.1815962818      -29.5628451097      -10.2394531047  W2        162             0.0000000000
       487       163  TIP3      OH2           -21.7925462818      -30.7691151097       -9.0230231047  W2        163             0.0000000000
       488       163  TIP3      H1            -22.5190862818      -31.2488551097       -8.6252631047  W2        163             0.0000000000
       489       163  TIP3      H2            -21.2112162818      -30.5636451097       -8.2908631047  W2        163             0.0000000000
       490       164  TIP3      OH2           -22.0334262818      -27.9843651097       -4.0752631047  W2        164             0.0000000000
       491       164  TIP3      H1            -21.2000062818      -28.3623651097       -4.3559031047  W2        164             0.0000000000
       492       164  TIP3      H2            -21.9213962818      -27.0412451097       -4.1943531047  W2        164             0.0000000000
       493       165  TIP3      OH2           -23.5471962818      -25.1066151097       -1.7684231047  W2        165             0.0000000000
       494       165  TIP3      H1            -24.1946662818      -24.7814651097       -1.1429031047  W2        165             0.0000000000
       495       165  TIP3      H2            -24.0647962818      -25.5468451097       -2.4425931047  W2        165             0.0000000000
       496       166  TIP3      OH2           -21.5242362818      -30.8682651097      -12.6318931047  W2        166             0.0000000000
       497       166  TIP3      H1            -22.0461262818      -30.5118551097      -13.3508031047  W2        166             0.0000000000
       498       166  TIP3      H2            -21.5573162818      -30.1934851097      -11.9538031047  W2        166             0.0000000000
       499       167  TIP3      OH2           -23.1753362818      -33.6287051097      -14.0811831047  W2        167             0.0000000000
       500       167  TIP3      H1            -23.0788962818      -32.9620051097      -14.7612131047  W2        167             0.0000000000
       501       167  TIP3      H2            -23.3153762818      -34.4440751097      -14.5626331047  W2        167             0.0000000000
       502       168  TIP3      OH2           -24.0058662818      -32.2484651097       -8.4601531047  W2        168             0.0000000000
       503       168  TIP3      H1            -24.1559862818      -33.1936051097       -8.4803731047  W2        168             0.0000000000
       504       168  TIP3      H2            -24.3594162818      -31.9673251097       -7.6162431047  W2        168             0.0000000000
       505       169  TIP3      OH2           -38.9706262818      -30.1702451097       -4.4497731047  W2        169             0.0000000000
       506       169  TIP3      H1            -38.7863362818      -30.2520751097       -5.3854831047  W2        169             0.0000000000
       507       169  TIP3      H2            -38.1213362818      -30.2945451097       -4.0261331047  W2        169             0.0000000000
       508       170  TIP3      OH2           -23.1495762818      -30.2781351097        1.1786768953  W2        170             0.0000000000
       509       170  TIP3      H1            -22.5668462818      -31.0129051097        1.3703968953  W2        170             0.0000000000
       510       170  TIP3      H2            -22.5856462818      -29.5061051097        1.2252568953  W2        170             0.0000000000
       511       171  TIP3      OH2           -21.6528662818      -32.3755551097        1.8632168953  W2        171             0.0000000000
       512       171  TIP3      H1            -22.5161962818      -32.7543451097        1.6976868953  W2        171             0.0000000000
       513       171  TIP3      H2            -21.0484962818      -33.1140751097        1.7887968953  W2        171             0.0000000000
       514       172  TIP3      OH2           -23.9279562818      -36.2207251097      -14.9636331047  W2        172             0.0000000000
       515       172  TIP3      H1            -23.3173762818      -36.5920451097      -14.3268131047  W2        172             0.0000000000
       516       172  TIP3      H2            -24.7648062818      -36.6420351097      -14.7676331047  W2        172             0.0000000000
       517       173  TIP3      OH2           -24.2953862818      -34.6658851097       -9.9976431047  W2        173             0.0000000000
       518       173  TIP3      H1            -24.0156762818      -35.5728451097       -9.8734731047  W2        173             0.0000000000
       519       173  TIP3      H2            -23.5362162818      -34.2317351097      -10.3867231047  W2        173             0.0000000000
       520       174  TIP3      OH2           -23.6835562818      -34.0841451097       -4.5617531047  W2        174             0.0000000000
       521       174  TIP3      H1            -22.7507562818      -33.8721551097       -4.5961531047  W2        174             0.0000000000
       522       174  TIP3      H2            -23.9188062818      -33.9829351097       -3.6394531047  W2        174             0.0000000000
       523       175  TIP3      OH2           -23.6543662818      -33.3476151097       -1.7858131047  W2        175             0.0000000000
       524       175  TIP3      H1            -24.4972362818      -33.0795751097       -1.4198331047  W2        175             0.0000000000
       525       175  TIP3      H2            -23.2119362818      -32.5254251097       -1.9967031047  W2        175             0.0000000000
       526       176  TIP3      OH2           -39.3731462818      -34.8997451097        1.6911068953  W2        176             0.0000000000
       527       176  TIP3      H1            -38.4536562818      -35.0219151097        1.9274168953  W2        176             0.0000000000
       528       176  TIP3      H2            -39.8226962818      -35.6497751097        2.0804568953  W2        176             0.0000000000
       529       177  TIP3      OH2           -21.3712062818      -39.3675951097        3.5676868953  W2        177             0.0000000000
       530       177  TIP3      H1            -21.0215062818      -40.0212451097        2.9621568953  W2        177             0.0000000000
       531       177  TIP3      H2            -21.2242562818      -38.5301851097        3.1279468953  W2        177             0.0000000000
       532       178  TIP3      OH2           -23.6819062818      -37.4029551097       -9.9494431047  W2        178             0.0000000000
       533       178  TIP3      H1            -23.4994062818      -37.8518051097       -9.1239431047  W2        178             0.0000000000
       534       178  TIP3      H2            -24.2816162818      -37.9875151097      -10.4129831047  W2        178             0.0000000000
       535       179  TIP3      OH2           -38.1518962818      -36.5875851097       -5.4176031047  W2        179             0.0000000000
       536       179  TIP3      H1            -37.7067362818      -37.3793351097       -5.1156331047  W2        179             0.0000000000
       537       179  TIP3      H2            -37.6855962818      -35.8710651097       -4.9870431047  W2        179             0.0000000000
       538       180  TIP3      OH2           -39.8478662818      -33.5882851097       -4.3485831047  W2        180             0.0000000000
       539       180  TIP3      H1            -39.3558862818      -33.8092351097       -5.1393831047  W2        180             0.0000000000
       540       180  TIP3      H2            -39.4857762818      -32.7479451097       -4.0676331047  W2        180             0.0000000000
       541       181  TIP3      OH2           -21.8514862818      -37.2581351097        1.9168168953  W2        181             0.0000000000
       542       181  TIP3      H1            -22.7689162818      -36.9874251097        1.8811668953  W2        181             0.0000000000
       543       181  TIP3      H2            -21.7285462818      -37.7932951097        1.1327868953  W2        181             0.0000000000
       544       182  TIP3      OH2           -21.8152862818      -37.3351451097      -13.4214131047  W2        182             0.0000000000
       545       182  TIP3      H1            -21.4030262818      -38.0565751097      -13.8966131047  W2        182             0.0000000000
       546       182  TIP3      H2            -21.1336362818      -36.6656851097      -13.3629831047  W2        182             0.0000000000
       547       183  TIP3      OH2           -39.5342162818      -37.3303751097      -10.2943431047  W2        183             0.0000000000
       548       183  TIP3      H1            -40.4593762818      -37.1217151097      -10.4237931047  W2        183             0.0000000000
       549       183  TIP3      H2            -39.0802262818      -36.8462951097      -10.9841131047  W2        183             0.0000000000
       550       184  TIP3      OH2           -24.7634962818      -22.3462051097       -8.3486031047  W2        184             0.0000000000
       551       184  TIP3      H1            -24.1112062818      -22.6939951097       -8.9566931047  W2        184             0.0000000000
       552       184  TIP3      H2            -24.2531162818      -21.8578851097       -7.7026331047  W2        184             0.0000000000
       553       185  TIP3      OH2           -39.5706762818      -38.5924751097       -1.9500931047  W2        185             0.0000000000
       554       185  TIP3      H1            -40.2356262818      -38.8384451097       -1.3070031047  W2        185             0.0000000000
       555       185  TIP3      H2            -40.0135462818      -37.9704351097       -2.5272931047  W2        185             0.0000000000
       556       186  TIP3      OH2           -37.3787462818      -25.4170651097        2.1944868953  W2        186             0.0000000000
       557       186  TIP3      H1            -38.1994962818      -25.2424151097        1.7339568953  W2        186             0.0000000000
       558       186  TIP3      H2            -37.6309662818      -25.4905951097        3.1149268953  W2        186             0.0000000000
       559       187  TIP3      OH2           -34.4244562818      -24.4429451097       -1.5471131047  W2        187             0.0000000000
       560       187  TIP3      H1            -34.8493462818      -23.6330951097       -1.8296531047  W2        187             0.0000000000
       561       187  TIP3      H2            -33.5201762818      -24.3575351097       -1.8491331047  W2        187             0.0000000000
       562       188  TIP3      OH2           -30.1133162818      -23.0439451097        1.4122568953  W2        188             0.0000000000
       563       188  TIP3      H1            -29.9285662818      -23.3773351097        2.2902868953  W2        188             0.0000000000
       564       188  TIP3      H2            -29.2668662818      -22.7340851097        1.0901768953  W2        188             0.0000000000
       565       189  TIP3      OH2           -27.7682762818      -21.7580551097        0.6563968953  W2        189             0.0000000000
       566       189  TIP3      H1            -27.0913862818      -22.3908251097        0.4163168953  W2        189             0.0000000000
       567       189  TIP3      H2            -27.4463962818      -21.3570051097        1.4637268953  W2        189             0.0000000000
       568       190  TIP3      OH2           -22.8508962818      -39.1685051097       -0.2641031047  W2        190             0.0000000000
       569       190  TIP3      H1            -23.6635462818      -38.8434751097       -0.6516331047  W2        190             0.0000000000
       570       190  TIP3      H2            -22.6180462818      -39.9286551097       -0.7971931047  W2        190             0.0000000000
       571       191  TIP3      OH2           -37.0227862818      -21.1865551097       -1.4995831047  W2        191             0.0000000000
       572       191  TIP3      H1            -37.7431462818      -20.7464551097       -1.9508131047  W2        191             0.0000000000
       573       191  TIP3      H2            -37.3883862818      -21.4370851097       -0.6511831047  W2        191             0.0000000000
       574       192  TIP3      OH2           -34.5555262818      -21.5861651097       -2.4698631047  W2        192             0.0000000000
       575       192  TIP3      H1            -35.4203062818      -21.5143151097       -2.0658531047  W2        192             0.0000000000
       576       192  TIP3      H2            -34.6106262818      -21.0394351097       -3.2536131047  W2        192             0.0000000000
       577       193  TIP3      OH2           -29.8449662818      -21.6982751097       -3.2942631047  W2        193             0.0000000000
       578       193  TIP3      H1            -30.3015662818      -21.1693051097       -3.9484231047  W2        193             0.0000000000
       579       193  TIP3      H2            -29.6821662818      -21.0951351097       -2.5690331047  W2        193             0.0000000000
       580       194  TIP3      OH2           -27.5173362818      -22.8203151097       -2.3492331047  W2        194             0.0000000000
       581       194  TIP3      H1            -28.4219662818      -22.6552951097       -2.6150231047  W2        194             0.0000000000
       582       194  TIP3      H2            -27.0884762818      -21.9670951097       -2.4148931047  W2        194             0.0000000000
       583       195  TIP3      OH2           -24.9131462818      -21.2504051097       -2.0544531047  W2        195             0.0000000000
       584       195  TIP3      H1            -25.0949462818      -20.3345151097       -2.2649631047  W2        195             0.0000000000
       585       195  TIP3      H2            -24.7363662818      -21.6606951097       -2.9009931047  W2        195             0.0000000000
       586       196  TIP3      OH2           -37.6079762818      -22.5633051097       -4.5894031047  W2        196             0.0000000000
       587       196  TIP3      H1            -37.6263762818      -22.9887951097       -3.7321731047  W2        196             0.0000000000
       588       196  TIP3      H2            -36.8031862818      -22.8818051097       -4.9981831047  W2        196             0.0000000000
       589       197  TIP3      OH2           -35.4666662818      -23.8534351097       -5.9344131047  W2        197             0.0000000000
       590       197  TIP3      H1            -35.6855962818      -24.7696951097       -5.7648131047  W2        197             0.0000000000
       591       197  TIP3      H2            -34.6424462818      -23.7133951097       -5.4682731047  W2        197             0.0000000000
       592       198  TIP3      OH2           -32.9294162818      -23.3835051097       -5.0856131047  W2        198             0.0000000000
       593       198  TIP3      H1            -32.7168462818      -24.2716051097       -5.3725231047  W2        198             0.0000000000
       594       198  TIP3      H2            -32.8649062818      -23.4177351097       -4.1312131047  W2        198             0.0000000000
       595       199  TIP3      OH2           -29.4210462818      -37.7194451097       -5.9412831047  W2        199             0.0000000000
       596       199  TIP3      H1            -30.0953662818      -38.3488851097       -5.6857031047  W2        199             0.0000000000
       597       199  TIP3      H2            -28.8571262818      -38.2035551097       -6.5444931047  W2        199             0.0000000000
       598       200  TIP3      OH2           -24.2783262818      -39.6120451097       -5.8285731047  W2        200             0.0000000000
       599       200  TIP3      H1            -23.6745662818      -39.0645051097       -6.3304731047  W2        200             0.0000000000
       600       200  TIP3      H2            -25.1481262818      -39.2930051097       -6.0691631047  W2        200             0.0000000000
       601       201  TIP3      OH2           -22.5512862818      -38.4731751097       -7.4954831047  W2        201             0.0000000000
       602       201  TIP3      H1            -21.9395362818      -38.9876051097       -8.0221231047  W2        201             0.0000000000
       603       201  TIP3      H2            -22.1689462818      -37.5959651097       -7.4720431047  W2        201             0.0000000000
       604       202  TIP3      OH2           -37.0942962818      -39.0854151097       -8.1192931047  W2        202             0.0000000000
       605       202  TIP3      H1            -37.8713162818      -39.3199251097       -8.6267031047  W2        202             0.0000000000
       606       202  TIP3      H2            -36.5639362818      -39.8822051097       -8.1104931047  W2        202             0.0000000000
       607       203  TIP3      OH2           -38.2579562818      -39.2876051097      -12.3156831047  W2        203             0.0000000000
       608       203  TIP3      H1            -37.8188862818      -38.6765551097      -12.9073331047  W2        203             0.0000000000
       609       203  TIP3      H2            -38.8917162818      -38.7491951097      -11.8416831047  W2        203             0.0000000000
       610       204  TIP3      OH2           -32.5150362818      -39.1587051097       -8.3059831047  W2        204             0.0000000000
       611       204  TIP3      H1            -31.6406962818      -38.7702751097       -8.3355531047  W2        204             0.0000000000
       612       204  TIP3      H2            -32.6509562818      -39.3739251097       -7.3832631047  W2        204             0.0000000000
       613       205  TIP3      OH2           -26.9581962818      -39.1287251097       -6.6568131047  W2        205             0.0000000000
       614       205  TIP3      H1            -26.8820362818      -39.0335651097       -7.6062131047  W2        205             0.0000000000
       615       205  TIP3      H2            -27.2332762818      -40.0364351097       -6.5279031047  W2        205             0.0000000000
       616       206  TIP3      OH2           -25.6049362818      -39.1029451097      -10.9643131047  W2        206             0.0000000000
       617       206  TIP3      H1            -26.3078262818      -38.4880251097      -11.1741731047  W2        206             0.0000000000
       618       206  TIP3      H2            -26.0497962818      -39.9402751097      -10.8332231047  W2        206             0.0000000000
       619       207  TIP3      OH2           -38.3570062818      -23.3393851097      -11.4181731047  W2        207             0.0000000000
       620       207  TIP3      H1            -39.0420162818      -23.3774951097      -12.0856631047  W2        207             0.0000000000
       621       207  TIP3      H2            -38.3532862818      -22.4266251097      -11.1299631047  W2        207             0.0000000000
       622       208  TIP3      OH2           -36.3970462818      -37.3714551097      -13.8732731047  W2        208             0.0000000000
       623       208  TIP3      H1            -35.9057062818      -38.0012151097      -14.4007231047  W2        208             0.0000000000
       624       208  TIP3      H2            -35.7734162818      -37.0755151097      -13.2101531047  W2        208             0.0000000000
       625       209  TIP3      OH2           -31.3710362818      -37.0783051097      -11.4162231047  W2        209             0.0000000000
       626       209  TIP3      H1            -31.1929062818      -37.7249851097      -10.7333631047  W2        209             0.0000000000
       627       209  TIP3      H2            -31.4244162818      -36.2445351097      -10.9491131047  W2        209             0.0000000000
       628       210  TIP3      OH2           -29.4926562818      -22.1298951097      -13.0205531047  W2        210             0.0000000000
       629       210  TIP3      H1            -28.6266362818      -21.7631551097      -13.1987331047  W2        210             0.0000000000
       630       210  TIP3      H2            -29.7393762818      -22.5690951097      -13.8344731047  W2        210             0.0000000000
       631       211  TIP3      OH2           -22.7836962818      -22.5668651097      -10.3414431047  W2        211             0.0000000000
       632       211  TIP3      H1            -22.9779862818      -23.3146551097      -10.9064831047  W2        211             0.0000000000
       633       211  TIP3      H2            -22.8226862818      -21.8088551097      -10.9246531047  W2        211             0.0000000000
       634       212  TIP3      OH2           -37.1364962818      -38.5712251097        1.3983268953  W2        212             0.0000000000
       635       212  TIP3      H1            -37.5026762818      -39.3369651097        1.8407968953  W2        212             0.0000000000
       636       212  TIP3      H2            -36.2236462818      -38.5422051097        1.6848368953  W2        212             0.0000000000
       637       213  TIP3      OH2           -35.1634162818      -39.2207851097        2.9340368953  W2        213             0.0000000000
       638       213  TIP3      H1            -34.2650562818      -39.4947651097        2.7493768953  W2        213             0.0000000000
       639       213  TIP3      H2            -35.5501062818      -39.9631851097        3.3982968953  W2        213             0.0000000000
       640       214  TIP3      OH2           -36.5388862818      -22.4193051097      -14.3929631047  W2        214             0.0000000000
       641       214  TIP3      H1            -36.8064262818      -22.1330151097      -13.5196531047  W2        214             0.0000000000
       642       214  TIP3      H2            -35.7676262818      -22.9653851097      -14.2407131047  W2        214             0.0000000000
       643       215  TIP3      OH2           -26.7421862818      -39.8882551097        3.1163168953  W2        215             0.0000000000
       644       215  TIP3      H1            -26.6654662818      -40.3141851097        3.9700868953  W2        215             0.0000000000
       645       215  TIP3      H2            -25.8485262818      -39.8747851097        2.7736668953  W2        215             0.0000000000
       646       216  TIP3      OH2           -23.5660762818      -23.8156251097        1.8087368953  W2        216             0.0000000000
       647       216  TIP3      H1            -24.3478862818      -24.0018251097        1.2887968953  W2        216             0.0000000000
       648       216  TIP3      H2            -23.6380862818      -22.8861951097        2.0259868953  W2        216             0.0000000000
       649       217  TIP3      OH2            -9.1600362818      -29.9291851097       -8.1605431047  W2        217             0.0000000000
       650       217  TIP3      H1             -9.0709262818      -28.9853651097       -8.2928331047  W2        217             0.0000000000
       651       217  TIP3      H2             -9.7982762818      -30.2045451097       -8.8186031047  W2        217             0.0000000000
       652       218  TIP3      OH2           -10.2269062818      -30.6741151097       -4.7417231047  W2        218             0.0000000000
       653       218  TIP3      H1            -10.2651562818      -31.3204851097       -4.0367631047  W2        218             0.0000000000
       654       218  TIP3      H2            -10.5492562818      -31.1406751097       -5.5128531047  W2        218             0.0000000000
       655       219  TIP3      OH2           -17.8584062818      -31.0599051097       -3.1487331047  W2        219             0.0000000000
       656       219  TIP3      H1            -17.8171962818      -31.6855751097       -2.4254931047  W2        219             0.0000000000
       657       219  TIP3      H2            -17.1556362818      -30.4360451097       -2.9666931047  W2        219             0.0000000000
       658       220  TIP3      OH2            -6.5208862818      -27.7350751097       -6.4402131047  W2        220             0.0000000000
       659       220  TIP3      H1             -6.9616162818      -28.4554751097       -5.9896531047  W2        220             0.0000000000
       660       220  TIP3      H2             -6.5339162818      -27.0143551097       -5.8104431047  W2        220             0.0000000000
       661       221  TIP3      OH2           -16.9350962818      -26.6100151097       -4.6138231047  W2        221             0.0000000000
       662       221  TIP3      H1            -17.3045762818      -27.4119651097       -4.9833931047  W2        221             0.0000000000
       663       221  TIP3      H2            -15.9939862818      -26.7785251097       -4.5674831047  W2        221             0.0000000000
       664       222  TIP3      OH2           -20.3250462818      -32.9497551097       -9.2209431047  W2        222             0.0000000000
       665       222  TIP3      H1            -20.7727062818      -32.1038851097       -9.2392931047  W2        222             0.0000000000
       666       222  TIP3      H2            -20.8859262818      -33.5293351097       -9.7364331047  W2        222             0.0000000000
       667       223  TIP3      OH2           -19.6144362818      -30.7877951097       -7.0951431047  W2        223             0.0000000000
       668       223  TIP3      H1            -19.4010862818      -31.5576351097       -6.5678431047  W2        223             0.0000000000
       669       223  TIP3      H2            -18.8766762818      -30.6981251097       -7.6983831047  W2        223             0.0000000000
       670       224  TIP3      OH2            -9.4093362818      -22.6309051097       -6.2281731047  W2        224             0.0000000000
       671       224  TIP3      H1             -8.7896962818      -23.3074351097       -6.5012531047  W2        224             0.0000000000
       672       224  TIP3      H2             -9.6175962818      -22.8488251097       -5.3196831047  W2        224             0.0000000000
       673       225  TIP3      OH2           -11.8374662818      -28.2419751097       -4.3356231047  W2        225             0.0000000000
       674       225  TIP3      H1            -11.5336762818      -28.9278351097       -4.9302131047  W2        225             0.0000000000
       675       225  TIP3      H2            -11.1160662818      -28.1231051097       -3.7178231047  W2        225             0.0000000000
       676       226  TIP3      OH2            -3.1744862818      -36.6404451097       -3.4750031047  W2        226             0.0000000000
       677       226  TIP3      H1             -3.1252662818      -36.0303251097       -2.7390931047  W2        226             0.0000000000
       678       226  TIP3      H2             -2.7489762818      -36.1793551097       -4.1978931047  W2        226             0.0000000000
       679       227  TIP3      OH2            -8.6967662818      -33.8477351097       -4.0081431047  W2        227             0.0000000000
       680       227  TIP3      H1             -8.5541762818      -34.7940351097       -3.9879831047  W2        227             0.0000000000
       681       227  TIP3      H2             -8.8028662818      -33.6407551097       -4.9366531047  W2        227             0.0000000000
       682       228  TIP3      OH2           -15.5419362818      -35.7460951097       -6.7356631047  W2        228             0.0000000000
       683       228  TIP3      H1            -15.4988262818      -34.8862451097       -7.1540331047  W2        228             0.0000000000
       684       228  TIP3      H2            -15.9995262818      -36.2986251097       -7.3693431047  W2        228             0.0000000000
       685       229  TIP3      OH2            -7.8196662818      -35.6155351097       -8.3348331047  W2        229             0.0000000000
       686       229  TIP3      H1             -7.1732362818      -35.9442151097       -7.7100731047  W2        229             0.0000000000
       687       229  TIP3      H2             -7.3097262818      -35.0976351097       -8.9576931047  W2        229             0.0000000000
       688       230  TIP3      OH2           -18.9217862818      -33.3495151097       -5.9735231047  W2        230             0.0000000000
       689       230  TIP3      H1            -18.2681262818      -33.8993451097       -5.5415131047  W2        230             0.0000000000
       690       230  TIP3      H2            -18.8978562818      -33.6236151097       -6.8903231047  W2        230             0.0000000000
       691       231  TIP3      OH2           -13.7653362818      -31.7993851097       -6.7583731047  W2        231             0.0000000000
       692       231  TIP3      H1            -13.1492362818      -32.3258451097       -6.2489731047  W2        231             0.0000000000
       693       231  TIP3      H2            -14.3514562818      -32.4395151097       -7.1620131047  W2        231             0.0000000000
       694       232  TIP3      OH2            -2.7830262818      -35.1625251097       -1.2390231047  W2        232             0.0000000000
       695       232  TIP3      H1             -3.4715662818      -34.5044551097       -1.3343631047  W2        232             0.0000000000
       696       232  TIP3      H2             -2.7675662818      -35.3597351097       -0.3024831047  W2        232             0.0000000000
       697       233  TIP3      OH2           -16.7317462818      -36.8282551097       -2.6615831047  W2        233             0.0000000000
       698       233  TIP3      H1            -16.9505762818      -36.2981951097       -3.4279831047  W2        233             0.0000000000
       699       233  TIP3      H2            -17.3996562818      -36.6017051097       -2.0144431047  W2        233             0.0000000000
       700       234  TIP3      OH2            -9.3627662818      -27.3281451097       -9.1176731047  W2        234             0.0000000000
       701       234  TIP3      H1             -9.6582562818      -27.6509151097       -9.9689831047  W2        234             0.0000000000
       702       234  TIP3      H2             -9.6869862818      -26.4284751097       -9.0764131047  W2        234             0.0000000000
       703       235  TIP3      OH2           -14.1626062818      -29.1526851097       -2.3742131047  W2        235             0.0000000000
       704       235  TIP3      H1            -14.9026962818      -28.5545351097       -2.2706931047  W2        235             0.0000000000
       705       235  TIP3      H2            -13.4486562818      -28.5987251097       -2.6898531047  W2        235             0.0000000000
       706       236  TIP3      OH2            -6.0558262818      -36.3246051097       -6.3542431047  W2        236             0.0000000000
       707       236  TIP3      H1             -6.2710262818      -37.0902651097       -5.8216431047  W2        236             0.0000000000
       708       236  TIP3      H2             -5.4000862818      -35.8521451097       -5.8413931047  W2        236             0.0000000000
       709       237  TIP3      OH2           -17.1380162818      -34.9360751097       -4.7093631047  W2        237             0.0000000000
       710       237  TIP3      H1            -16.5243862818      -34.3033151097       -4.3361231047  W2        237             0.0000000000
       711       237  TIP3      H2            -16.6259462818      -35.4085751097       -5.3656731047  W2        237             0.0000000000
       712       238  TIP3      OH2           -15.7551762818      -27.1883851097       -1.5870631047  W2        238             0.0000000000
       713       238  TIP3      H1            -15.7604162818      -26.3090351097       -1.9651331047  W2        238             0.0000000000
       714       238  TIP3      H2            -16.6087662818      -27.2719751097       -1.1620731047  W2        238             0.0000000000
       715       239  TIP3      OH2           -19.6340862818      -27.5175951097      -10.8051331047  W2        239             0.0000000000
       716       239  TIP3      H1            -19.9059962818      -27.2884951097      -11.6938431047  W2        239             0.0000000000
       717       239  TIP3      H2            -19.5885162818      -26.6797151097      -10.3446031047  W2        239             0.0000000000
       718       240  TIP3      OH2            -6.0091162818      -25.8960051097       -4.0922831047  W2        240             0.0000000000
       719       240  TIP3      H1             -6.9507462818      -25.8376151097       -3.9305931047  W2        240             0.0000000000
       720       240  TIP3      H2             -5.7325062818      -24.9899551097       -4.2293131047  W2        240             0.0000000000
       721       241  TIP3      OH2            -5.7084162818      -37.6094751097       -2.6748931047  W2        241             0.0000000000
       722       241  TIP3      H1             -6.4444962818      -36.9987651097       -2.7127631047  W2        241             0.0000000000
       723       241  TIP3      H2             -5.0250162818      -37.1945751097       -3.2012531047  W2        241             0.0000000000
       724       242  TIP3      OH2           -12.7052762818      -39.5227451097       -5.2090931047  W2        242             0.0000000000
       725       242  TIP3      H1            -12.8228562818      -40.4711451097       -5.2632631047  W2        242             0.0000000000
       726       242  TIP3      H2            -13.5602662818      -39.1901351097       -4.9359831047  W2        242             0.0000000000
       727       243  TIP3      OH2            -7.7569962818      -24.1146551097       -7.4671231047  W2        243             0.0000000000
       728       243  TIP3      H1             -7.3317662818      -24.8218651097       -7.9521631047  W2        243             0.0000000000
       729       243  TIP3      H2             -7.4399962818      -23.3133851097       -7.8839031047  W2        243             0.0000000000
       730       244  TIP3      OH2            -6.5973462818      -26.2138051097       -8.9584631047  W2        244             0.0000000000
       731       244  TIP3      H1             -6.8548662818      -26.9037951097       -9.5698731047  W2        244             0.0000000000
       732       244  TIP3      H2             -6.5262662818      -26.6566851097       -8.1128731047  W2        244             0.0000000000
       733       245  TIP3      OH2            -4.9113262818      -27.6471351097       -0.4811131047  W2        245             0.0000000000
       734       245  TIP3      H1             -4.7716962818      -28.2388851097       -1.2204131047  W2        245             0.0000000000
       735       245  TIP3      H2             -4.7440462818      -26.7745451097       -0.8372331047  W2        245             0.0000000000
       736       246  TIP3      OH2           -10.4387862818      -30.6851851097      -10.7085131047  W2        246             0.0000000000
       737       246  TIP3      H1            -11.1502362818      -30.1502151097      -11.0604631047  W2        246             0.0000000000
       738       246  TIP3      H2             -9.7478262818      -30.6299751097      -11.3686231047  W2        246             0.0000000000
       739       247  TIP3      OH2           -10.3848662818      -32.2277551097      -13.6700131047  W2        247             0.0000000000
       740       247  TIP3      H1             -9.6838762818      -32.2050651097      -13.0186131047  W2        247             0.0000000000
       741       247  TIP3      H2            -10.0825762818      -32.8557851097      -14.3260831047  W2        247             0.0000000000
       742       248  TIP3      OH2            -3.0693962818      -31.3073351097       -2.4150731047  W2        248             0.0000000000
       743       248  TIP3      H1             -3.7219862818      -30.6127751097       -2.3259831047  W2        248             0.0000000000
       744       248  TIP3      H2             -2.6043662818      -31.0972451097       -3.2249131047  W2        248             0.0000000000
       745       249  TIP3      OH2            -7.0330162818      -30.4758551097       -9.7569231047  W2        249             0.0000000000
       746       249  TIP3      H1             -7.7649162818      -30.2474851097       -9.1838631047  W2        249             0.0000000000
       747       249  TIP3      H2             -6.5857962818      -31.1895851097       -9.3021731047  W2        249             0.0000000000
       748       250  TIP3      OH2            -7.1356662818      -32.3015951097       -0.6892231047  W2        250             0.0000000000
       749       250  TIP3      H1             -7.0557562818      -31.5381551097       -0.1173731047  W2        250             0.0000000000
       750       250  TIP3      H2             -7.7368962818      -32.0223551097       -1.3797131047  W2        250             0.0000000000
       751       251  TIP3      OH2           -15.3876462818      -29.8452351097       -7.8744231047  W2        251             0.0000000000
       752       251  TIP3      H1            -15.7181262818      -30.2158951097       -8.6927231047  W2        251             0.0000000000
       753       251  TIP3      H2            -14.7992362818      -30.5158351097       -7.5275931047  W2        251             0.0000000000
       754       252  TIP3      OH2           -14.0208962818      -26.4171751097       -5.1932031047  W2        252             0.0000000000
       755       252  TIP3      H1            -14.1157662818      -26.9958651097       -5.9497431047  W2        252             0.0000000000
       756       252  TIP3      H2            -13.2915362818      -26.7886051097       -4.6969231047  W2        252             0.0000000000
       757       253  TIP3      OH2           -15.0210962818      -31.0766751097       -4.2409231047  W2        253             0.0000000000
       758       253  TIP3      H1            -14.4558462818      -30.9552551097       -5.0038031047  W2        253             0.0000000000
       759       253  TIP3      H2            -14.7022062818      -30.4391751097       -3.6020731047  W2        253             0.0000000000
       760       254  TIP3      OH2            -8.7118762818      -25.5734851097       -3.5068731047  W2        254             0.0000000000
       761       254  TIP3      H1             -8.9522162818      -24.9111751097       -2.8589531047  W2        254             0.0000000000
       762       254  TIP3      H2             -8.9100562818      -26.4079651097       -3.0819131047  W2        254             0.0000000000
       763       255  TIP3      OH2           -14.1410262818      -26.6774051097        0.4762668953  W2        255             0.0000000000
       764       255  TIP3      H1            -14.4522762818      -25.8950851097        0.9315868953  W2        255             0.0000000000
       765       255  TIP3      H2            -14.7910062818      -26.8304951097       -0.2095331047  W2        255             0.0000000000
       766       256  TIP3      OH2            -8.1620662818      -31.3135651097      -12.0718031047  W2        256             0.0000000000
       767       256  TIP3      H1             -7.5825162818      -31.1635351097      -11.3249131047  W2        256             0.0000000000
       768       256  TIP3      H2             -7.7480662818      -30.8428251097      -12.7951631047  W2        256             0.0000000000
       769       257  TIP3      OH2           -17.2210362818      -30.4792951097       -0.2951631047  W2        257             0.0000000000
       770       257  TIP3      H1            -17.1507162818      -29.8286151097        0.4033368953  W2        257             0.0000000000
       771       257  TIP3      H2            -18.1118162818      -30.3765451097       -0.6300731047  W2        257             0.0000000000
       772       258  TIP3      OH2           -10.4355762818      -24.5767151097       -8.6364931047  W2        258             0.0000000000
       773       258  TIP3      H1             -9.9618162818      -24.2810851097       -7.8590731047  W2        258             0.0000000000
       774       258  TIP3      H2            -10.9986462818      -23.8385551097       -8.8695331047  W2        258             0.0000000000
       775       259  TIP3      OH2           -15.9014362818      -24.6059051097        1.2396468953  W2        259             0.0000000000
       776       259  TIP3      H1            -15.8939062818      -24.7419351097        0.2921968953  W2        259             0.0000000000
       777       259  TIP3      H2            -16.8173962818      -24.7230951097        1.4916468953  W2        259             0.0000000000
       778       260  TIP3      OH2            -4.4632262818      -39.5635251097      -12.2588331047  W2        260             0.0000000000
       779       260  TIP3      H1             -5.3631562818      -39.4246251097      -11.9637731047  W2        260             0.0000000000
       780       260  TIP3      H2             -4.2113862818      -38.7320651097      -12.6606631047  W2        260             0.0000000000
       781       261  TIP3      OH2           -16.3973762818      -30.7758051097      -10.2851431047  W2        261             0.0000000000
       782       261  TIP3      H1            -16.6892462818      -30.0076351097      -10.7760131047  W2        261             0.0000000000
       783       261  TIP3      H2            -17.0718562818      -31.4351851097      -10.4480031047  W2        261             0.0000000000
       784       262  TIP3      OH2            -3.2740862818      -25.1972851097      -13.8824431047  W2        262             0.0000000000
       785       262  TIP3      H1             -3.2007362818      -24.2582651097      -13.7119131047  W2        262             0.0000000000
       786       262  TIP3      H2             -2.3685762818      -25.5024251097      -13.9387131047  W2        262             0.0000000000
       787       263  TIP3      OH2           -20.3043662818      -28.4128851097       -1.4701631047  W2        263             0.0000000000
       788       263  TIP3      H1            -20.8055262818      -28.4409451097       -2.2851931047  W2        263             0.0000000000
       789       263  TIP3      H2            -20.2989962818      -29.3185651097       -1.1604331047  W2        263             0.0000000000
       790       264  TIP3      OH2           -20.5540962818      -25.6325051097       -4.5861431047  W2        264             0.0000000000
       791       264  TIP3      H1            -19.6080362818      -25.7768051097       -4.6051931047  W2        264             0.0000000000
       792       264  TIP3      H2            -20.6664662818      -24.8482251097       -4.0490231047  W2        264             0.0000000000
       793       265  TIP3      OH2            -2.3562462818      -24.9665351097        1.0962268953  W2        265             0.0000000000
       794       265  TIP3      H1             -2.4055662818      -25.9217251097        1.0589868953  W2        265             0.0000000000
       795       265  TIP3      H2             -3.1830162818      -24.6990051097        1.4976068953  W2        265             0.0000000000
       796       266  TIP3      OH2           -11.3778462818      -25.3926151097       -0.0276331047  W2        266             0.0000000000
       797       266  TIP3      H1            -11.2903862818      -24.5661551097        0.4472768953  W2        266             0.0000000000
       798       266  TIP3      H2            -12.2413362818      -25.7222351097        0.2212968953  W2        266             0.0000000000
       799       267  TIP3      OH2           -10.9632662818      -21.6202451097      -10.2215731047  W2        267             0.0000000000
       800       267  TIP3      H1            -11.0386662818      -21.7415251097      -11.1680531047  W2        267             0.0000000000
       801       267  TIP3      H2            -10.9303962818      -20.6709751097      -10.1031131047  W2        267             0.0000000000
       802       268  TIP3      OH2           -17.3098862818      -22.8315451097       -8.4406731047  W2        268             0.0000000000
       803       268  TIP3      H1            -17.1578462818      -23.1795051097       -7.5620231047  W2        268             0.0000000000
       804       268  TIP3      H2            -18.1608462818      -23.1878151097       -8.6959531047  W2        268             0.0000000000
       805       269  TIP3      OH2            -7.8616662818      -22.4662251097      -13.2193331047  W2        269             0.0000000000
       806       269  TIP3      H1             -7.4868262818      -23.2106151097      -13.6900731047  W2        269             0.0000000000
       807       269  TIP3      H2             -7.8572962818      -22.7361651097      -12.3010031047  W2        269             0.0000000000
       808       270  TIP3      OH2            -8.1928562818      -22.5405151097      -10.4701131047  W2        270             0.0000000000
       809       270  TIP3      H1             -9.1278762818      -22.4403251097      -10.2914131047  W2        270             0.0000000000
       810       270  TIP3      H2             -7.9126662818      -23.2499151097       -9.8917931047  W2        270             0.0000000000
       811       271  TIP3      OH2            -5.2042662818      -33.4732851097        1.5764468953  W2        271             0.0000000000
       812       271  TIP3      H1             -5.6115862818      -32.9927251097        0.8557768953  W2        271             0.0000000000
       813       271  TIP3      H2             -5.1636962818      -34.3786851097        1.2685268953  W2        271             0.0000000000
       814       272  TIP3      OH2           -18.0553162818      -27.0893451097       -0.4268831047  W2        272             0.0000000000
       815       272  TIP3      H1            -17.8391862818      -27.4507851097        0.4326968953  W2        272             0.0000000000
       816       272  TIP3      H2            -18.9108462818      -27.4639651097       -0.6365331047  W2        272             0.0000000000
       817       273  TIP3      OH2           -15.4365162818      -38.6192951097       -4.4314631047  W2        273             0.0000000000
       818       273  TIP3      H1            -16.2981462818      -38.7064751097       -4.8391731047  W2        273             0.0000000000
       819       273  TIP3      H2            -15.4589462818      -37.7632851097       -4.0037031047  W2        273             0.0000000000
       820       274  TIP3      OH2           -10.7737362818      -38.8972551097       -1.0567631047  W2        274             0.0000000000
       821       274  TIP3      H1            -10.3534262818      -39.3125451097       -0.3037031047  W2        274             0.0000000000
       822       274  TIP3      H2            -11.7067762818      -39.0759251097       -0.9395631047  W2        274             0.0000000000
       823       275  TIP3      OH2            -7.4472462818      -35.1417351097       -0.2033131047  W2        275             0.0000000000
       824       275  TIP3      H1             -7.9612962818      -35.2675151097        0.5942868953  W2        275             0.0000000000
       825       275  TIP3      H2             -7.6027762818      -34.2294251097       -0.4476931047  W2        275             0.0000000000
       826       276  TIP3      OH2            -6.6847562818      -30.2807351097      -14.4420131047  W2        276             0.0000000000
       827       276  TIP3      H1             -6.6426762818      -30.5033451097      -15.3720131047  W2        276             0.0000000000
       828       276  TIP3      H2             -5.8355462818      -29.8820251097      -14.2520231047  W2        276             0.0000000000
       829       277  TIP3      OH2           -11.1120062818      -36.4049151097      -13.7716831047  W2        277             0.0000000000
       830       277  TIP3      H1            -11.3655262818      -36.3857551097      -12.8488731047  W2        277             0.0000000000
       831       277  TIP3      H2            -11.3687962818      -37.2763751097      -14.0730631047  W2        277             0.0000000000
       832       278  TIP3      OH2           -15.3455062818      -33.6538451097       -3.3364431047  W2        278             0.0000000000
       833       278  TIP3      H1            -15.9872962818      -33.6941151097       -2.6274331047  W2        278             0.0000000000
       834       278  TIP3      H2            -15.3083062818      -32.7273751097       -3.5741431047  W2        278             0.0000000000
       835       279  TIP3      OH2           -15.3485962818      -33.4328351097       -8.4244431047  W2        279             0.0000000000
       836       279  TIP3      H1            -16.2413062818      -33.7732251097       -8.4830631047  W2        279             0.0000000000
       837       279  TIP3      H2            -14.8979362818      -33.8097451097       -9.1801231047  W2        279             0.0000000000
       838       280  TIP3      OH2            -9.8130462818      -33.0168051097       -9.6073631047  W2        280             0.0000000000
       839       280  TIP3      H1            -10.2220162818      -32.2019451097       -9.8988831047  W2        280             0.0000000000
       840       280  TIP3      H2             -9.0924262818      -33.1567951097      -10.2216531047  W2        280             0.0000000000
       841       281  TIP3      OH2           -10.7108862818      -32.8411651097        1.8807068953  W2        281             0.0000000000
       842       281  TIP3      H1            -11.2735062818      -33.5460051097        2.2014868953  W2        281             0.0000000000
       843       281  TIP3      H2             -9.8845462818      -32.9619751097        2.3484668953  W2        281             0.0000000000
       844       282  TIP3      OH2            -8.8082762818      -33.5707651097       -6.7933931047  W2        282             0.0000000000
       845       282  TIP3      H1             -9.0038262818      -32.9650851097       -7.5083331047  W2        282             0.0000000000
       846       282  TIP3      H2             -8.6270162818      -34.4042451097       -7.2277631047  W2        282             0.0000000000
       847       283  TIP3      OH2           -17.5954562818      -33.3334951097       -1.4692431047  W2        283             0.0000000000
       848       283  TIP3      H1            -17.6335162818      -32.9333351097       -0.6005331047  W2        283             0.0000000000
       849       283  TIP3      H2            -18.0863462818      -34.1502551097       -1.3789531047  W2        283             0.0000000000
       850       284  TIP3      OH2           -14.2297162818      -35.9592651097      -14.6706431047  W2        284             0.0000000000
       851       284  TIP3      H1            -14.6606462818      -36.4042551097      -13.9409031047  W2        284             0.0000000000
       852       284  TIP3      H2            -14.9478462818      -35.5876351097      -15.1828931047  W2        284             0.0000000000
       853       285  TIP3      OH2           -20.9873762818      -36.2173151097       -7.6187731047  W2        285             0.0000000000
       854       285  TIP3      H1            -20.3566062818      -36.2461051097       -6.8993831047  W2        285             0.0000000000
       855       285  TIP3      H2            -20.5379462818      -36.6424451097       -8.3491831047  W2        285             0.0000000000
       856       286  TIP3      OH2           -19.7131662818      -35.4711151097      -12.1947331047  W2        286             0.0000000000
       857       286  TIP3      H1            -19.2389962818      -34.8801251097      -12.7796431047  W2        286             0.0000000000
       858       286  TIP3      H2            -20.4305262818      -34.9408251097      -11.8477231047  W2        286             0.0000000000
       859       287  TIP3      OH2            -9.5443562818      -31.9326351097       -2.1221531047  W2        287             0.0000000000
       860       287  TIP3      H1             -9.2208762818      -32.5636651097       -2.7651031047  W2        287             0.0000000000
       861       287  TIP3      H2             -9.9844262818      -32.4674151097       -1.4614131047  W2        287             0.0000000000
       862       288  TIP3      OH2           -12.7670662818      -36.0050851097       -7.3380331047  W2        288             0.0000000000
       863       288  TIP3      H1            -13.6779562818      -35.9484051097       -7.0494331047  W2        288             0.0000000000
       864       288  TIP3      H2            -12.2617762818      -36.0655351097       -6.5273131047  W2        288             0.0000000000
       865       289  TIP3      OH2           -17.9387262818      -34.3764551097       -8.5112731047  W2        289             0.0000000000
       866       289  TIP3      H1            -18.8279262818      -34.2769051097       -8.8513131047  W2        289             0.0000000000
       867       289  TIP3      H2            -17.6422362818      -35.2181551097       -8.8574831047  W2        289             0.0000000000
       868       290  TIP3      OH2           -14.2855462818      -34.3761951097      -10.8548131047  W2        290             0.0000000000
       869       290  TIP3      H1            -13.3539962818      -34.2471951097      -10.6765031047  W2        290             0.0000000000
       870       290  TIP3      H2            -14.5005162818      -33.7067651097      -11.5043431047  W2        290             0.0000000000
       871       291  TIP3      OH2            -8.3618762818      -36.7704551097       -4.0738531047  W2        291             0.0000000000
       872       291  TIP3      H1             -9.0387162818      -36.6391451097       -3.4098831047  W2        291             0.0000000000
       873       291  TIP3      H2             -8.8473862818      -36.9255051097       -4.8840831047  W2        291             0.0000000000
       874       292  TIP3      OH2           -15.6115262818      -33.1819751097      -13.2882031047  W2        292             0.0000000000
       875       292  TIP3      H1            -16.1540162818      -33.5615951097      -13.9794431047  W2        292             0.0000000000
       876       292  TIP3      H2            -14.7780362818      -32.9875051097      -13.7167931047  W2        292             0.0000000000
       877       293  TIP3      OH2            -5.0743662818      -21.0989151097        2.2029068953  W2        293             0.0000000000
       878       293  TIP3      H1             -4.8744962818      -20.6747251097        1.3684368953  W2        293             0.0000000000
       879       293  TIP3      H2             -4.4189962818      -20.7550951097        2.8099468953  W2        293             0.0000000000
       880       294  TIP3      OH2           -17.4763862818      -28.6247851097        1.8109568953  W2        294             0.0000000000
       881       294  TIP3      H1            -16.7441462818      -28.3701951097        2.3724068953  W2        294             0.0000000000
       882       294  TIP3      H2            -18.2565162818      -28.4202451097        2.3264968953  W2        294             0.0000000000
       883       295  TIP3      OH2           -11.4470962818      -33.2177851097       -5.4510731047  W2        295             0.0000000000
       884       295  TIP3      H1            -10.8827562818      -33.7641251097       -5.9981131047  W2        295             0.0000000000
       885       295  TIP3      H2            -11.5947562818      -33.7395951097       -4.6623131047  W2        295             0.0000000000
       886       296  TIP3      OH2           -16.4451262818      -37.0811751097       -9.0325931047  W2        296             0.0000000000
       887       296  TIP3      H1            -16.7621762818      -37.9836451097       -9.0680531047  W2        296             0.0000000000
       888       296  TIP3      H2            -15.6637162818      -37.0794351097       -9.5854331047  W2        296             0.0000000000
       889       297  TIP3      OH2           -12.8205062818      -34.8291751097       -3.0370331047  W2        297             0.0000000000
       890       297  TIP3      H1            -13.6559762818      -34.3752251097       -2.9267931047  W2        297             0.0000000000
       891       297  TIP3      H2            -12.2964462818      -34.5533251097       -2.2850431047  W2        297             0.0000000000
       892       298  TIP3      OH2           -12.2762462818      -28.6164051097      -11.3523931047  W2        298             0.0000000000
       893       298  TIP3      H1            -13.0211462818      -29.1238751097      -11.6746031047  W2        298             0.0000000000
       894       298  TIP3      H2            -12.4105262818      -28.5676051097      -10.4059131047  W2        298             0.0000000000
       895       299  TIP3      OH2            -5.1263562818      -29.4835851097       -2.5656331047  W2        299             0.0000000000
       896       299  TIP3      H1             -4.4844762818      -29.0269551097       -3.1094131047  W2        299             0.0000000000
       897       299  TIP3      H2             -5.9566662818      -29.3703451097       -3.0282231047  W2        299             0.0000000000
       898       300  TIP3      OH2            -8.3785662818      -35.8024151097      -13.1531331047  W2        300             0.0000000000
       899       300  TIP3      H1             -9.3171462818      -35.6908551097      -13.3042531047  W2        300             0.0000000000
       900       300  TIP3      H2             -8.0813562818      -34.9457251097      -12.8465631047  W2        300             0.0000000000
       901       301  TIP3      OH2           -10.7570362818      -28.4320751097       -0.1154831047  W2        301             0.0000000000
       902       301  TIP3      H1            -11.1024262818      -28.8138351097        0.6914768953  W2        301             0.0000000000
       903       301  TIP3      H2            -10.9570262818      -27.4987151097       -0.0441931047  W2        301             0.0000000000
       904       302  TIP3      OH2            -7.6602162818      -33.9351451097      -11.4923931047  W2        302             0.0000000000
       905       302  TIP3      H1             -6.7683162818      -34.0726451097      -11.1732731047  W2        302             0.0000000000
       906       302  TIP3      H2             -7.6038562818      -33.1445351097      -12.0290431047  W2        302             0.0000000000
       907       303  TIP3      OH2           -17.1514162818      -29.3214051097       -5.5826031047  W2        303             0.0000000000
       908       303  TIP3      H1            -16.4066962818      -29.3238351097       -6.1839531047  W2        303             0.0000000000
       909       303  TIP3      H2            -17.0737562818      -30.1450251097       -5.1010931047  W2        303             0.0000000000
       910       304  TIP3      OH2           -10.1508362818      -27.1579751097      -12.3269331047  W2        304             0.0000000000
       911       304  TIP3      H1            -10.4459962818      -26.3311851097      -11.9454531047  W2        304             0.0000000000
       912       304  TIP3      H2            -10.8538362818      -27.7772851097      -12.1307931047  W2        304             0.0000000000
       913       305  TIP3      OH2           -20.1434462818      -30.8607151097       -0.2677531047  W2        305             0.0000000000
       914       305  TIP3      H1            -19.9205862818      -31.2787551097        0.5639968953  W2        305             0.0000000000
       915       305  TIP3      H2            -20.7454362818      -31.4732151097       -0.6904731047  W2        305             0.0000000000
       916       306  TIP3      OH2           -13.1269562818      -31.3437251097        1.9452168953  W2        306             0.0000000000
       917       306  TIP3      H1            -13.4228762818      -31.5094251097        1.0501268953  W2        306             0.0000000000
       918       306  TIP3      H2            -12.1954362818      -31.5636951097        1.9346068953  W2        306             0.0000000000
       919       307  TIP3      OH2            -8.5066762818      -25.9705251097       -0.1649831047  W2        307             0.0000000000
       920       307  TIP3      H1             -9.4072462818      -25.7872651097       -0.4325931047  W2        307             0.0000000000
       921       307  TIP3      H2             -8.4725662818      -25.7115951097        0.7558968953  W2        307             0.0000000000
       922       308  TIP3      OH2            -2.7753462818      -33.7257351097      -11.7977231047  W2        308             0.0000000000
       923       308  TIP3      H1             -3.3297162818      -34.1219351097      -12.4699731047  W2        308             0.0000000000
       924       308  TIP3      H2             -2.6749862818      -32.8152151097      -12.0753931047  W2        308             0.0000000000
       925       309  TIP3      OH2            -2.8121462818      -27.9255651097        1.0394268953  W2        309             0.0000000000
       926       309  TIP3      H1             -3.6632962818      -27.6871851097        0.6720668953  W2        309             0.0000000000
       927       309  TIP3      H2             -2.2218062818      -27.9422451097        0.2861368953  W2        309             0.0000000000
       928       310  TIP3      OH2            -4.4801762818      -24.9396951097      -11.3325131047  W2        310             0.0000000000
       929       310  TIP3      H1             -4.8530662818      -25.7653151097      -11.0234531047  W2        310             0.0000000000
       930       310  TIP3      H2             -4.2028262818      -25.1227551097      -12.2301731047  W2        310             0.0000000000
       931       311  TIP3      OH2            -7.3197862818      -30.1317451097       -4.3113231047  W2        311             0.0000000000
       932       311  TIP3      H1             -8.2480962818      -30.3635551097       -4.3383931047  W2        311             0.0000000000
       933       311  TIP3      H2             -6.8686762818      -30.9087651097       -4.6414431047  W2        311             0.0000000000
       934       312  TIP3      OH2           -14.7764762818      -25.8035851097       -8.1784531047  W2        312             0.0000000000
       935       312  TIP3      H1            -14.2492562818      -25.0301451097       -8.3785731047  W2        312             0.0000000000
       936       312  TIP3      H2            -15.6566262818      -25.5786651097       -8.4800531047  W2        312             0.0000000000
       937       313  TIP3      OH2           -19.0217062818      -30.9411751097      -13.5912131047  W2        313             0.0000000000
       938       313  TIP3      H1            -18.4057162818      -30.3144551097      -13.2117331047  W2        313             0.0000000000
       939       313  TIP3      H2            -19.8834462818      -30.6251951097      -13.3195631047  W2        313             0.0000000000
       940       314  TIP3      OH2           -13.3492462818      -28.1405951097       -8.6020231047  W2        314             0.0000000000
       941       314  TIP3      H1            -13.5902462818      -27.2151551097       -8.5604931047  W2        314             0.0000000000
       942       314  TIP3      H2            -14.0898862818      -28.5994651097       -8.2056331047  W2        314             0.0000000000
       943       315  TIP3      OH2           -12.8345862818      -23.9912351097       -2.2869131047  W2        315             0.0000000000
       944       315  TIP3      H1            -12.4721162818      -23.1366751097       -2.5204731047  W2        315             0.0000000000
       945       315  TIP3      H2            -12.3030662818      -24.2830751097       -1.5462831047  W2        315             0.0000000000
       946       316  TIP3      OH2           -14.6661662818      -23.1188351097       -9.0568031047  W2        316             0.0000000000
       947       316  TIP3      H1            -15.6161162818      -23.0130951097       -9.0054731047  W2        316             0.0000000000
       948       316  TIP3      H2            -14.3143562818      -22.2980951097       -8.7120531047  W2        316             0.0000000000
       949       317  TIP3      OH2            -9.2905062818      -27.8921651097       -2.5863531047  W2        317             0.0000000000
       950       317  TIP3      H1             -9.7163762818      -28.1199951097       -1.7599531047  W2        317             0.0000000000
       951       317  TIP3      H2             -8.7099262818      -28.6309851097       -2.7688231047  W2        317             0.0000000000
       952       318  TIP3      OH2            -7.0876162818      -26.9631151097      -13.5124531047  W2        318             0.0000000000
       953       318  TIP3      H1             -6.7343062818      -27.3431351097      -12.7081031047  W2        318             0.0000000000
       954       318  TIP3      H2             -8.0362662818      -27.0566351097      -13.4255231047  W2        318             0.0000000000
       955       319  TIP3      OH2            -6.6320862818      -23.3402151097       -0.1168731047  W2        319             0.0000000000
       956       319  TIP3      H1             -7.2337662818      -23.8959251097       -0.6122431047  W2        319             0.0000000000
       957       319  TIP3      H2             -6.3507162818      -22.6732351097       -0.7431331047  W2        319             0.0000000000
       958       320  TIP3      OH2            -2.5841762818      -22.4838651097      -13.3114331047  W2        320             0.0000000000
       959       320  TIP3      H1             -1.8403862818      -21.8978151097      -13.4512731047  W2        320             0.0000000000
       960       320  TIP3      H2             -3.2783662818      -21.9152851097      -12.9781931047  W2        320             0.0000000000
       961       321  TIP3      OH2           -18.5094962818      -36.1074451097       -0.7096131047  W2        321             0.0000000000
       962       321  TIP3      H1            -19.4022662818      -35.7689051097       -0.7772131047  W2        321             0.0000000000
       963       321  TIP3      H2            -18.6082162818      -36.9628351097       -0.2915331047  W2        321             0.0000000000
       964       322  TIP3      OH2            -6.2216862818      -28.2909151097      -11.2856631047  W2        322             0.0000000000
       965       322  TIP3      H1             -6.4989262818      -29.0189851097      -10.7295531047  W2        322             0.0000000000
       966       322  TIP3      H2             -5.2943862818      -28.1717151097      -11.0804031047  W2        322             0.0000000000
       967       323  TIP3      OH2           -18.8582962818      -24.3030051097       -2.2746731047  W2        323             0.0000000000
       968       323  TIP3      H1            -18.6412662818      -25.2347651097       -2.3057031047  W2        323             0.0000000000
       969       323  TIP3      H2            -18.6119462818      -24.0285051097       -1.3913931047  W2        323             0.0000000000
       970       324  TIP3      OH2           -12.9968362818      -25.8515051097      -15.0654531047  W2        324             0.0000000000
       971       324  TIP3      H1            -12.7578562818      -26.5996951097      -15.6125631047  W2        324             0.0000000000
       972       324  TIP3      H2            -13.2657062818      -26.2393351097      -14.2326731047  W2        324             0.0000000000
       973       325  TIP3      OH2           -14.0597762818      -26.2811251097      -12.6091931047  W2        325             0.0000000000
       974       325  TIP3      H1            -13.9129762818      -26.8011451097      -11.8191031047  W2        325             0.0000000000
       975       325  TIP3      H2            -14.0626062818      -25.3743651097      -12.3026031047  W2        325             0.0000000000
       976       326  TIP3      OH2           -17.6066662818      -29.0287951097      -12.0986531047  W2        326             0.0000000000
       977       326  TIP3      H1            -18.2927362818      -28.6765451097      -11.5316831047  W2        326             0.0000000000
       978       326  TIP3      H2            -17.0838762818      -28.2658351097      -12.3452231047  W2        326             0.0000000000
       979       327  TIP3      OH2            -9.7751562818      -36.3664151097       -1.8197531047  W2        327             0.0000000000
       980       327  TIP3      H1             -9.0763662818      -36.2925451097       -1.1697831047  W2        327             0.0000000000
       981       327  TIP3      H2            -10.1560162818      -37.2309151097       -1.6654631047  W2        327             0.0000000000
       982       328  TIP3      OH2            -8.9906662818      -36.7142451097      -10.7225231047  W2        328             0.0000000000
       983       328  TIP3      H1             -8.7708362818      -36.2427051097      -11.5259831047  W2        328             0.0000000000
       984       328  TIP3      H2             -8.4322662818      -36.3199851097      -10.0524631047  W2        328             0.0000000000
       985       329  TIP3      OH2           -11.3220562818      -24.5837651097      -11.8597731047  W2        329             0.0000000000
       986       329  TIP3      H1            -12.1384462818      -24.0867951097      -11.8073431047  W2        329             0.0000000000
       987       329  TIP3      H2            -10.7924262818      -24.1084151097      -12.4998931047  W2        329             0.0000000000
       988       330  TIP3      OH2           -11.7906762818      -34.9863651097       -9.8876831047  W2        330             0.0000000000
       989       330  TIP3      H1            -10.9784162818      -34.4820451097       -9.8415131047  W2        330             0.0000000000
       990       330  TIP3      H2            -12.0353762818      -35.1313951097       -8.9737231047  W2        330             0.0000000000
       991       331  TIP3      OH2           -11.2550362818      -34.0000951097       -0.7030231047  W2        331             0.0000000000
       992       331  TIP3      H1            -11.1360062818      -33.4265551097        0.0540168953  W2        331             0.0000000000
       993       331  TIP3      H2            -10.5995762818      -34.6881551097       -0.5882431047  W2        331             0.0000000000
       994       332  TIP3      OH2           -10.9070062818      -37.9050651097       -8.9495731047  W2        332             0.0000000000
       995       332  TIP3      H1            -11.2536562818      -37.2880051097       -8.3051431047  W2        332             0.0000000000
       996       332  TIP3      H2            -10.2483162818      -37.4044951097       -9.4310231047  W2        332             0.0000000000
       997       333  TIP3      OH2           -13.9837462818      -23.5400451097      -11.8780831047  W2        333             0.0000000000
       998       333  TIP3      H1            -13.8228762818      -22.7402951097      -12.3788231047  W2        333             0.0000000000
       999       333  TIP3      H2            -14.1809662818      -23.2334451097      -10.9930231047  W2        333             0.0000000000
      1000       334  TIP3      OH2           -15.2493062818      -36.8421251097      -12.2623231047  W2        334             0.0000000000
      1001       334  TIP3      H1            -15.3328262818      -35.9538151097      -11.9156831047  W2        334             0.0000000000
      1002       334  TIP3      H2            -14.3592762818      -37.1074551097      -12.0306431047  W2        334             0.0000000000
      1003       335  TIP3      OH2            -5.0504562818      -36.0930651097        0.1319468953  W2        335             0.0000000000
      1004       335  TIP3      H1             -5.9668762818      -35.8308951097        0.0443168953  W2        335             0.0000000000
      1005       335  TIP3      H2             -4.7149562818      -36.0961651097       -0.7645231047  W2        335             0.0000000000
      1006       336  TIP3      OH2            -6.4483562818      -32.3429651097       -5.7723231047  W2        336             0.0000000000
      1007       336  TIP3      H1             -7.2459162818      -32.7579451097       -6.1008231047  W2        336             0.0000000000
      1008       336  TIP3      H2             -6.0032462818      -33.0335951097       -5.2812731047  W2        336             0.0000000000
      1009       337  TIP3      OH2           -16.9907762818      -26.4149051097      -13.2018731047  W2        337             0.0000000000
      1010       337  TIP3      H1            -16.3986262818      -25.7154251097      -12.9256331047  W2        337             0.0000000000
      1011       337  TIP3      H2            -16.5314762818      -26.8479551097      -13.9214131047  W2        337             0.0000000000
      1012       338  TIP3      OH2           -18.6748562818      -33.7506051097      -14.0859331047  W2        338             0.0000000000
      1013       338  TIP3      H1            -18.7195962818      -32.8112951097      -13.9072331047  W2        338             0.0000000000
      1014       338  TIP3      H2            -19.5625362818      -33.9861151097      -14.3557231047  W2        338             0.0000000000
      1015       339  TIP3      OH2            -5.3618962818      -23.0867151097       -4.1499731047  W2        339             0.0000000000
      1016       339  TIP3      H1             -5.5174662818      -22.4082751097       -4.8070431047  W2        339             0.0000000000
      1017       339  TIP3      H2             -4.4292562818      -23.0147851097       -3.9469131047  W2        339             0.0000000000
      1018       340  TIP3      OH2           -17.8666562818      -38.9689451097       -5.4128331047  W2        340             0.0000000000
      1019       340  TIP3      H1            -18.0956762818      -38.9096951097       -6.3403331047  W2        340             0.0000000000
      1020       340  TIP3      H2            -18.3093162818      -39.7603951097       -5.1064231047  W2        340             0.0000000000
      1021       341  TIP3      OH2           -18.9363262818      -25.0282351097       -9.2522531047  W2        341             0.0000000000
      1022       341  TIP3      H1            -19.7684662818      -24.5559651097       -9.2251131047  W2        341             0.0000000000
      1023       341  TIP3      H2            -18.3904962818      -24.5184751097       -9.8509431047  W2        341             0.0000000000
      1024       342  TIP3      OH2           -19.6479562818      -22.4158651097        2.0775468953  W2        342             0.0000000000
      1025       342  TIP3      H1            -19.1077362818      -22.6324651097        2.8374668953  W2        342             0.0000000000
      1026       342  TIP3      H2            -20.1291562818      -23.2212651097        1.8877968953  W2        342             0.0000000000
      1027       343  TIP3      OH2           -15.0506162818      -23.4964251097        3.6979668953  W2        343             0.0000000000
      1028       343  TIP3      H1            -14.2828962818      -23.9553451097        4.0388868953  W2        343             0.0000000000
      1029       343  TIP3      H2            -15.0719962818      -23.7224451097        2.7680868953  W2        343             0.0000000000
      1030       344  TIP3      OH2           -10.9586562818      -23.9883651097      -14.9268531047  W2        344             0.0000000000
      1031       344  TIP3      H1            -11.6025562818      -24.6195051097      -14.6054831047  W2        344             0.0000000000
      1032       344  TIP3      H2            -10.1968262818      -24.5195651097      -15.1585031047  W2        344             0.0000000000
      1033       345  TIP3      OH2            -8.4737462818      -25.1163151097        2.4271168953  W2        345             0.0000000000
      1034       345  TIP3      H1             -8.8247962818      -25.9730151097        2.6701568953  W2        345             0.0000000000
      1035       345  TIP3      H2             -7.7474262818      -24.9736451097        3.0340168953  W2        345             0.0000000000
      1036       346  TIP3      OH2            -6.3543662818      -24.1713751097      -14.6930531047  W2        346             0.0000000000
      1037       346  TIP3      H1             -6.0713262818      -24.9658551097      -14.2403631047  W2        346             0.0000000000
      1038       346  TIP3      H2             -5.6145762818      -23.9382751097      -15.2539431047  W2        346             0.0000000000
      1039       347  TIP3      OH2           -19.7410062818      -28.6054551097        3.0319768953  W2        347             0.0000000000
      1040       347  TIP3      H1            -19.5969562818      -29.5073851097        2.7456468953  W2        347             0.0000000000
      1041       347  TIP3      H2            -20.5132662818      -28.3192451097        2.5442068953  W2        347             0.0000000000
      1042       348  TIP3      OH2           -15.3996362818      -28.2618851097      -14.8355631047  W2        348             0.0000000000
      1043       348  TIP3      H1            -15.3352262818      -29.0559251097      -14.3049231047  W2        348             0.0000000000
      1044       348  TIP3      H2            -14.7467162818      -28.3806051097      -15.5253631047  W2        348             0.0000000000
      1045       349  TIP3      OH2           -13.0853962818      -28.6356451097        2.4646168953  W2        349             0.0000000000
      1046       349  TIP3      H1            -13.4140162818      -28.3648351097        1.6073568953  W2        349             0.0000000000
      1047       349  TIP3      H2            -12.9335762818      -29.5766651097        2.3771168953  W2        349             0.0000000000
      1048       350  TIP3      OH2           -10.0472962818      -27.2147151097      -15.0997631047  W2        350             0.0000000000
      1049       350  TIP3      H1            -10.3158862818      -27.0345051097      -14.1988731047  W2        350             0.0000000000
      1050       350  TIP3      H2            -10.2537362818      -28.1400951097      -15.2311831047  W2        350             0.0000000000
      1051       351  TIP3      OH2            -7.3508762818      -28.7199151097       -0.1521531047  W2        351             0.0000000000
      1052       351  TIP3      H1             -6.6053962818      -28.1315451097       -0.2717531047  W2        351             0.0000000000
      1053       351  TIP3      H2             -8.1081962818      -28.1379451097       -0.0888431047  W2        351             0.0000000000
      1054       352  TIP3      OH2           -18.9083562818      -31.4051251097        2.4519068953  W2        352             0.0000000000
      1055       352  TIP3      H1            -18.5002362818      -32.2624651097        2.3309668953  W2        352             0.0000000000
      1056       352  TIP3      H2            -19.1685962818      -31.3909951097        3.3729368953  W2        352             0.0000000000
      1057       353  TIP3      OH2           -14.2502562818      -30.2892651097      -12.5297631047  W2        353             0.0000000000
      1058       353  TIP3      H1            -14.7100562818      -30.7734351097      -11.8439131047  W2        353             0.0000000000
      1059       353  TIP3      H2            -13.9953862818      -30.9577251097      -13.1657131047  W2        353             0.0000000000
      1060       354  TIP3      OH2           -14.9613262818      -32.3965551097       -0.1738031047  W2        354             0.0000000000
      1061       354  TIP3      H1            -15.5797162818      -31.7218951097        0.1066668953  W2        354             0.0000000000
      1062       354  TIP3      H2            -14.6172062818      -32.0751651097       -1.0071831047  W2        354             0.0000000000
      1063       355  TIP3      OH2           -13.1792162818      -32.0460851097      -14.2674431047  W2        355             0.0000000000
      1064       355  TIP3      H1            -13.3597162818      -32.2009651097      -15.1946131047  W2        355             0.0000000000
      1065       355  TIP3      H2            -12.2291662818      -31.9382151097      -14.2226531047  W2        355             0.0000000000
      1066       356  TIP3      OH2            -9.9415062818      -29.9250251097        3.1036768953  W2        356             0.0000000000
      1067       356  TIP3      H1             -8.9883862818      -29.8411151097        3.0762768953  W2        356             0.0000000000
      1068       356  TIP3      H2            -10.1020462818      -30.6368451097        3.7231668953  W2        356             0.0000000000
      1069       357  TIP3      OH2            -3.7893862818      -29.6916651097      -14.8216331047  W2        357             0.0000000000
      1070       357  TIP3      H1             -4.0629062818      -30.1161151097      -15.6348031047  W2        357             0.0000000000
      1071       357  TIP3      H2             -3.7499762818      -28.7602151097      -15.0385931047  W2        357             0.0000000000
      1072       358  TIP3      OH2           -14.6219562818      -35.0414751097        0.9085068953  W2        358             0.0000000000
      1073       358  TIP3      H1            -14.4718662818      -35.7703451097        0.3064768953  W2        358             0.0000000000
      1074       358  TIP3      H2            -14.6197162818      -34.2643051097        0.3497268953  W2        358             0.0000000000
      1075       359  TIP3      OH2           -14.2093862818      -36.6718951097       -1.5987531047  W2        359             0.0000000000
      1076       359  TIP3      H1            -13.6736362818      -36.2202251097       -2.2508231047  W2        359             0.0000000000
      1077       359  TIP3      H2            -15.0614262818      -36.7799151097       -2.0213431047  W2        359             0.0000000000
      1078       360  TIP3      OH2           -12.6275462818      -31.2322751097       -1.3592331047  W2        360             0.0000000000
      1079       360  TIP3      H1            -11.8770662818      -31.3885251097       -1.9324531047  W2        360             0.0000000000
      1080       360  TIP3      H2            -12.9667162818      -30.3806151097       -1.6346831047  W2        360             0.0000000000
      1081       361  TIP3      OH2            -8.2119262818      -33.4170951097        3.6692968953  W2        361             0.0000000000
      1082       361  TIP3      H1             -8.0197962818      -34.3481551097        3.5577468953  W2        361             0.0000000000
      1083       361  TIP3      H2             -7.3542962818      -32.9921451097        3.6588368953  W2        361             0.0000000000
      1084       362  TIP3      OH2            -6.8952062818      -30.6285751097        1.7465668953  W2        362             0.0000000000
      1085       362  TIP3      H1             -7.1767062818      -29.9191151097        1.1689468953  W2        362             0.0000000000
      1086       362  TIP3      H2             -5.9527762818      -30.7012751097        1.5956868953  W2        362             0.0000000000
      1087       363  TIP3      OH2           -16.1433262818      -33.8431251097        2.8200668953  W2        363             0.0000000000
      1088       363  TIP3      H1            -16.9104262818      -34.3756451097        2.6098268953  W2        363             0.0000000000
      1089       363  TIP3      H2            -15.4644262818      -34.1530851097        2.2206968953  W2        363             0.0000000000
      1090       364  TIP3      OH2           -13.4038362818      -39.2153251097       -1.1673931047  W2        364             0.0000000000
      1091       364  TIP3      H1            -13.5018762818      -38.2690051097       -1.2727731047  W2        364             0.0000000000
      1092       364  TIP3      H2            -14.1462162818      -39.5879451097       -1.6430431047  W2        364             0.0000000000
      1093       365  TIP3      OH2           -12.1397862818      -34.8937851097        2.3964468953  W2        365             0.0000000000
      1094       365  TIP3      H1            -12.3752462818      -35.1131151097        3.2979368953  W2        365             0.0000000000
      1095       365  TIP3      H2            -12.9230962818      -35.1006651097        1.8866968953  W2        365             0.0000000000
      1096       366  TIP3      OH2            -9.4241262818      -35.7664351097        1.4717968953  W2        366             0.0000000000
      1097       366  TIP3      H1            -10.3715862818      -35.7344651097        1.6041268953  W2        366             0.0000000000
      1098       366  TIP3      H2             -9.1114562818      -36.3917251097        2.1256168953  W2        366             0.0000000000
      1099       367  TIP3      OH2            -7.7899762818      -37.1323251097        3.4769868953  W2        367             0.0000000000
      1100       367  TIP3      H1             -7.8867962818      -38.0845951097        3.4711768953  W2        367             0.0000000000
      1101       367  TIP3      H2             -8.1116662818      -36.8636451097        4.3375368953  W2        367             0.0000000000
      1102       368  TIP3      OH2           -17.9630462818      -35.9227451097        2.5245368953  W2        368             0.0000000000
      1103       368  TIP3      H1            -17.7513062818      -36.6291351097        1.9142868953  W2        368             0.0000000000
      1104       368  TIP3      H2            -18.0742962818      -36.3601451097        3.3686568953  W2        368             0.0000000000
      1105       369  TIP3      OH2           -13.1820262818      -39.9215851097        1.5038868953  W2        369             0.0000000000
      1106       369  TIP3      H1            -12.4701862818      -40.5613651097        1.4897968953  W2        369             0.0000000000
      1107       369  TIP3      H2            -13.2829862818      -39.6547551097        0.5901968953  W2        369             0.0000000000
      1108       370  TIP3      OH2           -12.8282762818      -38.2387451097        3.5575168953  W2        370             0.0000000000
      1109       370  TIP3      H1            -12.9600562818      -38.7143651097        2.7373668953  W2        370             0.0000000000
      1110       370  TIP3      H2            -13.4275362818      -37.4943851097        3.5022268953  W2        370             0.0000000000
      1111       371  TIP3      OH2           -13.2820462818      -21.3557151097      -13.2660831047  W2        371             0.0000000000
      1112       371  TIP3      H1            -12.3489762818      -21.1978451097      -13.1222431047  W2        371             0.0000000000
      1113       371  TIP3      H2            -13.5461662818      -20.6804151097      -13.8909331047  W2        371             0.0000000000
      1114       372  TIP3      OH2           -19.7135562818      -26.7193351097      -13.7832731047  W2        372             0.0000000000
      1115       372  TIP3      H1            -18.7996362818      -26.6404451097      -13.5098831047  W2        372             0.0000000000
      1116       372  TIP3      H2            -19.7062462818      -27.4063751097      -14.4497131047  W2        372             0.0000000000
      1117       373  TIP3      OH2           -21.0644962818      -21.3264851097       -8.7058831047  W2        373             0.0000000000
      1118       373  TIP3      H1            -21.7117862818      -21.7883151097       -9.2387631047  W2        373             0.0000000000
      1119       373  TIP3      H2            -20.7100362818      -21.9981551097       -8.1232631047  W2        373             0.0000000000
      1120       374  TIP3      OH2           -20.1945762818      -23.2457851097       -6.9012631047  W2        374             0.0000000000
      1121       374  TIP3      H1            -20.5288962818      -24.1260551097       -6.7292431047  W2        374             0.0000000000
      1122       374  TIP3      H2            -19.9723362818      -22.9002851097       -6.0367031047  W2        374             0.0000000000
      1123       375  TIP3      OH2            -2.6460962818      -22.4361451097       -3.9207831047  W2        375             0.0000000000
      1124       375  TIP3      H1             -2.6674262818      -22.2513051097       -2.9818431047  W2        375             0.0000000000
      1125       375  TIP3      H2             -1.9554762818      -21.8677451097       -4.2616431047  W2        375             0.0000000000
      1126       376  TIP3      OH2            -3.0828062818      -22.8690351097       -0.9988731047  W2        376             0.0000000000
      1127       376  TIP3      H1             -3.5699362818      -23.6046251097       -1.3701331047  W2        376             0.0000000000
      1128       376  TIP3      H2             -2.5335362818      -23.2626451097       -0.3209331047  W2        376             0.0000000000
      1129       377  TIP3      OH2            -4.6320762818      -27.0792251097        3.6391568953  W2        377             0.0000000000
      1130       377  TIP3      H1             -5.4979662818      -27.1842551097        4.0333868953  W2        377             0.0000000000
      1131       377  TIP3      H2             -4.2554862818      -26.3208951097        4.0856268953  W2        377             0.0000000000
      1132       378  TIP3      OH2            -3.3311062818      -28.8228551097      -10.8465931047  W2        378             0.0000000000
      1133       378  TIP3      H1             -2.4809662818      -28.4017651097      -10.7194331047  W2        378             0.0000000000
      1134       378  TIP3      H2             -3.3255962818      -29.5628451097      -10.2394531047  W2        378             0.0000000000
      1135       379  TIP3      OH2            -2.9365462818      -30.7691151097       -9.0230231047  W2        379             0.0000000000
      1136       379  TIP3      H1             -3.6630862818      -31.2488551097       -8.6252631047  W2        379             0.0000000000
      1137       379  TIP3      H2             -2.3552162818      -30.5636451097       -8.2908631047  W2        379             0.0000000000
      1138       380  TIP3      OH2            -3.1774262818      -27.9843651097       -4.0752631047  W2        380             0.0000000000
      1139       380  TIP3      H1             -2.3440062818      -28.3623651097       -4.3559031047  W2        380             0.0000000000
      1140       380  TIP3      H2             -3.0653962818      -27.0412451097       -4.1943531047  W2        380             0.0000000000
      1141       381  TIP3      OH2            -4.6911962818      -25.1066151097       -1.7684231047  W2        381             0.0000000000
      1142       381  TIP3      H1             -5.3386662818      -24.7814651097       -1.1429031047  W2        381             0.0000000000
      1143       381  TIP3      H2             -5.2087962818      -25.5468451097       -2.4425931047  W2        381             0.0000000000
      1144       382  TIP3      OH2            -2.6682362818      -30.8682651097      -12.6318931047  W2        382             0.0000000000
      1145       382  TIP3      H1             -3.1901262818      -30.5118551097      -13.3508031047  W2        382             0.0000000000
      1146       382  TIP3      H2             -2.7013162818      -30.1934851097      -11.9538031047  W2        382             0.0000000000
      1147       383  TIP3      OH2            -4.3193362818      -33.6287051097      -14.0811831047  W2        383             0.0000000000
      1148       383  TIP3      H1             -4.2228962818      -32.9620051097      -14.7612131047  W2        383             0.0000000000
      1149       383  TIP3      H2             -4.4593762818      -34.4440751097      -14.5626331047  W2        383             0.0000000000
      1150       384  TIP3      OH2            -5.1498662818      -32.2484651097       -8.4601531047  W2        384             0.0000000000
      1151       384  TIP3      H1             -5.2999862818      -33.1936051097       -8.4803731047  W2        384             0.0000000000
      1152       384  TIP3      H2             -5.5034162818      -31.9673251097       -7.6162431047  W2        384             0.0000000000
      1153       385  TIP3      OH2           -20.1146262818      -30.1702451097       -4.4497731047  W2        385             0.0000000000
      1154       385  TIP3      H1            -19.9303362818      -30.2520751097       -5.3854831047  W2        385             0.0000000000
      1155       385  TIP3      H2            -19.2653362818      -30.2945451097       -4.0261331047  W2        385             0.0000000000
      1156       386  TIP3      OH2            -4.2935762818      -30.2781351097        1.1786768953  W2        386             0.0000000000
      1157       386  TIP3      H1             -3.7108462818      -31.0129051097        1.3703968953  W2        386             0.0000000000
      1158       386  TIP3      H2             -3.7296462818      -29.5061051097        1.2252568953  W2        386             0.0000000000
      1159       387  TIP3      OH2            -2.7968662818      -32.3755551097        1.8632168953  W2        387             0.0000000000
      1160       387  TIP3      H1             -3.6601962818      -32.7543451097        1.6976868953  W2        387             0.0000000000
      1161       387  TIP3      H2             -2.1924962818      -33.1140751097        1.7887968953  W2        387             0.0000000000
      1162       388  TIP3      OH2            -5.0719562818      -36.2207251097      -14.9636331047  W2        388             0.0000000000
      1163       388  TIP3      H1             -4.4613762818      -36.5920451097      -14.3268131047  W2        388             0.0000000000
      1164       388  TIP3      H2             -5.9088062818      -36.6420351097      -14.7676331047  W2        388             0.0000000000
      1165       389  TIP3      OH2            -5.4393862818      -34.6658851097       -9.9976431047  W2        389             0.0000000000
      1166       389  TIP3      H1             -5.1596762818      -35.5728451097       -9.8734731047  W2        389             0.0000000000
      1167       389  TIP3      H2             -4.6802162818      -34.2317351097      -10.3867231047  W2        389             0.0000000000
      1168       390  TIP3      OH2            -4.8275562818      -34.0841451097       -4.5617531047  W2        390             0.0000000000
      1169       390  TIP3      H1             -3.8947562818      -33.8721551097       -4.5961531047  W2        390             0.0000000000
      1170       390  TIP3      H2             -5.0628062818      -33.9829351097       -3.6394531047  W2        390             0.0000000000
      1171       391  TIP3      OH2            -4.7983662818      -33.3476151097       -1.7858131047  W2        391             0.0000000000
      1172       391  TIP3      H1             -5.6412362818      -33.0795751097       -1.4198331047  W2        391             0.0000000000
      1173       391  TIP3      H2             -4.3559362818      -32.5254251097       -1.9967031047  W2        391             0.0000000000
      1174       392  TIP3      OH2           -20.5171462818      -34.8997451097        1.6911068953  W2        392             0.0000000000
      1175       392  TIP3      H1            -19.5976562818      -35.0219151097        1.9274168953  W2        392             0.0000000000
      1176       392  TIP3      H2            -20.9666962818      -35.6497751097        2.0804568953  W2        392             0.0000000000
      1177       393  TIP3      OH2            -2.5152062818      -39.3675951097        3.5676868953  W2        393             0.0000000000
      1178       393  TIP3      H1             -2.1655062818      -40.0212451097        2.9621568953  W2        393             0.0000000000
      1179       393  TIP3      H2             -2.3682562818      -38.5301851097        3.1279468953  W2        393             0.0000000000
      1180       394  TIP3      OH2            -4.8259062818      -37.4029551097       -9.9494431047  W2        394             0.0000000000
      1181       394  TIP3      H1             -4.6434062818      -37.8518051097       -9.1239431047  W2        394             0.0000000000
      1182       394  TIP3      H2             -5.4256162818      -37.9875151097      -10.4129831047  W2        394             0.0000000000
      1183       395  TIP3      OH2           -19.2958962818      -36.5875851097       -5.4176031047  W2        395             0.0000000000
      1184       395  TIP3      H1            -18.8507362818      -37.3793351097       -5.1156331047  W2        395             0.0000000000
      1185       395  TIP3      H2            -18.8295962818      -35.8710651097       -4.9870431047  W2        395             0.0000000000
      1186       396  TIP3      OH2           -20.9918662818      -33.5882851097       -4.3485831047  W2        396             0.0000000000
      1187       396  TIP3      H1            -20.4998862818      -33.8092351097       -5.1393831047  W2        396             0.0000000000
      1188       396  TIP3      H2            -20.6297762818      -32.7479451097       -4.0676331047  W2        396             0.0000000000
      1189       397  TIP3      OH2            -2.9954862818      -37.2581351097        1.9168168953  W2        397             0.0000000000
      1190       397  TIP3      H1             -3.9129162818      -36.9874251097        1.8811668953  W2        397             0.0000000000
      1191       397  TIP3      H2             -2.8725462818      -37.7932951097        1.1327868953  W2        397             0.0000000000
      1192       398  TIP3      OH2            -2.9592862818      -37.3351451097      -13.4214131047  W2        398             0.0000000000
      1193       398  TIP3      H1             -2.5470262818      -38.0565751097      -13.8966131047  W2        398             0.0000000000
      1194       398  TIP3      H2             -2.2776362818      -36.6656851097      -13.3629831047  W2        398             0.0000000000
      1195       399  TIP3      OH2           -20.6782162818      -37.3303751097      -10.2943431047  W2        399             0.0000000000
      1196       399  TIP3      H1            -21.6033762818      -37.1217151097      -10.4237931047  W2        399             0.0000000000
      1197       399  TIP3      H2            -20.2242262818      -36.8462951097      -10.9841131047  W2        399             0.0000000000
      1198       400  TIP3      OH2            -5.9074962818      -22.3462051097       -8.3486031047  W2        400             0.0000000000
      1199       400  TIP3      H1             -5.2552062818      -22.6939951097       -8.9566931047  W2        400             0.0000000000
      1200       400  TIP3      H2             -5.3971162818      -21.8578851097       -7.7026331047  W2        400             0.0000000000
      1201       401  TIP3      OH2           -20.7146762818      -38.5924751097       -1.9500931047  W2        401             0.0000000000
      1202       401  TIP3      H1            -21.3796262818      -38.8384451097       -1.3070031047  W2        401             0.0000000000
      1203       401  TIP3      H2            -21.1575462818      -37.9704351097       -2.5272931047  W2        401             0.0000000000
      1204       402  TIP3      OH2           -18.5227462818      -25.4170651097        2.1944868953  W2        402             0.0000000000
      1205       402  TIP3      H1            -19.3434962818      -25.2424151097        1.7339568953  W2        402             0.0000000000
      1206       402  TIP3      H2            -18.7749662818      -25.4905951097        3.1149268953  W2        402             0.0000000000
      1207       403  TIP3      OH2           -15.5684562818      -24.4429451097       -1.5471131047  W2        403             0.0000000000
      1208       403  TIP3      H1            -15.9933462818      -23.6330951097       -1.8296531047  W2        403             0.0000000000
      1209       403  TIP3      H2            -14.6641762818      -24.3575351097       -1.8491331047  W2        403             0.0000000000
      1210       404  TIP3      OH2           -11.2573162818      -23.0439451097        1.4122568953  W2        404             0.0000000000
      1211       404  TIP3      H1            -11.0725662818      -23.3773351097        2.2902868953  W2        404             0.0000000000
      1212       404  TIP3      H2            -10.4108662818      -22.7340851097        1.0901768953  W2        404             0.0000000000
      1213       405  TIP3      OH2            -8.9122762818      -21.7580551097        0.6563968953  W2        405             0.0000000000
      1214       405  TIP3      H1             -8.2353862818      -22.3908251097        0.4163168953  W2        405             0.0000000000
      1215       405  TIP3      H2             -8.5903962818      -21.3570051097        1.4637268953  W2        405             0.0000000000
      1216       406  TIP3      OH2            -3.9948962818      -39.1685051097       -0.2641031047  W2        406             0.0000000000
      1217       406  TIP3      H1             -4.8075462818      -38.8434751097       -0.6516331047  W2        406             0.0000000000
      1218       406  TIP3      H2             -3.7620462818      -39.9286551097       -0.7971931047  W2        406             0.0000000000
      1219       407  TIP3      OH2           -18.1667862818      -21.1865551097       -1.4995831047  W2        407             0.0000000000
      1220       407  TIP3      H1            -18.8871462818      -20.7464551097       -1.9508131047  W2        407             0.0000000000
      1221       407  TIP3      H2            -18.5323862818      -21.4370851097       -0.6511831047  W2        407             0.0000000000
      1222       408  TIP3      OH2           -15.6995262818      -21.5861651097       -2.4698631047  W2        408             0.0000000000
      1223       408  TIP3      H1            -16.5643062818      -21.5143151097       -2.0658531047  W2        408             0.0000000000
      1224       408  TIP3      H2            -15.7546262818      -21.0394351097       -3.2536131047  W2        408             0.0000000000
      1225       409  TIP3      OH2           -10.9889662818      -21.6982751097       -3.2942631047  W2        409             0.0000000000
      1226       409  TIP3      H1            -11.4455662818      -21.1693051097       -3.9484231047  W2        409             0.0000000000
      1227       409  TIP3      H2            -10.8261662818      -21.0951351097       -2.5690331047  W2        409             0.0000000000
      1228       410  TIP3      OH2            -8.6613362818      -22.8203151097       -2.3492331047  W2        410             0.0000000000
      1229       410  TIP3      H1             -9.5659662818      -22.6552951097       -2.6150231047  W2        410             0.0000000000
      1230       410  TIP3      H2             -8.2324762818      -21.9670951097       -2.4148931047  W2        410             0.0000000000
      1231       411  TIP3      OH2            -6.0571462818      -21.2504051097       -2.0544531047  W2        411             0.0000000000
      1232       411  TIP3      H1             -6.2389462818      -20.3345151097       -2.2649631047  W2        411             0.0000000000
      1233       411  TIP3      H2             -5.8803662818      -21.6606951097       -2.9009931047  W2        411             0.0000000000
      1234       412  TIP3      OH2           -18.7519762818      -22.5633051097       -4.5894031047  W2        412             0.0000000000
      1235       412  TIP3      H1            -18.7703762818      -22.9887951097       -3.7321731047  W2        412             0.0000000000
      1236       412  TIP3      H2            -17.9471862818      -22.8818051097       -4.9981831047  W2        412             0.0000000000
      1237       413  TIP3      OH2           -16.6106662818      -23.8534351097       -5.9344131047  W2        413             0.0000000000
      1238       413  TIP3      H1            -16.8295962818      -24.7696951097       -5.7648131047  W2        413             0.0000000000
      1239       413  TIP3      H2            -15.7864462818      -23.7133951097       -5.4682731047  W2        413             0.0000000000
      1240       414  TIP3      OH2           -14.0734162818      -23.3835051097       -5.0856131047  W2        414             0.0000000000
      1241       414  TIP3      H1            -13.8608462818      -24.2716051097       -5.3725231047  W2        414             0.0000000000
      1242       414  TIP3      H2            -14.0089062818      -23.4177351097       -4.1312131047  W2        414             0.0000000000
      1243       415  TIP3      OH2           -10.5650462818      -37.7194451097       -5.9412831047  W2        415             0.0000000000
      1244       415  TIP3      H1            -11.2393662818      -38.3488851097       -5.6857031047  W2        415             0.0000000000
      1245       415  TIP3      H2            -10.0011262818      -38.2035551097       -6.5444931047  W2        415             0.0000000000
      1246       416  TIP3      OH2            -5.4223262818      -39.6120451097       -5.8285731047  W2        416             0.0000000000
      1247       416  TIP3      H1             -4.8185662818      -39.0645051097       -6.3304731047  W2        416             0.0000000000
      1248       416  TIP3      H2             -6.2921262818      -39.2930051097       -6.0691631047  W2        416             0.0000000000
      1249       417  TIP3      OH2            -3.6952862818      -38.4731751097       -7.4954831047  W2        417             0.0000000000
      1250       417  TIP3      H1             -3.0835362818      -38.9876051097       -8.0221231047  W2        417             0.0000000000
      1251       417  TIP3      H2             -3.3129462818      -37.5959651097       -7.4720431047  W2        417             0.0000000000
      1252       418  TIP3      OH2           -18.2382962818      -39.0854151097       -8.1192931047  W2        418             0.0000000000
      1253       418  TIP3      H1            -19.0153162818      -39.3199251097       -8.6267031047  W2        418             0.0000000000
      1254       418  TIP3      H2            -17.7079362818      -39.8822051097       -8.1104931047  W2        418             0.0000000000
      1255       419  TIP3      OH2           -19.4019562818      -39.2876051097      -12.3156831047  W2        419             0.0000000000
      1256       419  TIP3      H1            -18.9628862818      -38.6765551097      -12.9073331047  W2        419             0.0000000000
      1257       419  TIP3      H2            -20.0357162818      -38.7491951097      -11.8416831047  W2        419             0.0000000000
      1258       420  TIP3      OH2           -13.6590362818      -39.1587051097       -8.3059831047  W2        420             0.0000000000
      1259       420  TIP3      H1            -12.7846962818      -38.7702751097       -8.3355531047  W2        420             0.0000000000
      1260       420  TIP3      H2            -13.7949562818      -39.3739251097       -7.3832631047  W2        420             0.0000000000
      1261       421  TIP3      OH2            -8.1021962818      -39.1287251097       -6.6568131047  W2        421             0.0000000000
      1262       421  TIP3      H1             -8.0260362818      -39.0335651097       -7.6062131047  W2        421             0.0000000000
      1263       421  TIP3      H2             -8.3772762818      -40.0364351097       -6.5279031047  W2        421             0.0000000000
      1264       422  TIP3      OH2            -6.7489362818      -39.1029451097      -10.9643131047  W2        422             0.0000000000
      1265       422  TIP3      H1             -7.4518262818      -38.4880251097      -11.1741731047  W2        422             0.0000000000
      1266       422  TIP3      H2             -7.1937962818      -39.9402751097      -10.8332231047  W2        422             0.0000000000
      1267       423  TIP3      OH2           -19.5010062818      -23.3393851097      -11.4181731047  W2        423             0.0000000000
      1268       423  TIP3      H1            -20.1860162818      -23.3774951097      -12.0856631047  W2        423             0.0000000000
      1269       423  TIP3      H2            -19.4972862818      -22.4266251097      -11.1299631047  W2        423             0.0000000000
      1270       424  TIP3      OH2           -17.5410462818      -37.3714551097      -13.8732731047  W2        424             0.0000000000
      1271       424  TIP3      H1            -17.0497062818      -38.0012151097      -14.4007231047  W2        424             0.0000000000
      1272       424  TIP3      H2            -16.9174162818      -37.0755151097      -13.2101531047  W2        424             0.0000000000
      1273       425  TIP3      OH2           -12.5150362818      -37.0783051097      -11.4162231047  W2        425             0.0000000000
      1274       425  TIP3      H1            -12.3369062818      -37.7249851097      -10.7333631047  W2        425             0.0000000000
      1275       425  TIP3      H2            -12.5684162818      -36.2445351097      -10.9491131047  W2        425             0.0000000000
      1276       426  TIP3      OH2           -10.6366562818      -22.1298951097      -13.0205531047  W2        426             0.0000000000
      1277       426  TIP3      H1             -9.7706362818      -21.7631551097      -13.1987331047  W2        426             0.0000000000
      1278       426  TIP3      H2            -10.8833762818      -22.5690951097      -13.8344731047  W2        426             0.0000000000
      1279       427  TIP3      OH2            -3.9276962818      -22.5668651097      -10.3414431047  W2        427             0.0000000000
      1280       427  TIP3      H1             -4.1219862818      -23.3146551097      -10.9064831047  W2        427             0.0000000000
      1281       427  TIP3      H2             -3.9666862818      -21.8088551097      -10.9246531047  W2        427             0.0000000000
      1282       428  TIP3      OH2           -18.2804962818      -38.5712251097        1.3983268953  W2        428             0.0000000000
      1283       428  TIP3      H1            -18.6466762818      -39.3369651097        1.8407968953  W2        428             0.0000000000
      1284       428  TIP3      H2            -17.3676462818      -38.5422051097        1.6848368953  W2        428             0.0000000000
      1285       429  TIP3      OH2           -16.3074162818      -39.2207851097        2.9340368953  W2        429             0.0000000000
      1286       429  TIP3      H1            -15.4090562818      -39.4947651097        2.7493768953  W2        429             0.0000000000
      1287       429  TIP3      H2            -16.6941062818      -39.9631851097        3.3982968953  W2        429             0.0000000000
      1288       430  TIP3      OH2           -17.6828862818      -22.4193051097      -14.3929631047  W2        430             0.0000000000
      1289       430  TIP3      H1            -17.9504262818      -22.1330151097      -13.5196531047  W2        430             0.0000000000
      1290       430  TIP3      H2            -16.9116262818      -22.9653851097      -14.2407131047  W2        430             0.0000000000
      1291       431  TIP3      OH2            -7.8861862818      -39.8882551097        3.1163168953  W2        431             0.0000000000
      1292       431  TIP3      H1             -7.8094662818      -40.3141851097        3.9700868953  W2        431             0.0000000000
      1293       431  TIP3      H2             -6.9925262818      -39.8747851097        2.7736668953  W2        431             0.0000000000
      1294       432  TIP3      OH2            -4.7100762818      -23.8156251097        1.8087368953  W2        432             0.0000000000
      1295       432  TIP3      H1             -5.4918862818      -24.0018251097        1.2887968953  W2        432             0.0000000000
      1296       432  TIP3      H2             -4.7820862818      -22.8861951097        2.0259868953  W2        432             0.0000000000
      1297       433  TIP3      OH2             9.6959637182      -29.9291851097       -8.1605431047  W2        433             0.0000000000
      1298       433  TIP3      H1              9.7850737182      -28.9853651097       -8.2928331047  W2        433             0.0000000000
      1299       433  TIP3      H2              9.0577237182      -30.2045451097       -8.8186031047  W2        433             0.0000000000
      1300       434  TIP3      OH2             8.6290937182      -30.6741151097       -4.7417231047  W2        434             0.0000000000
      1301       434  TIP3      H1              8.5908437182      -31.3204851097       -4.0367631047  W2        434             0.0000000000
      1302       434  TIP3      H2              8.3067437182      -31.1406751097       -5.5128531047  W2        434             0.0000000000
      1303       435  TIP3      OH2             0.9975937182      -31.0599051097       -3.1487331047  W2        435             0.0000000000
      1304       435  TIP3      H1              1.0388037182      -31.6855751097       -2.4254931047  W2        435             0.0000000000
      1305       435  TIP3      H2              1.7003637182      -30.4360451097       -2.9666931047  W2        435             0.0000000000
      1306       436  TIP3      OH2            12.3351137182      -27.7350751097       -6.4402131047  W2        436             0.0000000000
      1307       436  TIP3      H1             11.8943837182      -28.4554751097       -5.9896531047  W2        436             0.0000000000
      1308       436  TIP3      H2             12.3220837182      -27.0143551097       -5.8104431047  W2        436             0.0000000000
      1309       437  TIP3      OH2             1.9209037182      -26.6100151097       -4.6138231047  W2        437             0.0000000000
      1310       437  TIP3      H1              1.5514237182      -27.4119651097       -4.9833931047  W2        437             0.0000000000
      1311       437  TIP3      H2              2.8620137182      -26.7785251097       -4.5674831047  W2        437             0.0000000000
      1312       438  TIP3      OH2            -1.4690462818      -32.9497551097       -9.2209431047  W2        438             0.0000000000
      1313       438  TIP3      H1             -1.9167062818      -32.1038851097       -9.2392931047  W2        438             0.0000000000
      1314       438  TIP3      H2             -2.0299262818      -33.5293351097       -9.7364331047  W2        438             0.0000000000
      1315       439  TIP3      OH2            -0.7584362818      -30.7877951097       -7.0951431047  W2        439             0.0000000000
      1316       439  TIP3      H1             -0.5450862818      -31.5576351097       -6.5678431047  W2        439             0.0000000000
      1317       439  TIP3      H2             -0.0206762818      -30.6981251097       -7.6983831047  W2        439             0.0000000000
      1318       440  TIP3      OH2             9.4466637182      -22.6309051097       -6.2281731047  W2        440             0.0000000000
      1319       440  TIP3      H1             10.0663037182      -23.3074351097       -6.5012531047  W2        440             0.0000000000
      1320       440  TIP3      H2              9.2384037182      -22.8488251097       -5.3196831047  W2        440             0.0000000000
      1321       441  TIP3      OH2             7.0185337182      -28.2419751097       -4.3356231047  W2        441             0.0000000000
      1322       441  TIP3      H1              7.3223237182      -28.9278351097       -4.9302131047  W2        441             0.0000000000
      1323       441  TIP3      H2              7.7399337182      -28.1231051097       -3.7178231047  W2        441             0.0000000000
      1324       442  TIP3      OH2            15.6815137182      -36.6404451097       -3.4750031047  W2        442             0.0000000000
      1325       442  TIP3      H1             15.7307337182      -36.0303251097       -2.7390931047  W2        442             0.0000000000
      1326       442  TIP3      H2             16.1070237182      -36.1793551097       -4.1978931047  W2        442             0.0000000000
      1327       443  TIP3      OH2            10.1592337182      -33.8477351097       -4.0081431047  W2        443             0.0000000000
      1328       443  TIP3      H1             10.3018237182      -34.7940351097       -3.9879831047  W2        443             0.0000000000
      1329       443  TIP3      H2             10.0531337182      -33.6407551097       -4.9366531047  W2        443             0.0000000000
      1330       444  TIP3      OH2             3.3140637182      -35.7460951097       -6.7356631047  W2        444             0.0000000000
      1331       444  TIP3      H1              3.3571737182      -34.8862451097       -7.1540331047  W2        444             0.0000000000
      1332       444  TIP3      H2              2.8564737182      -36.2986251097       -7.3693431047  W2        444             0.0000000000
      1333       445  TIP3      OH2            11.0363337182      -35.6155351097       -8.3348331047  W2        445             0.0000000000
      1334       445  TIP3      H1             11.6827637182      -35.9442151097       -7.7100731047  W2        445             0.0000000000
      1335       445  TIP3      H2             11.5462737182      -35.0976351097       -8.9576931047  W2        445             0.0000000000
      1336       446  TIP3      OH2            -0.0657862818      -33.3495151097       -5.9735231047  W2        446             0.0000000000
      1337       446  TIP3      H1              0.5878737182      -33.8993451097       -5.5415131047  W2        446             0.0000000000
      1338       446  TIP3      H2             -0.0418562818      -33.6236151097       -6.8903231047  W2        446             0.0000000000
      1339       447  TIP3      OH2             5.0906637182      -31.7993851097       -6.7583731047  W2        447             0.0000000000
      1340       447  TIP3      H1              5.7067637182      -32.3258451097       -6.2489731047  W2        447             0.0000000000
      1341       447  TIP3      H2              4.5045437182      -32.4395151097       -7.1620131047  W2        447             0.0000000000
      1342       448  TIP3      OH2            16.0729737182      -35.1625251097       -1.2390231047  W2        448             0.0000000000
      1343       448  TIP3      H1             15.3844337182      -34.5044551097       -1.3343631047  W2        448             0.0000000000
      1344       448  TIP3      H2             16.0884337182      -35.3597351097       -0.3024831047  W2        448             0.0000000000
      1345       449  TIP3      OH2             2.1242537182      -36.8282551097       -2.6615831047  W2        449             0.0000000000
      1346       449  TIP3      H1              1.9054237182      -36.2981951097       -3.4279831047  W2        449             0.0000000000
      1347       449  TIP3      H2              1.4563437182      -36.6017051097       -2.0144431047  W2        449             0.0000000000
      1348       450  TIP3      OH2             9.4932337182      -27.3281451097       -9.1176731047  W2        450             0.0000000000
      1349       450  TIP3      H1              9.1977437182      -27.6509151097       -9.9689831047  W2        450             0.0000000000
      1350       450  TIP3      H2              9.1690137182      -26.4284751097       -9.0764131047  W2        450             0.0000000000
      1351       451  TIP3      OH2             4.6933937182      -29.1526851097       -2.3742131047  W2        451             0.0000000000
      1352       451  TIP3      H1              3.9533037182      -28.5545351097       -2.2706931047  W2        451             0.0000000000
      1353       451  TIP3      H2              5.4073437182      -28.5987251097       -2.6898531047  W2        451             0.0000000000
      1354       452  TIP3      OH2            12.8001737182      -36.3246051097       -6.3542431047  W2        452             0.0000000000
      1355       452  TIP3      H1             12.5849737182      -37.0902651097       -5.8216431047  W2        452             0.0000000000
      1356       452  TIP3      H2             13.4559137182      -35.8521451097       -5.8413931047  W2        452             0.0000000000
      1357       453  TIP3      OH2             1.7179837182      -34.9360751097       -4.7093631047  W2        453             0.0000000000
      1358       453  TIP3      H1              2.3316137182      -34.3033151097       -4.3361231047  W2        453             0.0000000000
      1359       453  TIP3      H2              2.2300537182      -35.4085751097       -5.3656731047  W2        453             0.0000000000
      1360       454  TIP3      OH2             3.1008237182      -27.1883851097       -1.5870631047  W2        454             0.0000000000
      1361       454  TIP3      H1              3.0955837182      -26.3090351097       -1.9651331047  W2        454             0.0000000000
      1362       454  TIP3      H2              2.2472337182      -27.2719751097       -1.1620731047  W2        454             0.0000000000
      1363       455  TIP3      OH2            -0.7780862818      -27.5175951097      -10.8051331047  W2        455             0.0000000000
      1364       455  TIP3      H1             -1.0499962818      -27.2884951097      -11.6938431047  W2        455             0.0000000000
      1365       455  TIP3      H2             -0.7325162818      -26.6797151097      -10.3446031047  W2        455             0.0000000000
      1366       456  TIP3      OH2            12.8468837182      -25.8960051097       -4.0922831047  W2        456             0.0000000000
      1367       456  TIP3      H1             11.9052537182      -25.8376151097       -3.9305931047  W2        456             0.0000000000
      1368       456  TIP3      H2             13.1234937182      -24.9899551097       -4.2293131047  W2        456             0.0000000000
      1369       457  TIP3      OH2            13.1475837182      -37.6094751097       -2.6748931047  W2        457             0.0000000000
      1370       457  TIP3      H1             12.4115037182      -36.9987651097       -2.7127631047  W2        457             0.0000000000
      1371       457  TIP3      H2             13.8309837182      -37.1945751097       -3.2012531047  W2        457             0.0000000000
      1372       458  TIP3      OH2             6.1507237182      -39.5227451097       -5.2090931047  W2        458             0.0000000000
      1373       458  TIP3      H1              6.0331437182      -40.4711451097       -5.2632631047  W2        458             0.0000000000
      1374       458  TIP3      H2              5.2957337182      -39.1901351097       -4.9359831047  W2        458             0.0000000000
      1375       459  TIP3      OH2            11.0990037182      -24.1146551097       -7.4671231047  W2        459             0.0000000000
      1376       459  TIP3      H1             11.5242337182      -24.8218651097       -7.9521631047  W2        459             0.0000000000
      1377       459  TIP3      H2             11.4160037182      -23.3133851097       -7.8839031047  W2        459             0.0000000000
      1378       460  TIP3      OH2            12.2586537182      -26.2138051097       -8.9584631047  W2        460             0.0000000000
      1379       460  TIP3      H1             12.0011337182      -26.9037951097       -9.5698731047  W2        460             0.0000000000
      1380       460  TIP3      H2             12.3297337182      -26.6566851097       -8.1128731047  W2        460             0.0000000000
      1381       461  TIP3      OH2            13.9446737182      -27.6471351097       -0.4811131047  W2        461             0.0000000000
      1382       461  TIP3      H1             14.0843037182      -28.2388851097       -1.2204131047  W2        461             0.0000000000
      1383       461  TIP3      H2             14.1119537182      -26.7745451097       -0.8372331047  W2        461             0.0000000000
      1384       462  TIP3      OH2             8.4172137182      -30.6851851097      -10.7085131047  W2        462             0.0000000000
      1385       462  TIP3      H1              7.7057637182      -30.1502151097      -11.0604631047  W2        462             0.0000000000
      1386       462  TIP3      H2              9.1081737182      -30.6299751097      -11.3686231047  W2        462             0.0000000000
      1387       463  TIP3      OH2             8.4711337182      -32.2277551097      -13.6700131047  W2        463             0.0000000000
      1388       463  TIP3      H1              9.1721237182      -32.2050651097      -13.0186131047  W2        463             0.0000000000
      1389       463  TIP3      H2              8.7734237182      -32.8557851097      -14.3260831047  W2        463             0.0000000000
      1390       464  TIP3      OH2            15.7866037182      -31.3073351097       -2.4150731047  W2        464             0.0000000000
      1391       464  TIP3      H1             15.1340137182      -30.6127751097       -2.3259831047  W2        464             0.0000000000
      1392       464  TIP3      H2             16.2516337182      -31.0972451097       -3.2249131047  W2        464             0.0000000000
      1393       465  TIP3      OH2            11.8229837182      -30.4758551097       -9.7569231047  W2        465             0.0000000000
      1394       465  TIP3      H1             11.0910837182      -30.2474851097       -9.1838631047  W2        465             0.0000000000
      1395       465  TIP3      H2             12.2702037182      -31.1895851097       -9.3021731047  W2        465             0.0000000000
      1396       466  TIP3      OH2            11.7203337182      -32.3015951097       -0.6892231047  W2        466             0.0000000000
      1397       466  TIP3      H1             11.8002437182      -31.5381551097       -0.1173731047  W2        466             0.0000000000
      1398       466  TIP3      H2             11.1191037182      -32.0223551097       -1.3797131047  W2        466             0.0000000000
      1399       467  TIP3      OH2             3.4683537182      -29.8452351097       -7.8744231047  W2        467             0.0000000000
      1400       467  TIP3      H1              3.1378737182      -30.2158951097       -8.6927231047  W2        467             0.0000000000
      1401       467  TIP3      H2              4.0567637182      -30.5158351097       -7.5275931047  W2        467             0.0000000000
      1402       468  TIP3      OH2             4.8351037182      -26.4171751097       -5.1932031047  W2        468             0.0000000000
      1403       468  TIP3      H1              4.7402337182      -26.9958651097       -5.9497431047  W2        468             0.0000000000
      1404       468  TIP3      H2              5.5644637182      -26.7886051097       -4.6969231047  W2        468             0.0000000000
      1405       469  TIP3      OH2             3.8349037182      -31.0766751097       -4.2409231047  W2        469             0.0000000000
      1406       469  TIP3      H1              4.4001537182      -30.9552551097       -5.0038031047  W2        469             0.0000000000
      1407       469  TIP3      H2              4.1537937182      -30.4391751097       -3.6020731047  W2        469             0.0000000000
      1408       470  TIP3      OH2            10.1441237182      -25.5734851097       -3.5068731047  W2        470             0.0000000000
      1409       470  TIP3      H1              9.9037837182      -24.9111751097       -2.8589531047  W2        470             0.0000000000
      1410       470  TIP3      H2              9.9459437182      -26.4079651097       -3.0819131047  W2        470             0.0000000000
      1411       471  TIP3      OH2             4.7149737182      -26.6774051097        0.4762668953  W2        471             0.0000000000
      1412       471  TIP3      H1              4.4037237182      -25.8950851097        0.9315868953  W2        471             0.0000000000
      1413       471  TIP3      H2              4.0649937182      -26.8304951097       -0.2095331047  W2        471             0.0000000000
      1414       472  TIP3      OH2            10.6939337182      -31.3135651097      -12.0718031047  W2        472             0.0000000000
      1415       472  TIP3      H1             11.2734837182      -31.1635351097      -11.3249131047  W2        472             0.0000000000
      1416       472  TIP3      H2             11.1079337182      -30.8428251097      -12.7951631047  W2        472             0.0000000000
      1417       473  TIP3      OH2             1.6349637182      -30.4792951097       -0.2951631047  W2        473             0.0000000000
      1418       473  TIP3      H1              1.7052837182      -29.8286151097        0.4033368953  W2        473             0.0000000000
      1419       473  TIP3      H2              0.7441837182      -30.3765451097       -0.6300731047  W2        473             0.0000000000
      1420       474  TIP3      OH2             8.4204237182      -24.5767151097       -8.6364931047  W2        474             0.0000000000
      1421       474  TIP3      H1              8.8941837182      -24.2810851097       -7.8590731047  W2        474             0.0000000000
      1422       474  TIP3      H2              7.8573537182      -23.8385551097       -8.8695331047  W2        474             0.0000000000
      1423       475  TIP3      OH2             2.9545637182      -24.6059051097        1.2396468953  W2        475             0.0000000000
      1424       475  TIP3      H1              2.9620937182      -24.7419351097        0.2921968953  W2        475             0.0000000000
      1425       475  TIP3      H2              2.0386037182      -24.7230951097        1.4916468953  W2        475             0.0000000000
      1426       476  TIP3      OH2            14.3927737182      -39.5635251097      -12.2588331047  W2        476             0.0000000000
      1427       476  TIP3      H1             13.4928437182      -39.4246251097      -11.9637731047  W2        476             0.0000000000
      1428       476  TIP3      H2             14.6446137182      -38.7320651097      -12.6606631047  W2        476             0.0000000000
      1429       477  TIP3      OH2             2.4586237182      -30.7758051097      -10.2851431047  W2        477             0.0000000000
      1430       477  TIP3      H1              2.1667537182      -30.0076351097      -10.7760131047  W2        477             0.0000000000
      1431       477  TIP3      H2              1.7841437182      -31.4351851097      -10.4480031047  W2        477             0.0000000000
      1432       478  TIP3      OH2            15.5819137182      -25.1972851097      -13.8824431047  W2        478             0.0000000000
      1433       478  TIP3      H1             15.6552637182      -24.2582651097      -13.7119131047  W2        478             0.0000000000
      1434       478  TIP3      H2             16.4874237182      -25.5024251097      -13.9387131047  W2        478             0.0000000000
      1435       479  TIP3      OH2            -1.4483662818      -28.4128851097       -1.4701631047  W2        479             0.0000000000
      1436       479  TIP3      H1             -1.9495262818      -28.4409451097       -2.2851931047  W2        479             0.0000000000
      1437       479  TIP3      H2             -1.4429962818      -29.3185651097       -1.1604331047  W2        479             0.0000000000
      1438       480  TIP3      OH2            -1.6980962818      -25.6325051097       -4.5861431047  W2        480             0.0000000000
      1439       480  TIP3      H1             -0.7520362818      -25.7768051097       -4.6051931047  W2        480             0.0000000000
      1440       480  TIP3      H2             -1.8104662818      -24.8482251097       -4.0490231047  W2        480             0.0000000000
      1441       481  TIP3      OH2            16.4997537182      -24.9665351097        1.0962268953  W2        481             0.0000000000
      1442       481  TIP3      H1             16.4504337182      -25.9217251097        1.0589868953  W2        481             0.0000000000
      1443       481  TIP3      H2             15.6729837182      -24.6990051097        1.4976068953  W2        481             0.0000000000
      1444       482  TIP3      OH2             7.4781537182      -25.3926151097       -0.0276331047  W2        482             0.0000000000
      1445       482  TIP3      H1              7.5656137182      -24.5661551097        0.4472768953  W2        482             0.0000000000
      1446       482  TIP3      H2              6.6146637182      -25.7222351097        0.2212968953  W2        482             0.0000000000
      1447       483  TIP3      OH2             7.8927337182      -21.6202451097      -10.2215731047  W2        483             0.0000000000
      1448       483  TIP3      H1              7.8173337182      -21.7415251097      -11.1680531047  W2        483             0.0000000000
      1449       483  TIP3      H2              7.9256037182      -20.6709751097      -10.1031131047  W2        483             0.0000000000
      1450       484  TIP3      OH2             1.5461137182      -22.8315451097       -8.4406731047  W2        484             0.0000000000
      1451       484  TIP3      H1              1.6981537182      -23.1795051097       -7.5620231047  W2        484             0.0000000000
      1452       484  TIP3      H2              0.6951537182      -23.1878151097       -8.6959531047  W2        484             0.0000000000
      1453       485  TIP3      OH2            10.9943337182      -22.4662251097      -13.2193331047  W2        485             0.0000000000
      1454       485  TIP3      H1             11.3691737182      -23.2106151097      -13.6900731047  W2        485             0.0000000000
      1455       485  TIP3      H2             10.9987037182      -22.7361651097      -12.3010031047  W2        485             0.0000000000
      1456       486  TIP3      OH2            10.6631437182      -22.5405151097      -10.4701131047  W2        486             0.0000000000
      1457       486  TIP3      H1              9.7281237182      -22.4403251097      -10.2914131047  W2        486             0.0000000000
      1458       486  TIP3      H2             10.9433337182      -23.2499151097       -9.8917931047  W2        486             0.0000000000
      1459       487  TIP3      OH2            13.6517337182      -33.4732851097        1.5764468953  W2        487             0.0000000000
      1460       487  TIP3      H1             13.2444137182      -32.9927251097        0.8557768953  W2        487             0.0000000000
      1461       487  TIP3      H2             13.6923037182      -34.3786851097        1.2685268953  W2        487             0.0000000000
      1462       488  TIP3      OH2             0.8006837182      -27.0893451097       -0.4268831047  W2        488             0.0000000000
      1463       488  TIP3      H1              1.0168137182      -27.4507851097        0.4326968953  W2        488             0.0000000000
      1464       488  TIP3      H2             -0.0548462818      -27.4639651097       -0.6365331047  W2        488             0.0000000000
      1465       489  TIP3      OH2             3.4194837182      -38.6192951097       -4.4314631047  W2        489             0.0000000000
      1466       489  TIP3      H1              2.5578537182      -38.7064751097       -4.8391731047  W2        489             0.0000000000
      1467       489  TIP3      H2              3.3970537182      -37.7632851097       -4.0037031047  W2        489             0.0000000000
      1468       490  TIP3      OH2             8.0822637182      -38.8972551097       -1.0567631047  W2        490             0.0000000000
      1469       490  TIP3      H1              8.5025737182      -39.3125451097       -0.3037031047  W2        490             0.0000000000
      1470       490  TIP3      H2              7.1492237182      -39.0759251097       -0.9395631047  W2        490             0.0000000000
      1471       491  TIP3      OH2            11.4087537182      -35.1417351097       -0.2033131047  W2        491             0.0000000000
      1472       491  TIP3      H1             10.8947037182      -35.2675151097        0.5942868953  W2        491             0.0000000000
      1473       491  TIP3      H2             11.2532237182      -34.2294251097       -0.4476931047  W2        491             0.0000000000
      1474       492  TIP3      OH2            12.1712437182      -30.2807351097      -14.4420131047  W2        492             0.0000000000
      1475       492  TIP3      H1             12.2133237182      -30.5033451097      -15.3720131047  W2        492             0.0000000000
      1476       492  TIP3      H2             13.0204537182      -29.8820251097      -14.2520231047  W2        492             0.0000000000
      1477       493  TIP3      OH2             7.7439937182      -36.4049151097      -13.7716831047  W2        493             0.0000000000
      1478       493  TIP3      H1              7.4904737182      -36.3857551097      -12.8488731047  W2        493             0.0000000000
      1479       493  TIP3      H2              7.4872037182      -37.2763751097      -14.0730631047  W2        493             0.0000000000
      1480       494  TIP3      OH2             3.5104937182      -33.6538451097       -3.3364431047  W2        494             0.0000000000
      1481       494  TIP3      H1              2.8687037182      -33.6941151097       -2.6274331047  W2        494             0.0000000000
      1482       494  TIP3      H2              3.5476937182      -32.7273751097       -3.5741431047  W2        494             0.0000000000
      1483       495  TIP3      OH2             3.5074037182      -33.4328351097       -8.4244431047  W2        495             0.0000000000
      1484       495  TIP3      H1              2.6146937182      -33.7732251097       -8.4830631047  W2        495             0.0000000000
      1485       495  TIP3      H2              3.9580637182      -33.8097451097       -9.1801231047  W2        495             0.0000000000
      1486       496  TIP3      OH2             9.0429537182      -33.0168051097       -9.6073631047  W2        496             0.0000000000
      1487       496  TIP3      H1              8.6339837182      -32.2019451097       -9.8988831047  W2        496             0.0000000000
      1488       496  TIP3      H2              9.7635737182      -33.1567951097      -10.2216531047  W2        496             0.0000000000
      1489       497  TIP3      OH2             8.1451137182      -32.8411651097        1.8807068953  W2        497             0.0000000000
      1490       497  TIP3      H1              7.5824937182      -33.5460051097        2.2014868953  W2        497             0.0000000000
      1491       497  TIP3      H2              8.9714537182      -32.9619751097        2.3484668953  W2        497             0.0000000000
      1492       498  TIP3      OH2            10.0477237182      -33.5707651097       -6.7933931047  W2        498             0.0000000000
      1493       498  TIP3      H1              9.8521737182      -32.9650851097       -7.5083331047  W2        498             0.0000000000
      1494       498  TIP3      H2             10.2289837182      -34.4042451097       -7.2277631047  W2        498             0.0000000000
      1495       499  TIP3      OH2             1.2605437182      -33.3334951097       -1.4692431047  W2        499             0.0000000000
      1496       499  TIP3      H1              1.2224837182      -32.9333351097       -0.6005331047  W2        499             0.0000000000
      1497       499  TIP3      H2              0.7696537182      -34.1502551097       -1.3789531047  W2        499             0.0000000000
      1498       500  TIP3      OH2             4.6262837182      -35.9592651097      -14.6706431047  W2        500             0.0000000000
      1499       500  TIP3      H1              4.1953537182      -36.4042551097      -13.9409031047  W2        500             0.0000000000
      1500       500  TIP3      H2              3.9081537182      -35.5876351097      -15.1828931047  W2        500             0.0000000000
      1501       501  TIP3      OH2            -2.1313762818      -36.2173151097       -7.6187731047  W2        501             0.0000000000
      1502       501  TIP3      H1             -1.5006062818      -36.2461051097       -6.8993831047  W2        501             0.0000000000
      1503       501  TIP3      H2             -1.6819462818      -36.6424451097       -8.3491831047  W2        501             0.0000000000
      1504       502  TIP3      OH2            -0.8571662818      -35.4711151097      -12.1947331047  W2        502             0.0000000000
      1505       502  TIP3      H1             -0.3829962818      -34.8801251097      -12.7796431047  W2        502             0.0000000000
      1506       502  TIP3      H2             -1.5745262818      -34.9408251097      -11.8477231047  W2        502             0.0000000000
      1507       503  TIP3      OH2             9.3116437182      -31.9326351097       -2.1221531047  W2        503             0.0000000000
      1508       503  TIP3      H1              9.6351237182      -32.5636651097       -2.7651031047  W2        503             0.0000000000
      1509       503  TIP3      H2              8.8715737182      -32.4674151097       -1.4614131047  W2        503             0.0000000000
      1510       504  TIP3      OH2             6.0889337182      -36.0050851097       -7.3380331047  W2        504             0.0000000000
      1511       504  TIP3      H1              5.1780437182      -35.9484051097       -7.0494331047  W2        504             0.0000000000
      1512       504  TIP3      H2              6.5942237182      -36.0655351097       -6.5273131047  W2        504             0.0000000000
      1513       505  TIP3      OH2             0.9172737182      -34.3764551097       -8.5112731047  W2        505             0.0000000000
      1514       505  TIP3      H1              0.0280737182      -34.2769051097       -8.8513131047  W2        505             0.0000000000
      1515       505  TIP3      H2              1.2137637182      -35.2181551097       -8.8574831047  W2        505             0.0000000000
      1516       506  TIP3      OH2             4.5704537182      -34.3761951097      -10.8548131047  W2        506             0.0000000000
      1517       506  TIP3      H1              5.5020037182      -34.2471951097      -10.6765031047  W2        506             0.0000000000
      1518       506  TIP3      H2              4.3554837182      -33.7067651097      -11.5043431047  W2        506             0.0000000000
      1519       507  TIP3      OH2            10.4941237182      -36.7704551097       -4.0738531047  W2        507             0.0000000000
      1520       507  TIP3      H1              9.8172837182      -36.6391451097       -3.4098831047  W2        507             0.0000000000
      1521       507  TIP3      H2             10.0086137182      -36.9255051097       -4.8840831047  W2        507             0.0000000000
      1522       508  TIP3      OH2             3.2444737182      -33.1819751097      -13.2882031047  W2        508             0.0000000000
      1523       508  TIP3      H1              2.7019837182      -33.5615951097      -13.9794431047  W2        508             0.0000000000
      1524       508  TIP3      H2              4.0779637182      -32.9875051097      -13.7167931047  W2        508             0.0000000000
      1525       509  TIP3      OH2            13.7816337182      -21.0989151097        2.2029068953  W2        509             0.0000000000
      1526       509  TIP3      H1             13.9815037182      -20.6747251097        1.3684368953  W2        509             0.0000000000
      1527       509  TIP3      H2             14.4370037182      -20.7550951097        2.8099468953  W2        509             0.0000000000
      1528       510  TIP3      OH2             1.3796137182      -28.6247851097        1.8109568953  W2        510             0.0000000000
      1529       510  TIP3      H1              2.1118537182      -28.3701951097        2.3724068953  W2        510             0.0000000000
      1530       510  TIP3      H2              0.5994837182      -28.4202451097        2.3264968953  W2        510             0.0000000000
      1531       511  TIP3      OH2             7.4089037182      -33.2177851097       -5.4510731047  W2        511             0.0000000000
      1532       511  TIP3      H1              7.9732437182      -33.7641251097       -5.9981131047  W2        511             0.0000000000
      1533       511  TIP3      H2              7.2612437182      -33.7395951097       -4.6623131047  W2        511             0.0000000000
      1534       512  TIP3      OH2             2.4108737182      -37.0811751097       -9.0325931047  W2        512             0.0000000000
      1535       512  TIP3      H1              2.0938237182      -37.9836451097       -9.0680531047  W2        512             0.0000000000
      1536       512  TIP3      H2              3.1922837182      -37.0794351097       -9.5854331047  W2        512             0.0000000000
      1537       513  TIP3      OH2             6.0354937182      -34.8291751097       -3.0370331047  W2        513             0.0000000000
      1538       513  TIP3      H1              5.2000237182      -34.3752251097       -2.9267931047  W2        513             0.0000000000
      1539       513  TIP3      H2              6.5595537182      -34.5533251097       -2.2850431047  W2        513             0.0000000000
      1540       514  TIP3      OH2             6.5797537182      -28.6164051097      -11.3523931047  W2        514             0.0000000000
      1541       514  TIP3      H1              5.8348537182      -29.1238751097      -11.6746031047  W2        514             0.0000000000
      1542       514  TIP3      H2              6.4454737182      -28.5676051097      -10.4059131047  W2        514             0.0000000000
      1543       515  TIP3      OH2            13.7296437182      -29.4835851097       -2.5656331047  W2        515             0.0000000000
      1544       515  TIP3      H1             14.3715237182      -29.0269551097       -3.1094131047  W2        515             0.0000000000
      1545       515  TIP3      H2             12.8993337182      -29.3703451097       -3.0282231047  W2        515             0.0000000000
      1546       516  TIP3      OH2            10.4774337182      -35.8024151097      -13.1531331047  W2        516             0.0000000000
      1547       516  TIP3      H1              9.5388537182      -35.6908551097      -13.3042531047  W2        516             0.0000000000
      1548       516  TIP3      H2             10.7746437182      -34.9457251097      -12.8465631047  W2        516             0.0000000000
      1549       517  TIP3      OH2             8.0989637182      -28.4320751097       -0.1154831047  W2        517             0.0000000000
      1550       517  TIP3      H1              7.7535737182      -28.8138351097        0.6914768953  W2        517             0.0000000000
      1551       517  TIP3      H2              7.8989737182      -27.4987151097       -0.0441931047  W2        517             0.0000000000
      1552       518  TIP3      OH2            11.1957837182      -33.9351451097      -11.4923931047  W2        518             0.0000000000
      1553       518  TIP3      H1             12.0876837182      -34.0726451097      -11.1732731047  W2        518             0.0000000000
      1554       518  TIP3      H2             11.2521437182      -33.1445351097      -12.0290431047  W2        518             0.0000000000
      1555       519  TIP3      OH2             1.7045837182      -29.3214051097       -5.5826031047  W2        519             0.0000000000
      1556       519  TIP3      H1              2.4493037182      -29.3238351097       -6.1839531047  W2        519             0.0000000000
      1557       519  TIP3      H2              1.7822437182      -30.1450251097       -5.1010931047  W2        519             0.0000000000
      1558       520  TIP3      OH2             8.7051637182      -27.1579751097      -12.3269331047  W2        520             0.0000000000
      1559       520  TIP3      H1              8.4100037182      -26.3311851097      -11.9454531047  W2        520             0.0000000000
      1560       520  TIP3      H2              8.0021637182      -27.7772851097      -12.1307931047  W2        520             0.0000000000
      1561       521  TIP3      OH2            -1.2874462818      -30.8607151097       -0.2677531047  W2        521             0.0000000000
      1562       521  TIP3      H1             -1.0645862818      -31.2787551097        0.5639968953  W2        521             0.0000000000
      1563       521  TIP3      H2             -1.8894362818      -31.4732151097       -0.6904731047  W2        521             0.0000000000
      1564       522  TIP3      OH2             5.7290437182      -31.3437251097        1.9452168953  W2        522             0.0000000000
      1565       522  TIP3      H1              5.4331237182      -31.5094251097        1.0501268953  W2        522             0.0000000000
      1566       522  TIP3      H2              6.6605637182      -31.5636951097        1.9346068953  W2        522             0.0000000000
      1567       523  TIP3      OH2            10.3493237182      -25.9705251097       -0.1649831047  W2        523             0.0000000000
      1568       523  TIP3      H1              9.4487537182      -25.7872651097       -0.4325931047  W2        523             0.0000000000
      1569       523  TIP3      H2             10.3834337182      -25.7115951097        0.7558968953  W2        523             0.0000000000
      1570       524  TIP3      OH2            16.0806537182      -33.7257351097      -11.7977231047  W2        524             0.0000000000
      1571       524  TIP3      H1             15.5262837182      -34.1219351097      -12.4699731047  W2        524             0.0000000000
      1572       524  TIP3      H2             16.1810137182      -32.8152151097      -12.0753931047  W2        524             0.0000000000
      1573       525  TIP3      OH2            16.0438537182      -27.9255651097        1.0394268953  W2        525             0.0000000000
      1574       525  TIP3      H1             15.1927037182      -27.6871851097        0.6720668953  W2        525             0.0000000000
      1575       525  TIP3      H2             16.6341937182      -27.9422451097        0.2861368953  W2        525             0.0000000000
      1576       526  TIP3      OH2            14.3758237182      -24.9396951097      -11.3325131047  W2        526             0.0000000000
      1577       526  TIP3      H1             14.0029337182      -25.7653151097      -11.0234531047  W2        526             0.0000000000
      1578       526  TIP3      H2             14.6531737182      -25.1227551097      -12.2301731047  W2        526             0.0000000000
      1579       527  TIP3      OH2            11.5362137182      -30.1317451097       -4.3113231047  W2        527             0.0000000000
      1580       527  TIP3      H1             10.6079037182      -30.3635551097       -4.3383931047  W2        527             0.0000000000
      1581       527  TIP3      H2             11.9873237182      -30.9087651097       -4.6414431047  W2        527             0.0000000000
      1582       528  TIP3      OH2             4.0795237182      -25.8035851097       -8.1784531047  W2        528             0.0000000000
      1583       528  TIP3      H1              4.6067437182      -25.0301451097       -8.3785731047  W2        528             0.0000000000
      1584       528  TIP3      H2              3.1993737182      -25.5786651097       -8.4800531047  W2        528             0.0000000000
      1585       529  TIP3      OH2            -0.1657062818      -30.9411751097      -13.5912131047  W2        529             0.0000000000
      1586       529  TIP3      H1              0.4502837182      -30.3144551097      -13.2117331047  W2        529             0.0000000000
      1587       529  TIP3      H2             -1.0274462818      -30.6251951097      -13.3195631047  W2        529             0.0000000000
      1588       530  TIP3      OH2             5.5067537182      -28.1405951097       -8.6020231047  W2        530             0.0000000000
      1589       530  TIP3      H1              5.2657537182      -27.2151551097       -8.5604931047  W2        530             0.0000000000
      1590       530  TIP3      H2              4.7661137182      -28.5994651097       -8.2056331047  W2        530             0.0000000000
      1591       531  TIP3      OH2             6.0214137182      -23.9912351097       -2.2869131047  W2        531             0.0000000000
      1592       531  TIP3      H1              6.3838837182      -23.1366751097       -2.5204731047  W2        531             0.0000000000
      1593       531  TIP3      H2              6.5529337182      -24.2830751097       -1.5462831047  W2        531             0.0000000000
      1594       532  TIP3      OH2             4.1898337182      -23.1188351097       -9.0568031047  W2        532             0.0000000000
      1595       532  TIP3      H1              3.2398837182      -23.0130951097       -9.0054731047  W2        532             0.0000000000
      1596       532  TIP3      H2              4.5416437182      -22.2980951097       -8.7120531047  W2        532             0.0000000000
      1597       533  TIP3      OH2             9.5654937182      -27.8921651097       -2.5863531047  W2        533             0.0000000000
      1598       533  TIP3      H1              9.1396237182      -28.1199951097       -1.7599531047  W2        533             0.0000000000
      1599       533  TIP3      H2             10.1460737182      -28.6309851097       -2.7688231047  W2        533             0.0000000000
      1600       534  TIP3      OH2            11.7683837182      -26.9631151097      -13.5124531047  W2        534             0.0000000000
      1601       534  TIP3      H1             12.1216937182      -27.3431351097      -12.7081031047  W2        534             0.0000000000
      1602       534  TIP3      H2             10.8197337182      -27.0566351097      -13.4255231047  W2        534             0.0000000000
      1603       535  TIP3      OH2            12.2239137182      -23.3402151097       -0.1168731047  W2        535             0.0000000000
      1604       535  TIP3      H1             11.6222337182      -23.8959251097       -0.6122431047  W2        535             0.0000000000
      1605       535  TIP3      H2             12.5052837182      -22.6732351097       -0.7431331047  W2        535             0.0000000000
      1606       536  TIP3      OH2            16.2718237182      -22.4838651097      -13.3114331047  W2        536             0.0000000000
      1607       536  TIP3      H1             17.0156137182      -21.8978151097      -13.4512731047  W2        536             0.0000000000
      1608       536  TIP3      H2             15.5776337182      -21.9152851097      -12.9781931047  W2        536             0.0000000000
      1609       537  TIP3      OH2             0.3465037182      -36.1074451097       -0.7096131047  W2        537             0.0000000000
      1610       537  TIP3      H1             -0.5462662818      -35.7689051097       -0.7772131047  W2        537             0.0000000000
      1611       537  TIP3      H2              0.2477837182      -36.9628351097       -0.2915331047  W2        537             0.0000000000
      1612       538  TIP3      OH2            12.6343137182      -28.2909151097      -11.2856631047  W2        538             0.0000000000
      1613       538  TIP3      H1             12.3570737182      -29.0189851097      -10.7295531047  W2        538             0.0000000000
      1614       538  TIP3      H2             13.5616137182      -28.1717151097      -11.0804031047  W2        538             0.0000000000
      1615       539  TIP3      OH2            -0.0022962818      -24.3030051097       -2.2746731047  W2        539             0.0000000000
      1616       539  TIP3      H1              0.2147337182      -25.2347651097       -2.3057031047  W2        539             0.0000000000
      1617       539  TIP3      H2              0.2440537182      -24.0285051097       -1.3913931047  W2        539             0.0000000000
      1618       540  TIP3      OH2             5.8591637182      -25.8515051097      -15.0654531047  W2        540             0.0000000000
      1619       540  TIP3      H1              6.0981437182      -26.5996951097      -15.6125631047  W2        540             0.0000000000
      1620       540  TIP3      H2              5.5902937182      -26.2393351097      -14.2326731047  W2        540             0.0000000000
      1621       541  TIP3      OH2             4.7962237182      -26.2811251097      -12.6091931047  W2        541             0.0000000000
      1622       541  TIP3      H1              4.9430237182      -26.8011451097      -11.8191031047  W2        541             0.0000000000
      1623       541  TIP3      H2              4.7933937182      -25.3743651097      -12.3026031047  W2        541             0.0000000000
      1624       542  TIP3      OH2             1.2493337182      -29.0287951097      -12.0986531047  W2        542             0.0000000000
      1625       542  TIP3      H1              0.5632637182      -28.6765451097      -11.5316831047  W2        542             0.0000000000
      1626       542  TIP3      H2              1.7721237182      -28.2658351097      -12.3452231047  W2        542             0.0000000000
      1627       543  TIP3      OH2             9.0808437182      -36.3664151097       -1.8197531047  W2        543             0.0000000000
      1628       543  TIP3      H1              9.7796337182      -36.2925451097       -1.1697831047  W2        543             0.0000000000
      1629       543  TIP3      H2              8.6999837182      -37.2309151097       -1.6654631047  W2        543             0.0000000000
      1630       544  TIP3      OH2             9.8653337182      -36.7142451097      -10.7225231047  W2        544             0.0000000000
      1631       544  TIP3      H1             10.0851637182      -36.2427051097      -11.5259831047  W2        544             0.0000000000
      1632       544  TIP3      H2             10.4237337182      -36.3199851097      -10.0524631047  W2        544             0.0000000000
      1633       545  TIP3      OH2             7.5339437182      -24.5837651097      -11.8597731047  W2        545             0.0000000000
      1634       545  TIP3      H1              6.7175537182      -24.0867951097      -11.8073431047  W2        545             0.0000000000
      1635       545  TIP3      H2              8.0635737182      -24.1084151097      -12.4998931047  W2        545             0.0000000000
      1636       546  TIP3      OH2             7.0653237182      -34.9863651097       -9.8876831047  W2        546             0.0000000000
      1637       546  TIP3      H1              7.8775837182      -34.4820451097       -9.8415131047  W2        546             0.0000000000
      1638       546  TIP3      H2              6.8206237182      -35.1313951097       -8.9737231047  W2        546             0.0000000000
      1639       547  TIP3      OH2             7.6009637182      -34.0000951097       -0.7030231047  W2        547             0.0000000000
      1640       547  TIP3      H1              7.7199937182      -33.4265551097        0.0540168953  W2        547             0.0000000000
      1641       547  TIP3      H2              8.2564237182      -34.6881551097       -0.5882431047  W2        547             0.0000000000
      1642       548  TIP3      OH2             7.9489937182      -37.9050651097       -8.9495731047  W2        548             0.0000000000
      1643       548  TIP3      H1              7.6023437182      -37.2880051097       -8.3051431047  W2        548             0.0000000000
      1644       548  TIP3      H2              8.6076837182      -37.4044951097       -9.4310231047  W2        548             0.0000000000
      1645       549  TIP3      OH2             4.8722537182      -23.5400451097      -11.8780831047  W2        549             0.0000000000
      1646       549  TIP3      H1              5.0331237182      -22.7402951097      -12.3788231047  W2        549             0.0000000000
      1647       549  TIP3      H2              4.6750337182      -23.2334451097      -10.9930231047  W2        549             0.0000000000
      1648       550  TIP3      OH2             3.6066937182      -36.8421251097      -12.2623231047  W2        550             0.0000000000
      1649       550  TIP3      H1              3.5231737182      -35.9538151097      -11.9156831047  W2        550             0.0000000000
      1650       550  TIP3      H2              4.4967237182      -37.1074551097      -12.0306431047  W2        550             0.0000000000
      1651       551  TIP3      OH2            13.8055437182      -36.0930651097        0.1319468953  W2        551             0.0000000000
      1652       551  TIP3      H1             12.8891237182      -35.8308951097        0.0443168953  W2        551             0.0000000000
      1653       551  TIP3      H2             14.1410437182      -36.0961651097       -0.7645231047  W2        551             0.0000000000
      1654       552  TIP3      OH2            12.4076437182      -32.3429651097       -5.7723231047  W2        552             0.0000000000
      1655       552  TIP3      H1             11.6100837182      -32.7579451097       -6.1008231047  W2        552             0.0000000000
      1656       552  TIP3      H2             12.8527537182      -33.0335951097       -5.2812731047  W2        552             0.0000000000
      1657       553  TIP3      OH2             1.8652237182      -26.4149051097      -13.2018731047  W2        553             0.0000000000
      1658       553  TIP3      H1              2.4573737182      -25.7154251097      -12.9256331047  W2        553             0.0000000000
      1659       553  TIP3      H2              2.3245237182      -26.8479551097      -13.9214131047  W2        553             0.0000000000
      1660       554  TIP3      OH2             0.1811437182      -33.7506051097      -14.0859331047  W2        554             0.0000000000
      1661       554  TIP3      H1              0.1364037182      -32.8112951097      -13.9072331047  W2        554             0.0000000000
      1662       554  TIP3      H2             -0.7065362818      -33.9861151097      -14.3557231047  W2        554             0.0000000000
      1663       555  TIP3      OH2            13.4941037182      -23.0867151097       -4.1499731047  W2        555             0.0000000000
      1664       555  TIP3      H1             13.3385337182      -22.4082751097       -4.8070431047  W2        555             0.0000000000
      1665       555  TIP3      H2             14.4267437182      -23.0147851097       -3.9469131047  W2        555             0.0000000000
      1666       556  TIP3      OH2             0.9893437182      -38.9689451097       -5.4128331047  W2        556             0.0000000000
      1667       556  TIP3      H1              0.7603237182      -38.9096951097       -6.3403331047  W2        556             0.0000000000
      1668       556  TIP3      H2              0.5466837182      -39.7603951097       -5.1064231047  W2        556             0.0000000000
      1669       557  TIP3      OH2            -0.0803262818      -25.0282351097       -9.2522531047  W2        557             0.0000000000
      1670       557  TIP3      H1             -0.9124662818      -24.5559651097       -9.2251131047  W2        557             0.0000000000
      1671       557  TIP3      H2              0.4655037182      -24.5184751097       -9.8509431047  W2        557             0.0000000000
      1672       558  TIP3      OH2            -0.7919562818      -22.4158651097        2.0775468953  W2        558             0.0000000000
      1673       558  TIP3      H1             -0.2517362818      -22.6324651097        2.8374668953  W2        558             0.0000000000
      1674       558  TIP3      H2             -1.2731562818      -23.2212651097        1.8877968953  W2        558             0.0000000000
      1675       559  TIP3      OH2             3.8053837182      -23.4964251097        3.6979668953  W2        559             0.0000000000
      1676       559  TIP3      H1              4.5731037182      -23.9553451097        4.0388868953  W2        559             0.0000000000
      1677       559  TIP3      H2              3.7840037182      -23.7224451097        2.7680868953  W2        559             0.0000000000
      1678       560  TIP3      OH2             7.8973437182      -23.9883651097      -14.9268531047  W2        560             0.0000000000
      1679       560  TIP3      H1              7.2534437182      -24.6195051097      -14.6054831047  W2        560             0.0000000000
      1680       560  TIP3      H2              8.6591737182      -24.5195651097      -15.1585031047  W2        560             0.0000000000
      1681       561  TIP3      OH2            10.3822537182      -25.1163151097        2.4271168953  W2        561             0.0000000000
      1682       561  TIP3      H1             10.0312037182      -25.9730151097        2.6701568953  W2        561             0.0000000000
      1683       561  TIP3      H2             11.1085737182      -24.9736451097        3.0340168953  W2        561             0.0000000000
      1684       562  TIP3      OH2            12.5016337182      -24.1713751097      -14.6930531047  W2        562             0.0000000000
      1685       562  TIP3      H1             12.7846737182      -24.9658551097      -14.2403631047  W2        562             0.0000000000
      1686       562  TIP3      H2             13.2414237182      -23.9382751097      -15.2539431047  W2        562             0.0000000000
      1687       563  TIP3      OH2            -0.8850062818      -28.6054551097        3.0319768953  W2        563             0.0000000000
      1688       563  TIP3      H1             -0.7409562818      -29.5073851097        2.7456468953  W2        563             0.0000000000
      1689       563  TIP3      H2             -1.6572662818      -28.3192451097        2.5442068953  W2        563             0.0000000000
      1690       564  TIP3      OH2             3.4563637182      -28.2618851097      -14.8355631047  W2        564             0.0000000000
      1691       564  TIP3      H1              3.5207737182      -29.0559251097      -14.3049231047  W2        564             0.0000000000
      1692       564  TIP3      H2              4.1092837182      -28.3806051097      -15.5253631047  W2        564             0.0000000000
      1693       565  TIP3      OH2             5.7706037182      -28.6356451097        2.4646168953  W2        565             0.0000000000
      1694       565  TIP3      H1              5.4419837182      -28.3648351097        1.6073568953  W2        565             0.0000000000
      1695       565  TIP3      H2              5.9224237182      -29.5766651097        2.3771168953  W2        565             0.0000000000
      1696       566  TIP3      OH2             8.8087037182      -27.2147151097      -15.0997631047  W2        566             0.0000000000
      1697       566  TIP3      H1              8.5401137182      -27.0345051097      -14.1988731047  W2        566             0.0000000000
      1698       566  TIP3      H2              8.6022637182      -28.1400951097      -15.2311831047  W2        566             0.0000000000
      1699       567  TIP3      OH2            11.5051237182      -28.7199151097       -0.1521531047  W2        567             0.0000000000
      1700       567  TIP3      H1             12.2506037182      -28.1315451097       -0.2717531047  W2        567             0.0000000000
      1701       567  TIP3      H2             10.7478037182      -28.1379451097       -0.0888431047  W2        567             0.0000000000
      1702       568  TIP3      OH2            -0.0523562818      -31.4051251097        2.4519068953  W2        568             0.0000000000
      1703       568  TIP3      H1              0.3557637182      -32.2624651097        2.3309668953  W2        568             0.0000000000
      1704       568  TIP3      H2             -0.3125962818      -31.3909951097        3.3729368953  W2        568             0.0000000000
      1705       569  TIP3      OH2             4.6057437182      -30.2892651097      -12.5297631047  W2        569             0.0000000000
      1706       569  TIP3      H1              4.1459437182      -30.7734351097      -11.8439131047  W2        569             0.0000000000
      1707       569  TIP3      H2              4.8606137182      -30.9577251097      -13.1657131047  W2        569             0.0000000000
      1708       570  TIP3      OH2             3.8946737182      -32.3965551097       -0.1738031047  W2        570             0.0000000000
      1709       570  TIP3      H1              3.2762837182      -31.7218951097        0.1066668953  W2        570             0.0000000000
      1710       570  TIP3      H2              4.2387937182      -32.0751651097       -1.0071831047  W2        570             0.0000000000
      1711       571  TIP3      OH2             5.6767837182      -32.0460851097      -14.2674431047  W2        571             0.0000000000
      1712       571  TIP3      H1              5.4962837182      -32.2009651097      -15.1946131047  W2        571             0.0000000000
      1713       571  TIP3      H2              6.6268337182      -31.9382151097      -14.2226531047  W2        571             0.0000000000
      1714       572  TIP3      OH2             8.9144937182      -29.9250251097        3.1036768953  W2        572             0.0000000000
      1715       572  TIP3      H1              9.8676137182      -29.8411151097        3.0762768953  W2        572             0.0000000000
      1716       572  TIP3      H2              8.7539537182      -30.6368451097        3.7231668953  W2        572             0.0000000000
      1717       573  TIP3      OH2            15.0666137182      -29.6916651097      -14.8216331047  W2        573             0.0000000000
      1718       573  TIP3      H1             14.7930937182      -30.1161151097      -15.6348031047  W2        573             0.0000000000
      1719       573  TIP3      H2             15.1060237182      -28.7602151097      -15.0385931047  W2        573             0.0000000000
      1720       574  TIP3      OH2             4.2340437182      -35.0414751097        0.9085068953  W2        574             0.0000000000
      1721       574  TIP3      H1              4.3841337182      -35.7703451097        0.3064768953  W2        574             0.0000000000
      1722       574  TIP3      H2              4.2362837182      -34.2643051097        0.3497268953  W2        574             0.0000000000
      1723       575  TIP3      OH2             4.6466137182      -36.6718951097       -1.5987531047  W2        575             0.0000000000
      1724       575  TIP3      H1              5.1823637182      -36.2202251097       -2.2508231047  W2        575             0.0000000000
      1725       575  TIP3      H2              3.7945737182      -36.7799151097       -2.0213431047  W2        575             0.0000000000
      1726       576  TIP3      OH2             6.2284537182      -31.2322751097       -1.3592331047  W2        576             0.0000000000
      1727       576  TIP3      H1              6.9789337182      -31.3885251097       -1.9324531047  W2        576             0.0000000000
      1728       576  TIP3      H2              5.8892837182      -30.3806151097       -1.6346831047  W2        576             0.0000000000
      1729       577  TIP3      OH2            10.6440737182      -33.4170951097        3.6692968953  W2        577             0.0000000000
      1730       577  TIP3      H1             10.8362037182      -34.3481551097        3.5577468953  W2        577             0.0000000000
      1731       577  TIP3      H2             11.5017037182      -32.9921451097        3.6588368953  W2        577             0.0000000000
      1732       578  TIP3      OH2            11.9607937182      -30.6285751097        1.7465668953  W2        578             0.0000000000
      1733       578  TIP3      H1             11.6792937182      -29.9191151097        1.1689468953  W2        578             0.0000000000
      1734       578  TIP3      H2             12.9032237182      -30.7012751097        1.5956868953  W2        578             0.0000000000
      1735       579  TIP3      OH2             2.7126737182      -33.8431251097        2.8200668953  W2        579             0.0000000000
      1736       579  TIP3      H1              1.9455737182      -34.3756451097        2.6098268953  W2        579             0.0000000000
      1737       579  TIP3      H2              3.3915737182      -34.1530851097        2.2206968953  W2        579             0.0000000000
      1738       580  TIP3      OH2             5.4521637182      -39.2153251097       -1.1673931047  W2        580             0.0000000000
      1739       580  TIP3      H1              5.3541237182      -38.2690051097       -1.2727731047  W2        580             0.0000000000
      1740       580  TIP3      H2              4.7097837182      -39.5879451097       -1.6430431047  W2        580             0.0000000000
      1741       581  TIP3      OH2             6.7162137182      -34.8937851097        2.3964468953  W2        581             0.0000000000
      1742       581  TIP3      H1              6.4807537182      -35.1131151097        3.2979368953  W2        581             0.0000000000
      1743       581  TIP3      H2              5.9329037182      -35.1006651097        1.8866968953  W2        581             0.0000000000
      1744       582  TIP3      OH2             9.4318737182      -35.7664351097        1.4717968953  W2        582             0.0000000000
      1745       582  TIP3      H1              8.4844137182      -35.7344651097        1.6041268953  W2        582             0.0000000000
      1746       582  TIP3      H2              9.7445437182      -36.3917251097        2.1256168953  W2        582             0.0000000000
      1747       583  TIP3      OH2            11.0660237182      -37.1323251097        3.4769868953  W2        583             0.0000000000
      1748       583  TIP3      H1             10.9692037182      -38.0845951097        3.4711768953  W2        583             0.0000000000
      1749       583  TIP3      H2             10.7443337182      -36.8636451097        4.3375368953  W2        583             0.0000000000
      1750       584  TIP3      OH2             0.8929537182      -35.9227451097        2.5245368953  W2        584             0.0000000000
      1751       584  TIP3      H1              1.1046937182      -36.6291351097        1.9142868953  W2        584             0.0000000000
      1752       584  TIP3      H2              0.7817037182      -36.3601451097        3.3686568953  W2        584             0.0000000000
      1753       585  TIP3      OH2             5.6739737182      -39.9215851097        1.5038868953  W2        585             0.0000000000
      1754       585  TIP3      H1              6.3858137182      -40.5613651097        1.4897968953  W2        585             0.0000000000
      1755       585  TIP3      H2              5.5730137182      -39.6547551097        0.5901968953  W2        585             0.0000000000
      1756       586  TIP3      OH2             6.0277237182      -38.2387451097        3.5575168953  W2        586             0.0000000000
      1757       586  TIP3      H1              5.8959437182      -38.7143651097        2.7373668953  W2        586             0.0000000000
      1758       586  TIP3      H2              5.4284637182      -37.4943851097        3.5022268953  W2        586             0.0000000000
      1759       587  TIP3      OH2             5.5739537182      -21.3557151097      -13.2660831047  W2        587             0.0000000000
      1760       587  TIP3      H1              6.5070237182      -21.1978451097      -13.1222431047  W2        587             0.0000000000
      1761       587  TIP3      H2              5.3098337182      -20.6804151097      -13.8909331047  W2        587             0.0000000000
      1762       588  TIP3      OH2            -0.8575562818      -26.7193351097      -13.7832731047  W2        588             0.0000000000
      1763       588  TIP3      H1              0.0563637182      -26.6404451097      -13.5098831047  W2        588             0.0000000000
      1764       588  TIP3      H2             -0.8502462818      -27.4063751097      -14.4497131047  W2        588             0.0000000000
      1765       589  TIP3      OH2            -2.2084962818      -21.3264851097       -8.7058831047  W2        589             0.0000000000
      1766       589  TIP3      H1             -2.8557862818      -21.7883151097       -9.2387631047  W2        589             0.0000000000
      1767       589  TIP3      H2             -1.8540362818      -21.9981551097       -8.1232631047  W2        589             0.0000000000
      1768       590  TIP3      OH2            -1.3385762818      -23.2457851097       -6.9012631047  W2        590             0.0000000000
      1769       590  TIP3      H1             -1.6728962818      -24.1260551097       -6.7292431047  W2        590             0.0000000000
      1770       590  TIP3      H2             -1.1163362818      -22.9002851097       -6.0367031047  W2        590             0.0000000000
      1771       591  TIP3      OH2            16.2099037182      -22.4361451097       -3.9207831047  W2        591             0.0000000000
      1772       591  TIP3      H1             16.1885737182      -22.2513051097       -2.9818431047  W2        591             0.0000000000
      1773       591  TIP3      H2             16.9005237182      -21.8677451097       -4.2616431047  W2        591             0.0000000000
      1774       592  TIP3      OH2            15.7731937182      -22.8690351097       -0.9988731047  W2        592             0.0000000000
      1775       592  TIP3      H1             15.2860637182      -23.6046251097       -1.3701331047  W2        592             0.0000000000
      1776       592  TIP3      H2             16.3224637182      -23.2626451097       -0.3209331047  W2        592             0.0000000000
      1777       593  TIP3      OH2            14.2239237182      -27.0792251097        3.6391568953  W2        593             0.0000000000
      1778       593  TIP3      H1             13.3580337182      -27.1842551097        4.0333868953  W2        593             0.0000000000
      1779       593  TIP3      H2             14.6005137182      -26.3208951097        4.0856268953  W2        593             0.0000000000
      1780       594  TIP3      OH2            15.5248937182      -28.8228551097      -10.8465931047  W2        594             0.0000000000
      1781       594  TIP3      H1             16.3750337182      -28.4017651097      -10.7194331047  W2        594             0.0000000000
      1782       594  TIP3      H2             15.5304037182      -29.5628451097      -10.2394531047  W2        594             0.0000000000
      1783       595  TIP3      OH2            15.9194537182      -30.7691151097       -9.0230231047  W2        595             0.0000000000
      1784       595  TIP3      H1             15.1929137182      -31.2488551097       -8.6252631047  W2        595             0.0000000000
      1785       595  TIP3      H2             16.5007837182      -30.5636451097       -8.2908631047  W2        595             0.0000000000
      1786       596  TIP3      OH2            15.6785737182      -27.9843651097       -4.0752631047  W2        596             0.0000000000
      1787       596  TIP3      H1             16.5119937182      -28.3623651097       -4.3559031047  W2        596             0.0000000000
      1788       596  TIP3      H2             15.7906037182      -27.0412451097       -4.1943531047  W2        596             0.0000000000
      1789       597  TIP3      OH2            14.1648037182      -25.1066151097       -1.7684231047  W2        597             0.0000000000
      1790       597  TIP3      H1             13.5173337182      -24.7814651097       -1.1429031047  W2        597             0.0000000000
      1791       597  TIP3      H2             13.6472037182      -25.5468451097       -2.4425931047  W2        597             0.0000000000
      1792       598  TIP3      OH2            16.1877637182      -30.8682651097      -12.6318931047  W2        598             0.0000000000
      1793       598  TIP3      H1             15.6658737182      -30.5118551097      -13.3508031047  W2        598             0.0000000000
      1794       598  TIP3      H2             16.1546837182      -30.1934851097      -11.9538031047  W2        598             0.0000000000
      1795       599  TIP3      OH2            14.5366637182      -33.6287051097      -14.0811831047  W2        599             0.0000000000
      1796       599  TIP3      H1             14.6331037182      -32.9620051097      -14.7612131047  W2        599             0.0000000000
      1797       599  TIP3      H2             14.3966237182      -34.4440751097      -14.5626331047  W2        599             0.0000000000
      1798       600  TIP3      OH2            13.7061337182      -32.2484651097       -8.4601531047  W2        600             0.0000000000
      1799       600  TIP3      H1             13.5560137182      -33.1936051097       -8.4803731047  W2        600             0.0000000000
      1800       600  TIP3      H2             13.3525837182      -31.9673251097       -7.6162431047  W2        600             0.0000000000
      1801       601  TIP3      OH2            -1.2586262818      -30.1702451097       -4.4497731047  W2        601             0.0000000000
      1802       601  TIP3      H1             -1.0743362818      -30.2520751097       -5.3854831047  W2        601             0.0000000000
      1803       601  TIP3      H2             -0.4093362818      -30.2945451097       -4.0261331047  W2        601             0.0000000000
      1804       602  TIP3      OH2            14.5624237182      -30.2781351097        1.1786768953  W2        602             0.0000000000
      1805       602  TIP3      H1             15.1451537182      -31.0129051097        1.3703968953  W2        602             0.0000000000
      1806       602  TIP3      H2             15.1263537182      -29.5061051097        1.2252568953  W2        602             0.0000000000
      1807       603  TIP3      OH2            16.0591337182      -32.3755551097        1.8632168953  W2        603             0.0000000000
      1808       603  TIP3      H1             15.1958037182      -32.7543451097        1.6976868953  W2        603             0.0000000000
      1809       603  TIP3      H2             16.6635037182      -33.1140751097        1.7887968953  W2        603             0.0000000000
      1810       604  TIP3      OH2            13.7840437182      -36.2207251097      -14.9636331047  W2        604             0.0000000000
      1811       604  TIP3      H1             14.3946237182      -36.5920451097      -14.3268131047  W2        604             0.0000000000
      1812       604  TIP3      H2             12.9471937182      -36.6420351097      -14.7676331047  W2        604             0.0000000000
      1813       605  TIP3      OH2            13.4166137182      -34.6658851097       -9.9976431047  W2        605             0.0000000000
      1814       605  TIP3      H1             13.6963237182      -35.5728451097       -9.8734731047  W2        605             0.0000000000
      1815       605  TIP3      H2             14.1757837182      -34.2317351097      -10.3867231047  W2        605             0.0000000000
      1816       606  TIP3      OH2            14.0284437182      -34.0841451097       -4.5617531047  W2        606             0.0000000000
      1817       606  TIP3      H1             14.9612437182      -33.8721551097       -4.5961531047  W2        606             0.0000000000
      1818       606  TIP3      H2             13.7931937182      -33.9829351097       -3.6394531047  W2        606             0.0000000000
      1819       607  TIP3      OH2            14.0576337182      -33.3476151097       -1.7858131047  W2        607             0.0000000000
      1820       607  TIP3      H1             13.2147637182      -33.0795751097       -1.4198331047  W2        607             0.0000000000
      1821       607  TIP3      H2             14.5000637182      -32.5254251097       -1.9967031047  W2        607             0.0000000000
      1822       608  TIP3      OH2            -1.6611462818      -34.8997451097        1.6911068953  W2        608             0.0000000000
      1823       608  TIP3      H1             -0.7416562818      -35.0219151097        1.9274168953  W2        608             0.0000000000
      1824       608  TIP3      H2             -2.1106962818      -35.6497751097        2.0804568953  W2        608             0.0000000000
      1825       609  TIP3      OH2            16.3407937182      -39.3675951097        3.5676868953  W2        609             0.0000000000
      1826       609  TIP3      H1             16.6904937182      -40.0212451097        2.9621568953  W2        609             0.0000000000
      1827       609  TIP3      H2             16.4877437182      -38.5301851097        3.1279468953  W2        609             0.0000000000
      1828       610  TIP3      OH2            14.0300937182      -37.4029551097       -9.9494431047  W2        610             0.0000000000
      1829       610  TIP3      H1             14.2125937182      -37.8518051097       -9.1239431047  W2        610             0.0000000000
      1830       610  TIP3      H2             13.4303837182      -37.9875151097      -10.4129831047  W2        610             0.0000000000
      1831       611  TIP3      OH2            -0.4398962818      -36.5875851097       -5.4176031047  W2        611             0.0000000000
      1832       611  TIP3      H1              0.0052637182      -37.3793351097       -5.1156331047  W2        611             0.0000000000
      1833       611  TIP3      H2              0.0264037182      -35.8710651097       -4.9870431047  W2        611             0.0000000000
      1834       612  TIP3      OH2            -2.1358662818      -33.5882851097       -4.3485831047  W2        612             0.0000000000
      1835       612  TIP3      H1             -1.6438862818      -33.8092351097       -5.1393831047  W2        612             0.0000000000
      1836       612  TIP3      H2             -1.7737762818      -32.7479451097       -4.0676331047  W2        612             0.0000000000
      1837       613  TIP3      OH2            15.8605137182      -37.2581351097        1.9168168953  W2        613             0.0000000000
      1838       613  TIP3      H1             14.9430837182      -36.9874251097        1.8811668953  W2        613             0.0000000000
      1839       613  TIP3      H2             15.9834537182      -37.7932951097        1.1327868953  W2        613             0.0000000000
      1840       614  TIP3      OH2            15.8967137182      -37.3351451097      -13.4214131047  W2        614             0.0000000000
      1841       614  TIP3      H1             16.3089737182      -38.0565751097      -13.8966131047  W2        614             0.0000000000
      1842       614  TIP3      H2             16.5783637182      -36.6656851097      -13.3629831047  W2        614             0.0000000000
      1843       615  TIP3      OH2            -1.8222162818      -37.3303751097      -10.2943431047  W2        615             0.0000000000
      1844       615  TIP3      H1             -2.7473762818      -37.1217151097      -10.4237931047  W2        615             0.0000000000
      1845       615  TIP3      H2             -1.3682262818      -36.8462951097      -10.9841131047  W2        615             0.0000000000
      1846       616  TIP3      OH2            12.9485037182      -22.3462051097       -8.3486031047  W2        616             0.0000000000
      1847       616  TIP3      H1             13.6007937182      -22.6939951097       -8.9566931047  W2        616             0.0000000000
      1848       616  TIP3      H2             13.4588837182      -21.8578851097       -7.7026331047  W2        616             0.0000000000
      1849       617  TIP3      OH2            -1.8586762818      -38.5924751097       -1.9500931047  W2        617             0.0000000000
      1850       617  TIP3      H1             -2.5236262818      -38.8384451097       -1.3070031047  W2        617             0.0000000000
      1851       617  TIP3      H2             -2.3015462818      -37.9704351097       -2.5272931047  W2        617             0.0000000000
      1852       618  TIP3      OH2             0.3332537182      -25.4170651097        2.1944868953  W2        618             0.0000000000
      1853       618  TIP3      H1             -0.4874962818      -25.2424151097        1.7339568953  W2        618             0.0000000000
      1854       618  TIP3      H2              0.0810337182      -25.4905951097        3.1149268953  W2        618             0.0000000000
      1855       619  TIP3      OH2             3.2875437182      -24.4429451097       -1.5471131047  W2        619             0.0000000000
      1856       619  TIP3      H1              2.8626537182      -23.6330951097       -1.8296531047  W2        619             0.0000000000
      1857       619  TIP3      H2              4.1918237182      -24.3575351097       -1.8491331047  W2        619             0.0000000000
      1858       620  TIP3      OH2             7.5986837182      -23.0439451097        1.4122568953  W2        620             0.0000000000
      1859       620  TIP3      H1              7.7834337182      -23.3773351097        2.2902868953  W2        620             0.0000000000
      1860       620  TIP3      H2              8.4451337182      -22.7340851097        1.0901768953  W2        620             0.0000000000
      1861       621  TIP3      OH2             9.9437237182      -21.7580551097        0.6563968953  W2        621             0.0000000000
      1862       621  TIP3      H1             10.6206137182      -22.3908251097        0.4163168953  W2        621             0.0000000000
      1863       621  TIP3      H2             10.2656037182      -21.3570051097        1.4637268953  W2        621             0.0000000000
      1864       622  TIP3      OH2            14.8611037182      -39.1685051097       -0.2641031047  W2        622             0.0000000000
      1865       622  TIP3      H1             14.0484537182      -38.8434751097       -0.6516331047  W2        622             0.0000000000
      1866       622  TIP3      H2             15.0939537182      -39.9286551097       -0.7971931047  W2        622             0.0000000000
      1867       623  TIP3      OH2             0.6892137182      -21.1865551097       -1.4995831047  W2        623             0.0000000000
      1868       623  TIP3      H1             -0.0311462818      -20.7464551097       -1.9508131047  W2        623             0.0000000000
      1869       623  TIP3      H2              0.3236137182      -21.4370851097       -0.6511831047  W2        623             0.0000000000
      1870       624  TIP3      OH2             3.1564737182      -21.5861651097       -2.4698631047  W2        624             0.0000000000
      1871       624  TIP3      H1              2.2916937182      -21.5143151097       -2.0658531047  W2        624             0.0000000000
      1872       624  TIP3      H2              3.1013737182      -21.0394351097       -3.2536131047  W2        624             0.0000000000
      1873       625  TIP3      OH2             7.8670337182      -21.6982751097       -3.2942631047  W2        625             0.0000000000
      1874       625  TIP3      H1              7.4104337182      -21.1693051097       -3.9484231047  W2        625             0.0000000000
      1875       625  TIP3      H2              8.0298337182      -21.0951351097       -2.5690331047  W2        625             0.0000000000
      1876       626  TIP3      OH2            10.1946637182      -22.8203151097       -2.3492331047  W2        626             0.0000000000
      1877       626  TIP3      H1              9.2900337182      -22.6552951097       -2.6150231047  W2        626             0.0000000000
      1878       626  TIP3      H2             10.6235237182      -21.9670951097       -2.4148931047  W2        626             0.0000000000
      1879       627  TIP3      OH2            12.7988537182      -21.2504051097       -2.0544531047  W2        627             0.0000000000
      1880       627  TIP3      H1             12.6170537182      -20.3345151097       -2.2649631047  W2        627             0.0000000000
      1881       627  TIP3      H2             12.9756337182      -21.6606951097       -2.9009931047  W2        627             0.0000000000
      1882       628  TIP3      OH2             0.1040237182      -22.5633051097       -4.5894031047  W2        628             0.0000000000
      1883       628  TIP3      H1              0.0856237182      -22.9887951097       -3.7321731047  W2        628             0.0000000000
      1884       628  TIP3      H2              0.9088137182      -22.8818051097       -4.9981831047  W2        628             0.0000000000
      1885       629  TIP3      OH2             2.2453337182      -23.8534351097       -5.9344131047  W2        629             0.0000000000
      1886       629  TIP3      H1              2.0264037182      -24.7696951097       -5.7648131047  W2        629             0.0000000000
      1887       629  TIP3      H2              3.0695537182      -23.7133951097       -5.4682731047  W2        629             0.0000000000
      1888       630  TIP3      OH2             4.7825837182      -23.3835051097       -5.0856131047  W2        630             0.0000000000
      1889       630  TIP3      H1              4.9951537182      -24.2716051097       -5.3725231047  W2        630             0.0000000000
      1890       630  TIP3      H2              4.8470937182      -23.4177351097       -4.1312131047  W2        630             0.0000000000
      1891       631  TIP3      OH2             8.2909537182      -37.7194451097       -5.9412831047  W2        631             0.0000000000
      1892       631  TIP3      H1              7.6166337182      -38.3488851097       -5.6857031047  W2        631             0.0000000000
      1893       631  TIP3      H2              8.8548737182      -38.2035551097       -6.5444931047  W2        631             0.0000000000
      1894       632  TIP3      OH2            13.4336737182      -39.6120451097       -5.8285731047  W2        632             0.0000000000
      1895       632  TIP3      H1             14.0374337182      -39.0645051097       -6.3304731047  W2        632             0.0000000000
      1896       632  TIP3      H2             12.5638737182      -39.2930051097       -6.0691631047  W2        632             0.0000000000
      1897       633  TIP3      OH2            15.1607137182      -38.4731751097       -7.4954831047  W2        633             0.0000000000
      1898       633  TIP3      H1             15.7724637182      -38.9876051097       -8.0221231047  W2        633             0.0000000000
      1899       633  TIP3      H2             15.5430537182      -37.5959651097       -7.4720431047  W2        633             0.0000000000
      1900       634  TIP3      OH2             0.6177037182      -39.0854151097       -8.1192931047  W2        634             0.0000000000
      1901       634  TIP3      H1             -0.1593162818      -39.3199251097       -8.6267031047  W2        634             0.0000000000
      1902       634  TIP3      H2              1.1480637182      -39.8822051097       -8.1104931047  W2        634             0.0000000000
      1903       635  TIP3      OH2            -0.5459562818      -39.2876051097      -12.3156831047  W2        635             0.0000000000
      1904       635  TIP3      H1             -0.1068862818      -38.6765551097      -12.9073331047  W2        635             0.0000000000
      1905       635  TIP3      H2             -1.1797162818      -38.7491951097      -11.8416831047  W2        635             0.0000000000
      1906       636  TIP3      OH2             5.1969637182      -39.1587051097       -8.3059831047  W2        636             0.0000000000
      1907       636  TIP3      H1              6.0713037182      -38.7702751097       -8.3355531047  W2        636             0.0000000000
      1908       636  TIP3      H2              5.0610437182      -39.3739251097       -7.3832631047  W2        636             0.0000000000
      1909       637  TIP3      OH2            10.7538037182      -39.1287251097       -6.6568131047  W2        637             0.0000000000
      1910       637  TIP3      H1             10.8299637182      -39.0335651097       -7.6062131047  W2        637             0.0000000000
      1911       637  TIP3      H2             10.4787237182      -40.0364351097       -6.5279031047  W2        637             0.0000000000
      1912       638  TIP3      OH2            12.1070637182      -39.1029451097      -10.9643131047  W2        638             0.0000000000
      1913       638  TIP3      H1             11.4041737182      -38.4880251097      -11.1741731047  W2        638             0.0000000000
      1914       638  TIP3      H2             11.6622037182      -39.9402751097      -10.8332231047  W2        638             0.0000000000
      1915       639  TIP3      OH2            -0.6450062818      -23.3393851097      -11.4181731047  W2        639             0.0000000000
      1916       639  TIP3      H1             -1.3300162818      -23.3774951097      -12.0856631047  W2        639             0.0000000000
      1917       639  TIP3      H2             -0.6412862818      -22.4266251097      -11.1299631047  W2        639             0.0000000000
      1918       640  TIP3      OH2             1.3149537182      -37.3714551097      -13.8732731047  W2        640             0.0000000000
      1919       640  TIP3      H1              1.8062937182      -38.0012151097      -14.4007231047  W2        640             0.0000000000
      1920       640  TIP3      H2              1.9385837182      -37.0755151097      -13.2101531047  W2        640             0.0000000000
      1921       641  TIP3      OH2             6.3409637182      -37.0783051097      -11.4162231047  W2        641             0.0000000000
      1922       641  TIP3      H1              6.5190937182      -37.7249851097      -10.7333631047  W2        641             0.0000000000
      1923       641  TIP3      H2              6.2875837182      -36.2445351097      -10.9491131047  W2        641             0.0000000000
      1924       642  TIP3      OH2             8.2193437182      -22.1298951097      -13.0205531047  W2        642             0.0000000000
      1925       642  TIP3      H1              9.0853637182      -21.7631551097      -13.1987331047  W2        642             0.0000000000
      1926       642  TIP3      H2              7.9726237182      -22.5690951097      -13.8344731047  W2        642             0.0000000000
      1927       643  TIP3      OH2            14.9283037182      -22.5668651097      -10.3414431047  W2        643             0.0000000000
      1928       643  TIP3      H1             14.7340137182      -23.3146551097      -10.9064831047  W2        643             0.0000000000
      1929       643  TIP3      H2             14.8893137182      -21.8088551097      -10.9246531047  W2        643             0.0000000000
      1930       644  TIP3      OH2             0.5755037182      -38.5712251097        1.3983268953  W2        644             0.0000000000
      1931       644  TIP3      H1              0.2093237182      -39.3369651097        1.8407968953  W2        644             0.0000000000
      1932       644  TIP3      H2              1.4883537182      -38.5422051097        1.6848368953  W2        644             0.0000000000
      1933       645  TIP3      OH2             2.5485837182      -39.2207851097        2.9340368953  W2        645             0.0000000000
      1934       645  TIP3      H1              3.4469437182      -39.4947651097        2.7493768953  W2        645             0.0000000000
      1935       645  TIP3      H2              2.1618937182      -39.9631851097        3.3982968953  W2        645             0.0000000000
      1936       646  TIP3      OH2             1.1731137182      -22.4193051097      -14.3929631047  W2        646             0.0000000000
      1937       646  TIP3      H1              0.9055737182      -22.1330151097      -13.5196531047  W2        646             0.0000000000
      1938       646  TIP3      H2              1.9443737182      -22.9653851097      -14.2407131047  W2        646             0.0000000000
      1939       647  TIP3      OH2            10.9698137182      -39.8882551097        3.1163168953  W2        647             0.0000000000
      1940       647  TIP3      H1             11.0465337182      -40.3141851097        3.9700868953  W2        647             0.0000000000
      1941       647  TIP3      H2             11.8634737182      -39.8747851097        2.7736668953  W2        647             0.0000000000
      1942       648  TIP3      OH2            14.1459237182      -23.8156251097        1.8087368953  W2        648             0.0000000000
      1943       648  TIP3      H1             13.3641137182      -24.0018251097        1.2887968953  W2        648             0.0000000000
      1944       648  TIP3      H2             14.0739137182      -22.8861951097        2.0259868953  W2        648             0.0000000000
      1945       649  TIP3      OH2            28.5519637182      -29.9291851097       -8.1605431047  W2        649             0.0000000000
      1946       649  TIP3      H1             28.6410737182      -28.9853651097       -8.2928331047  W2        649             0.0000000000
      1947       649  TIP3      H2             27.9137237182      -30.2045451097       -8.8186031047  W2        649             0.0000000000
      1948       650  TIP3      OH2            27.4850937182      -30.6741151097       -4.7417231047  W2        650             0.0000000000
      1949       650  TIP3      H1             27.4468437182      -31.3204851097       -4.0367631047  W2        650             0.0000000000
      1950       650  TIP3      H2             27.1627437182      -31.1406751097       -5.5128531047  W2        650             0.0000000000
      1951       651  TIP3      OH2            19.8535937182      -31.0599051097       -3.1487331047  W2        651             0.0000000000
      1952       651  TIP3      H1             19.8948037182      -31.6855751097       -2.4254931047  W2        651             0.0000000000
      1953       651  TIP3      H2             20.5563637182      -30.4360451097       -2.9666931047  W2        651             0.0000000000
      1954       652  TIP3      OH2            31.1911137182      -27.7350751097       -6.4402131047  W2        652             0.0000000000
      1955       652  TIP3      H1             30.7503837182      -28.4554751097       -5.9896531047  W2        652             0.0000000000
      1956       652  TIP3      H2             31.1780837182      -27.0143551097       -5.8104431047  W2        652             0.0000000000
      1957       653  TIP3      OH2            20.7769037182      -26.6100151097       -4.6138231047  W2        653             0.0000000000
      1958       653  TIP3      H1             20.4074237182      -27.4119651097       -4.9833931047  W2        653             0.0000000000
      1959       653  TIP3      H2             21.7180137182      -26.7785251097       -4.5674831047  W2        653             0.0000000000
      1960       654  TIP3      OH2            17.3869537182      -32.9497551097       -9.2209431047  W2        654             0.0000000000
      1961       654  TIP3      H1             16.9392937182      -32.1038851097       -9.2392931047  W2        654             0.0000000000
      1962       654  TIP3      H2             16.8260737182      -33.5293351097       -9.7364331047  W2        654             0.0000000000
      1963       655  TIP3      OH2            18.0975637182      -30.7877951097       -7.0951431047  W2        655             0.0000000000
      1964       655  TIP3      H1             18.3109137182      -31.5576351097       -6.5678431047  W2        655             0.0000000000
      1965       655  TIP3      H2             18.8353237182      -30.6981251097       -7.6983831047  W2        655             0.0000000000
      1966       656  TIP3      OH2            28.3026637182      -22.6309051097       -6.2281731047  W2        656             0.0000000000
      1967       656  TIP3      H1             28.9223037182      -23.3074351097       -6.5012531047  W2        656             0.0000000000
      1968       656  TIP3      H2             28.0944037182      -22.8488251097       -5.3196831047  W2        656             0.0000000000
      1969       657  TIP3      OH2            25.8745337182      -28.2419751097       -4.3356231047  W2        657             0.0000000000
      1970       657  TIP3      H1             26.1783237182      -28.9278351097       -4.9302131047  W2        657             0.0000000000
      1971       657  TIP3      H2             26.5959337182      -28.1231051097       -3.7178231047  W2        657             0.0000000000
      1972       658  TIP3      OH2            34.5375137182      -36.6404451097       -3.4750031047  W2        658             0.0000000000
      1973       658  TIP3      H1             34.5867337182      -36.0303251097       -2.7390931047  W2        658             0.0000000000
      1974       658  TIP3      H2             34.9630237182      -36.1793551097       -4.1978931047  W2        658             0.0000000000
      1975       659  TIP3      OH2            29.0152337182      -33.8477351097       -4.0081431047  W2        659             0.0000000000
      1976       659  TIP3      H1             29.1578237182      -34.7940351097       -3.9879831047  W2        659             0.0000000000
      1977       659  TIP3      H2             28.9091337182      -33.6407551097       -4.9366531047  W2        659             0.0000000000
      1978       660  TIP3      OH2            22.1700637182      -35.7460951097       -6.7356631047  W2        660             0.0000000000
      1979       660  TIP3      H1             22.2131737182      -34.8862451097       -7.1540331047  W2        660             0.0000000000
      1980       660  TIP3      H2             21.7124737182      -36.2986251097       -7.3693431047  W2        660             0.0000000000
      1981       661  TIP3      OH2            29.8923337182      -35.6155351097       -8.3348331047  W2        661             0.0000000000
      1982       661  TIP3      H1             30.5387637182      -35.9442151097       -7.7100731047  W2        661             0.0000000000
      1983       661  TIP3      H2             30.4022737182      -35.0976351097       -8.9576931047  W2        661             0.0000000000
      1984       662  TIP3      OH2            18.7902137182      -33.3495151097       -5.9735231047  W2        662             0.0000000000
      1985       662  TIP3      H1             19.4438737182      -33.8993451097       -5.5415131047  W2        662             0.0000000000
      1986       662  TIP3      H2             18.8141437182      -33.6236151097       -6.8903231047  W2        662             0.0000000000
      1987       663  TIP3      OH2            23.9466637182      -31.7993851097       -6.7583731047  W2        663             0.0000000000
      1988       663  TIP3      H1             24.5627637182      -32.3258451097       -6.2489731047  W2        663             0.0000000000
      1989       663  TIP3      H2             23.3605437182      -32.4395151097       -7.1620131047  W2        663             0.0000000000
      1990       664  TIP3      OH2            34.9289737182      -35.1625251097       -1.2390231047  W2        664             0.0000000000
      1991       664  TIP3      H1             34.2404337182      -34.5044551097       -1.3343631047  W2        664             0.0000000000
      1992       664  TIP3      H2             34.9444337182      -35.3597351097       -0.3024831047  W2        664             0.0000000000
      1993       665  TIP3      OH2            20.9802537182      -36.8282551097       -2.6615831047  W2        665             0.0000000000
      1994       665  TIP3      H1             20.7614237182      -36.2981951097       -3.4279831047  W2        665             0.0000000000
      1995       665  TIP3      H2             20.3123437182      -36.6017051097       -2.0144431047  W2        665             0.0000000000
      1996       666  TIP3      OH2            28.3492337182      -27.3281451097       -9.1176731047  W2        666             0.0000000000
      1997       666  TIP3      H1             28.0537437182      -27.6509151097       -9.9689831047  W2        666             0.0000000000
      1998       666  TIP3      H2             28.0250137182      -26.4284751097       -9.0764131047  W2        666             0.0000000000
      1999       667  TIP3      OH2            23.5493937182      -29.1526851097       -2.3742131047  W2        667             0.0000000000
      2000       667  TIP3      H1             22.8093037182      -28.5545351097       -2.2706931047  W2        667             0.0000000000
      2001       667  TIP3      H2             24.2633437182      -28.5987251097       -2.6898531047  W2        667             0.0000000000
      2002       668  TIP3      OH2            31.6561737182      -36.3246051097       -6.3542431047  W2        668             0.0000000000
      2003       668  TIP3      H1             31.4409737182      -37.0902651097       -5.8216431047  W2        668             0.0000000000
      2004       668  TIP3      H2             32.3119137182      -35.8521451097       -5.8413931047  W2        668             0.0000000000
      2005       669  TIP3      OH2            20.5739837182      -34.9360751097       -4.7093631047  W2        669             0.0000000000
      2006       669  TIP3      H1             21.1876137182      -34.3033151097       -4.3361231047  W2        669             0.0000000000
      2007       669  TIP3      H2             21.0860537182      -35.4085751097       -5.3656731047  W2        669             0.0000000000
      2008       670  TIP3      OH2            21.9568237182      -27.1883851097       -1.5870631047  W2        670             0.0000000000
      2009       670  TIP3      H1             21.9515837182      -26.3090351097       -1.9651331047  W2        670             0.0000000000
      2010       670  TIP3      H2             21.1032337182      -27.2719751097       -1.1620731047  W2        670             0.0000000000
      2011       671  TIP3      OH2            18.0779137182      -27.5175951097      -10.8051331047  W2        671             0.0000000000
      2012       671  TIP3      H1             17.8060037182      -27.2884951097      -11.6938431047  W2        671             0.0000000000
      2013       671  TIP3      H2             18.1234837182      -26.6797151097      -10.3446031047  W2        671             0.0000000000
      2014       672  TIP3      OH2            31.7028837182      -25.8960051097       -4.0922831047  W2        672             0.0000000000
      2015       672  TIP3      H1             30.7612537182      -25.8376151097       -3.9305931047  W2        672             0.0000000000
      2016       672  TIP3      H2             31.9794937182      -24.9899551097       -4.2293131047  W2        672             0.0000000000
      2017       673  TIP3      OH2            32.0035837182      -37.6094751097       -2.6748931047  W2        673             0.0000000000
      2018       673  TIP3      H1             31.2675037182      -36.9987651097       -2.7127631047  W2        673             0.0000000000
      2019       673  TIP3      H2             32.6869837182      -37.1945751097       -3.2012531047  W2        673             0.0000000000
      2020       674  TIP3      OH2            25.0067237182      -39.5227451097       -5.2090931047  W2        674             0.0000000000
      2021       674  TIP3      H1             24.8891437182      -40.4711451097       -5.2632631047  W2        674             0.0000000000
      2022       674  TIP3      H2             24.1517337182      -39.1901351097       -4.9359831047  W2        674             0.0000000000
      2023       675  TIP3      OH2            29.9550037182      -24.1146551097       -7.4671231047  W2        675             0.0000000000
      2024       675  TIP3      H1             30.3802337182      -24.8218651097       -7.9521631047  W2        675             0.0000000000
      2025       675  TIP3      H2             30.2720037182      -23.3133851097       -7.8839031047  W2        675             0.0000000000
      2026       676  TIP3      OH2            31.1146537182      -26.2138051097       -8.9584631047  W2        676             0.0000000000
      2027       676  TIP3      H1             30.8571337182      -26.9037951097       -9.5698731047  W2        676             0.0000000000
      2028       676  TIP3      H2             31.1857337182      -26.6566851097       -8.1128731047  W2        676             0.0000000000
      2029       677  TIP3      OH2            32.8006737182      -27.6471351097       -0.4811131047  W2        677             0.0000000000
      2030       677  TIP3      H1             32.9403037182      -28.2388851097       -1.2204131047  W2        677             0.0000000000
      2031       677  TIP3      H2             32.9679537182      -26.7745451097       -0.8372331047  W2        677             0.0000000000
      2032       678  TIP3      OH2            27.2732137182      -30.6851851097      -10.7085131047  W2        678             0.0000000000
      2033       678  TIP3      H1             26.5617637182      -30.1502151097      -11.0604631047  W2        678             0.0000000000
      2034       678  TIP3      H2             27.9641737182      -30.6299751097      -11.3686231047  W2        678             0.0000000000
      2035       679  TIP3      OH2            27.3271337182      -32.2277551097      -13.6700131047  W2        679             0.0000000000
      2036       679  TIP3      H1             28.0281237182      -32.2050651097      -13.0186131047  W2        679             0.0000000000
      2037       679  TIP3      H2             27.6294237182      -32.8557851097      -14.3260831047  W2        679             0.0000000000
      2038       680  TIP3      OH2            34.6426037182      -31.3073351097       -2.4150731047  W2        680             0.0000000000
      2039       680  TIP3      H1             33.9900137182      -30.6127751097       -2.3259831047  W2        680             0.0000000000
      2040       680  TIP3      H2             35.1076337182      -31.0972451097       -3.2249131047  W2        680             0.0000000000
      2041       681  TIP3      OH2            30.6789837182      -30.4758551097       -9.7569231047  W2        681             0.0000000000
      2042       681  TIP3      H1             29.9470837182      -30.2474851097       -9.1838631047  W2        681             0.0000000000
      2043       681  TIP3      H2             31.1262037182      -31.1895851097       -9.3021731047  W2        681             0.0000000000
      2044       682  TIP3      OH2            30.5763337182      -32.3015951097       -0.6892231047  W2        682             0.0000000000
      2045       682  TIP3      H1             30.6562437182      -31.5381551097       -0.1173731047  W2        682             0.0000000000
      2046       682  TIP3      H2             29.9751037182      -32.0223551097       -1.3797131047  W2        682             0.0000000000
      2047       683  TIP3      OH2            22.3243537182      -29.8452351097       -7.8744231047  W2        683             0.0000000000
      2048       683  TIP3      H1             21.9938737182      -30.2158951097       -8.6927231047  W2        683             0.0000000000
      2049       683  TIP3      H2             22.9127637182      -30.5158351097       -7.5275931047  W2        683             0.0000000000
      2050       684  TIP3      OH2            23.6911037182      -26.4171751097       -5.1932031047  W2        684             0.0000000000
      2051       684  TIP3      H1             23.5962337182      -26.9958651097       -5.9497431047  W2        684             0.0000000000
      2052       684  TIP3      H2             24.4204637182      -26.7886051097       -4.6969231047  W2        684             0.0000000000
      2053       685  TIP3      OH2            22.6909037182      -31.0766751097       -4.2409231047  W2        685             0.0000000000
      2054       685  TIP3      H1             23.2561537182      -30.9552551097       -5.0038031047  W2        685             0.0000000000
      2055       685  TIP3      H2             23.0097937182      -30.4391751097       -3.6020731047  W2        685             0.0000000000
      2056       686  TIP3      OH2            29.0001237182      -25.5734851097       -3.5068731047  W2        686             0.0000000000
      2057       686  TIP3      H1             28.7597837182      -24.9111751097       -2.8589531047  W2        686             0.0000000000
      2058       686  TIP3      H2             28.8019437182      -26.4079651097       -3.0819131047  W2        686             0.0000000000
      2059       687  TIP3      OH2            23.5709737182      -26.6774051097        0.4762668953  W2        687             0.0000000000
      2060       687  TIP3      H1             23.2597237182      -25.8950851097        0.9315868953  W2        687             0.0000000000
      2061       687  TIP3      H2             22.9209937182      -26.8304951097       -0.2095331047  W2        687             0.0000000000
      2062       688  TIP3      OH2            29.5499337182      -31.3135651097      -12.0718031047  W2        688             0.0000000000
      2063       688  TIP3      H1             30.1294837182      -31.1635351097      -11.3249131047  W2        688             0.0000000000
      2064       688  TIP3      H2             29.9639337182      -30.8428251097      -12.7951631047  W2        688             0.0000000000
      2065       689  TIP3      OH2            20.4909637182      -30.4792951097       -0.2951631047  W2        689             0.0000000000
      2066       689  TIP3      H1             20.5612837182      -29.8286151097        0.4033368953  W2        689             0.0000000000
      2067       689  TIP3      H2             19.6001837182      -30.3765451097       -0.6300731047  W2        689             0.0000000000
      2068       690  TIP3      OH2            27.2764237182      -24.5767151097       -8.6364931047  W2        690             0.0000000000
      2069       690  TIP3      H1             27.7501837182      -24.2810851097       -7.8590731047  W2        690             0.0000000000
      2070       690  TIP3      H2             26.7133537182      -23.8385551097       -8.8695331047  W2        690             0.0000000000
      2071       691  TIP3      OH2            21.8105637182      -24.6059051097        1.2396468953  W2        691             0.0000000000
      2072       691  TIP3      H1             21.8180937182      -24.7419351097        0.2921968953  W2        691             0.0000000000
      2073       691  TIP3      H2             20.8946037182      -24.7230951097        1.4916468953  W2        691             0.0000000000
      2074       692  TIP3      OH2            33.2487737182      -39.5635251097      -12.2588331047  W2        692             0.0000000000
      2075       692  TIP3      H1             32.3488437182      -39.4246251097      -11.9637731047  W2        692             0.0000000000
      2076       692  TIP3      H2             33.5006137182      -38.7320651097      -12.6606631047  W2        692             0.0000000000
      2077       693  TIP3      OH2            21.3146237182      -30.7758051097      -10.2851431047  W2        693             0.0000000000
      2078       693  TIP3      H1             21.0227537182      -30.0076351097      -10.7760131047  W2        693             0.0000000000
      2079       693  TIP3      H2             20.6401437182      -31.4351851097      -10.4480031047  W2        693             0.0000000000
      2080       694  TIP3      OH2            34.4379137182      -25.1972851097      -13.8824431047  W2        694             0.0000000000
      2081       694  TIP3      H1             34.5112637182      -24.2582651097      -13.7119131047  W2        694             0.0000000000
      2082       694  TIP3      H2             35.3434237182      -25.5024251097      -13.9387131047  W2        694             0.0000000000
      2083       695  TIP3      OH2            17.4076337182      -28.4128851097       -1.4701631047  W2        695             0.0000000000
      2084       695  TIP3      H1             16.9064737182      -28.4409451097       -2.2851931047  W2        695             0.0000000000
      2085       695  TIP3      H2             17.4130037182      -29.3185651097       -1.1604331047  W2        695             0.0000000000
      2086       696  TIP3      OH2            17.1579037182      -25.6325051097       -4.5861431047  W2        696             0.0000000000
      2087       696  TIP3      H1             18.1039637182      -25.7768051097       -4.6051931047  W2        696             0.0000000000
      2088       696  TIP3      H2             17.0455337182      -24.8482251097       -4.0490231047  W2        696             0.0000000000
      2089       697  TIP3      OH2            35.3557537182      -24.9665351097        1.0962268953  W2        697             0.0000000000
      2090       697  TIP3      H1             35.3064337182      -25.9217251097        1.0589868953  W2        697             0.0000000000
      2091       697  TIP3      H2             34.5289837182      -24.6990051097        1.4976068953  W2        697             0.0000000000
      2092       698  TIP3      OH2            26.3341537182      -25.3926151097       -0.0276331047  W2        698             0.0000000000
      2093       698  TIP3      H1             26.4216137182      -24.5661551097        0.4472768953  W2        698             0.0000000000
      2094       698  TIP3      H2             25.4706637182      -25.7222351097        0.2212968953  W2        698             0.0000000000
      2095       699  TIP3      OH2            26.7487337182      -21.6202451097      -10.2215731047  W2        699             0.0000000000
      2096       699  TIP3      H1             26.6733337182      -21.7415251097      -11.1680531047  W2        699             0.0000000000
      2097       699  TIP3      H2             26.7816037182      -20.6709751097      -10.1031131047  W2        699             0.0000000000
      2098       700  TIP3      OH2            20.4021137182      -22.8315451097       -8.4406731047  W2        700             0.0000000000
      2099       700  TIP3      H1             20.5541537182      -23.1795051097       -7.5620231047  W2        700             0.0000000000
      2100       700  TIP3      H2             19.5511537182      -23.1878151097       -8.6959531047  W2        700             0.0000000000
      2101       701  TIP3      OH2            29.8503337182      -22.4662251097      -13.2193331047  W2        701             0.0000000000
      2102       701  TIP3      H1             30.2251737182      -23.2106151097      -13.6900731047  W2        701             0.0000000000
      2103       701  TIP3      H2             29.8547037182      -22.7361651097      -12.3010031047  W2        701             0.0000000000
      2104       702  TIP3      OH2            29.5191437182      -22.5405151097      -10.4701131047  W2        702             0.0000000000
      2105       702  TIP3      H1             28.5841237182      -22.4403251097      -10.2914131047  W2        702             0.0000000000
      2106       702  TIP3      H2             29.7993337182      -23.2499151097       -9.8917931047  W2        702             0.0000000000
      2107       703  TIP3      OH2            32.5077337182      -33.4732851097        1.5764468953  W2        703             0.0000000000
      2108       703  TIP3      H1             32.1004137182      -32.9927251097        0.8557768953  W2        703             0.0000000000
      2109       703  TIP3      H2             32.5483037182      -34.3786851097        1.2685268953  W2        703             0.0000000000
      2110       704  TIP3      OH2            19.6566837182      -27.0893451097       -0.4268831047  W2        704             0.0000000000
      2111       704  TIP3      H1             19.8728137182      -27.4507851097        0.4326968953  W2        704             0.0000000000
      2112       704  TIP3      H2             18.8011537182      -27.4639651097       -0.6365331047  W2        704             0.0000000000
      2113       705  TIP3      OH2            22.2754837182      -38.6192951097       -4.4314631047  W2        705             0.0000000000
      2114       705  TIP3      H1             21.4138537182      -38.7064751097       -4.8391731047  W2        705             0.0000000000
      2115       705  TIP3      H2             22.2530537182      -37.7632851097       -4.0037031047  W2        705             0.0000000000
      2116       706  TIP3      OH2            26.9382637182      -38.8972551097       -1.0567631047  W2        706             0.0000000000
      2117       706  TIP3      H1             27.3585737182      -39.3125451097       -0.3037031047  W2        706             0.0000000000
      2118       706  TIP3      H2             26.0052237182      -39.0759251097       -0.9395631047  W2        706             0.0000000000
      2119       707  TIP3      OH2            30.2647537182      -35.1417351097       -0.2033131047  W2        707             0.0000000000
      2120       707  TIP3      H1             29.7507037182      -35.2675151097        0.5942868953  W2        707             0.0000000000
      2121       707  TIP3      H2             30.1092237182      -34.2294251097       -0.4476931047  W2        707             0.0000000000
      2122       708  TIP3      OH2            31.0272437182      -30.2807351097      -14.4420131047  W2        708             0.0000000000
      2123       708  TIP3      H1             31.0693237182      -30.5033451097      -15.3720131047  W2        708             0.0000000000
      2124       708  TIP3      H2             31.8764537182      -29.8820251097      -14.2520231047  W2        708             0.0000000000
      2125       709  TIP3      OH2            26.5999937182      -36.4049151097      -13.7716831047  W2        709             0.0000000000
      2126       709  TIP3      H1             26.3464737182      -36.3857551097      -12.8488731047  W2        709             0.0000000000
      2127       709  TIP3      H2             26.3432037182      -37.2763751097      -14.0730631047  W2        709             0.0000000000
      2128       710  TIP3      OH2            22.3664937182      -33.6538451097       -3.3364431047  W2        710             0.0000000000
      2129       710  TIP3      H1             21.7247037182      -33.6941151097       -2.6274331047  W2        710             0.0000000000
      2130       710  TIP3      H2             22.4036937182      -32.7273751097       -3.5741431047  W2        710             0.0000000000
      2131       711  TIP3      OH2            22.3634037182      -33.4328351097       -8.4244431047  W2        711             0.0000000000
      2132       711  TIP3      H1             21.4706937182      -33.7732251097       -8.4830631047  W2        711             0.0000000000
      2133       711  TIP3      H2             22.8140637182      -33.8097451097       -9.1801231047  W2        711             0.0000000000
      2134       712  TIP3      OH2            27.8989537182      -33.0168051097       -9.6073631047  W2        712             0.0000000000
      2135       712  TIP3      H1             27.4899837182      -32.2019451097       -9.8988831047  W2        712             0.0000000000
      2136       712  TIP3      H2             28.6195737182      -33.1567951097      -10.2216531047  W2        712             0.0000000000
      2137       713  TIP3      OH2            27.0011137182      -32.8411651097        1.8807068953  W2        713             0.0000000000
      2138       713  TIP3      H1             26.4384937182      -33.5460051097        2.2014868953  W2        713             0.0000000000
      2139       713  TIP3      H2             27.8274537182      -32.9619751097        2.3484668953  W2        713             0.0000000000
      2140       714  TIP3      OH2            28.9037237182      -33.5707651097       -6.7933931047  W2        714             0.0000000000
      2141       714  TIP3      H1             28.7081737182      -32.9650851097       -7.5083331047  W2        714             0.0000000000
      2142       714  TIP3      H2             29.0849837182      -34.4042451097       -7.2277631047  W2        714             0.0000000000
      2143       715  TIP3      OH2            20.1165437182      -33.3334951097       -1.4692431047  W2        715             0.0000000000
      2144       715  TIP3      H1             20.0784837182      -32.9333351097       -0.6005331047  W2        715             0.0000000000
      2145       715  TIP3      H2             19.6256537182      -34.1502551097       -1.3789531047  W2        715             0.0000000000
      2146       716  TIP3      OH2            23.4822837182      -35.9592651097      -14.6706431047  W2        716             0.0000000000
      2147       716  TIP3      H1             23.0513537182      -36.4042551097      -13.9409031047  W2        716             0.0000000000
      2148       716  TIP3      H2             22.7641537182      -35.5876351097      -15.1828931047  W2        716             0.0000000000
      2149       717  TIP3      OH2            16.7246237182      -36.2173151097       -7.6187731047  W2        717             0.0000000000
      2150       717  TIP3      H1             17.3553937182      -36.2461051097       -6.8993831047  W2        717             0.0000000000
      2151       717  TIP3      H2             17.1740537182      -36.6424451097       -8.3491831047  W2        717             0.0000000000
      2152       718  TIP3      OH2            17.9988337182      -35.4711151097      -12.1947331047  W2        718             0.0000000000
      2153       718  TIP3      H1             18.4730037182      -34.8801251097      -12.7796431047  W2        718             0.0000000000
      2154       718  TIP3      H2             17.2814737182      -34.9408251097      -11.8477231047  W2        718             0.0000000000
      2155       719  TIP3      OH2            28.1676437182      -31.9326351097       -2.1221531047  W2        719             0.0000000000
      2156       719  TIP3      H1             28.4911237182      -32.5636651097       -2.7651031047  W2        719             0.0000000000
      2157       719  TIP3      H2             27.7275737182      -32.4674151097       -1.4614131047  W2        719             0.0000000000
      2158       720  TIP3      OH2            24.9449337182      -36.0050851097       -7.3380331047  W2        720             0.0000000000
      2159       720  TIP3      H1             24.0340437182      -35.9484051097       -7.0494331047  W2        720             0.0000000000
      2160       720  TIP3      H2             25.4502237182      -36.0655351097       -6.5273131047  W2        720             0.0000000000
      2161       721  TIP3      OH2            19.7732737182      -34.3764551097       -8.5112731047  W2        721             0.0000000000
      2162       721  TIP3      H1             18.8840737182      -34.2769051097       -8.8513131047  W2        721             0.0000000000
      2163       721  TIP3      H2             20.0697637182      -35.2181551097       -8.8574831047  W2        721             0.0000000000
      2164       722  TIP3      OH2            23.4264537182      -34.3761951097      -10.8548131047  W2        722             0.0000000000
      2165       722  TIP3      H1             24.3580037182      -34.2471951097      -10.6765031047  W2        722             0.0000000000
      2166       722  TIP3      H2             23.2114837182      -33.7067651097      -11.5043431047  W2        722             0.0000000000
      2167       723  TIP3      OH2            29.3501237182      -36.7704551097       -4.0738531047  W2        723             0.0000000000
      2168       723  TIP3      H1             28.6732837182      -36.6391451097       -3.4098831047  W2        723             0.0000000000
      2169       723  TIP3      H2             28.8646137182      -36.9255051097       -4.8840831047  W2        723             0.0000000000
      2170       724  TIP3      OH2            22.1004737182      -33.1819751097      -13.2882031047  W2        724             0.0000000000
      2171       724  TIP3      H1             21.5579837182      -33.5615951097      -13.9794431047  W2        724             0.0000000000
      2172       724  TIP3      H2             22.9339637182      -32.9875051097      -13.7167931047  W2        724             0.0000000000
      2173       725  TIP3      OH2            32.6376337182      -21.0989151097        2.2029068953  W2        725             0.0000000000
      2174       725  TIP3      H1             32.8375037182      -20.6747251097        1.3684368953  W2        725             0.0000000000
      2175       725  TIP3      H2             33.2930037182      -20.7550951097        2.8099468953  W2        725             0.0000000000
      2176       726  TIP3      OH2            20.2356137182      -28.6247851097        1.8109568953  W2        726             0.0000000000
      2177       726  TIP3      H1             20.9678537182      -28.3701951097        2.3724068953  W2        726             0.0000000000
      2178       726  TIP3      H2             19.4554837182      -28.4202451097        2.3264968953  W2        726             0.0000000000
      2179       727  TIP3      OH2            26.2649037182      -33.2177851097       -5.4510731047  W2        727             0.0000000000
      2180       727  TIP3      H1             26.8292437182      -33.7641251097       -5.9981131047  W2        727             0.0000000000
      2181       727  TIP3      H2             26.1172437182      -33.7395951097       -4.6623131047  W2        727             0.0000000000
      2182       728  TIP3      OH2            21.2668737182      -37.0811751097       -9.0325931047  W2        728             0.0000000000
      2183       728  TIP3      H1             20.9498237182      -37.9836451097       -9.0680531047  W2        728             0.0000000000
      2184       728  TIP3      H2             22.0482837182      -37.0794351097       -9.5854331047  W2        728             0.0000000000
      2185       729  TIP3      OH2            24.8914937182      -34.8291751097       -3.0370331047  W2        729             0.0000000000
      2186       729  TIP3      H1             24.0560237182      -34.3752251097       -2.9267931047  W2        729             0.0000000000
      2187       729  TIP3      H2             25.4155537182      -34.5533251097       -2.2850431047  W2        729             0.0000000000
      2188       730  TIP3      OH2            25.4357537182      -28.6164051097      -11.3523931047  W2        730             0.0000000000
      2189       730  TIP3      H1             24.6908537182      -29.1238751097      -11.6746031047  W2        730             0.0000000000
      2190       730  TIP3      H2             25.3014737182      -28.5676051097      -10.4059131047  W2        730             0.0000000000
      2191       731  TIP3      OH2            32.5856437182      -29.4835851097       -2.5656331047  W2        731             0.0000000000
      2192       731  TIP3      H1             33.2275237182      -29.0269551097       -3.1094131047  W2        731             0.0000000000
      2193       731  TIP3      H2             31.7553337182      -29.3703451097       -3.0282231047  W2        731             0.0000000000
      2194       732  TIP3      OH2            29.3334337182      -35.8024151097      -13.1531331047  W2        732             0.0000000000
      2195       732  TIP3      H1             28.3948537182      -35.6908551097      -13.3042531047  W2        732             0.0000000000
      2196       732  TIP3      H2             29.6306437182      -34.9457251097      -12.8465631047  W2        732             0.0000000000
      2197       733  TIP3      OH2            26.9549637182      -28.4320751097       -0.1154831047  W2        733             0.0000000000
      2198       733  TIP3      H1             26.6095737182      -28.8138351097        0.6914768953  W2        733             0.0000000000
      2199       733  TIP3      H2             26.7549737182      -27.4987151097       -0.0441931047  W2        733             0.0000000000
      2200       734  TIP3      OH2            30.0517837182      -33.9351451097      -11.4923931047  W2        734             0.0000000000
      2201       734  TIP3      H1             30.9436837182      -34.0726451097      -11.1732731047  W2        734             0.0000000000
      2202       734  TIP3      H2             30.1081437182      -33.1445351097      -12.0290431047  W2        734             0.0000000000
      2203       735  TIP3      OH2            20.5605837182      -29.3214051097       -5.5826031047  W2        735             0.0000000000
      2204       735  TIP3      H1             21.3053037182      -29.3238351097       -6.1839531047  W2        735             0.0000000000
      2205       735  TIP3      H2             20.6382437182      -30.1450251097       -5.1010931047  W2        735             0.0000000000
      2206       736  TIP3      OH2            27.5611637182      -27.1579751097      -12.3269331047  W2        736             0.0000000000
      2207       736  TIP3      H1             27.2660037182      -26.3311851097      -11.9454531047  W2        736             0.0000000000
      2208       736  TIP3      H2             26.8581637182      -27.7772851097      -12.1307931047  W2        736             0.0000000000
      2209       737  TIP3      OH2            17.5685537182      -30.8607151097       -0.2677531047  W2        737             0.0000000000
      2210       737  TIP3      H1             17.7914137182      -31.2787551097        0.5639968953  W2        737             0.0000000000
      2211       737  TIP3      H2             16.9665637182      -31.4732151097       -0.6904731047  W2        737             0.0000000000
      2212       738  TIP3      OH2            24.5850437182      -31.3437251097        1.9452168953  W2        738             0.0000000000
      2213       738  TIP3      H1             24.2891237182      -31.5094251097        1.0501268953  W2        738             0.0000000000
      2214       738  TIP3      H2             25.5165637182      -31.5636951097        1.9346068953  W2        738             0.0000000000
      2215       739  TIP3      OH2            29.2053237182      -25.9705251097       -0.1649831047  W2        739             0.0000000000
      2216       739  TIP3      H1             28.3047537182      -25.7872651097       -0.4325931047  W2        739             0.0000000000
      2217       739  TIP3      H2             29.2394337182      -25.7115951097        0.7558968953  W2        739             0.0000000000
      2218       740  TIP3      OH2            34.9366537182      -33.7257351097      -11.7977231047  W2        740             0.0000000000
      2219       740  TIP3      H1             34.3822837182      -34.1219351097      -12.4699731047  W2        740             0.0000000000
      2220       740  TIP3      H2             35.0370137182      -32.8152151097      -12.0753931047  W2        740             0.0000000000
      2221       741  TIP3      OH2            34.8998537182      -27.9255651097        1.0394268953  W2        741             0.0000000000
      2222       741  TIP3      H1             34.0487037182      -27.6871851097        0.6720668953  W2        741             0.0000000000
      2223       741  TIP3      H2             35.4901937182      -27.9422451097        0.2861368953  W2        741             0.0000000000
      2224       742  TIP3      OH2            33.2318237182      -24.9396951097      -11.3325131047  W2        742             0.0000000000
      2225       742  TIP3      H1             32.8589337182      -25.7653151097      -11.0234531047  W2        742             0.0000000000
      2226       742  TIP3      H2             33.5091737182      -25.1227551097      -12.2301731047  W2        742             0.0000000000
      2227       743  TIP3      OH2            30.3922137182      -30.1317451097       -4.3113231047  W2        743             0.0000000000
      2228       743  TIP3      H1             29.4639037182      -30.3635551097       -4.3383931047  W2        743             0.0000000000
      2229       743  TIP3      H2             30.8433237182      -30.9087651097       -4.6414431047  W2        743             0.0000000000
      2230       744  TIP3      OH2            22.9355237182      -25.8035851097       -8.1784531047  W2        744             0.0000000000
      2231       744  TIP3      H1             23.4627437182      -25.0301451097       -8.3785731047  W2        744             0.0000000000
      2232       744  TIP3      H2             22.0553737182      -25.5786651097       -8.4800531047  W2        744             0.0000000000
      2233       745  TIP3      OH2            18.6902937182      -30.9411751097      -13.5912131047  W2        745             0.0000000000
      2234       745  TIP3      H1             19.3062837182      -30.3144551097      -13.2117331047  W2        745             0.0000000000
      2235       745  TIP3      H2             17.8285537182      -30.6251951097      -13.3195631047  W2        745             0.0000000000
      2236       746  TIP3      OH2            24.3627537182      -28.1405951097       -8.6020231047  W2        746             0.0000000000
      2237       746  TIP3      H1             24.1217537182      -27.2151551097       -8.5604931047  W2        746             0.0000000000
      2238       746  TIP3      H2             23.6221137182      -28.5994651097       -8.2056331047  W2        746             0.0000000000
      2239       747  TIP3      OH2            24.8774137182      -23.9912351097       -2.2869131047  W2        747             0.0000000000
      2240       747  TIP3      H1             25.2398837182      -23.1366751097       -2.5204731047  W2        747             0.0000000000
      2241       747  TIP3      H2             25.4089337182      -24.2830751097       -1.5462831047  W2        747             0.0000000000
      2242       748  TIP3      OH2            23.0458337182      -23.1188351097       -9.0568031047  W2        748             0.0000000000
      2243       748  TIP3      H1             22.0958837182      -23.0130951097       -9.0054731047  W2        748             0.0000000000
      2244       748  TIP3      H2             23.3976437182      -22.2980951097       -8.7120531047  W2        748             0.0000000000
      2245       749  TIP3      OH2            28.4214937182      -27.8921651097       -2.5863531047  W2        749             0.0000000000
      2246       749  TIP3      H1             27.9956237182      -28.1199951097       -1.7599531047  W2        749             0.0000000000
      2247       749  TIP3      H2             29.0020737182      -28.6309851097       -2.7688231047  W2        749             0.0000000000
      2248       750  TIP3      OH2            30.6243837182      -26.9631151097      -13.5124531047  W2        750             0.0000000000
      2249       750  TIP3      H1             30.9776937182      -27.3431351097      -12.7081031047  W2        750             0.0000000000
      2250       750  TIP3      H2             29.6757337182      -27.0566351097      -13.4255231047  W2        750             0.0000000000
      2251       751  TIP3      OH2            31.0799137182      -23.3402151097       -0.1168731047  W2        751             0.0000000000
      2252       751  TIP3      H1             30.4782337182      -23.8959251097       -0.6122431047  W2        751             0.0000000000
      2253       751  TIP3      H2             31.3612837182      -22.6732351097       -0.7431331047  W2        751             0.0000000000
      2254       752  TIP3      OH2            35.1278237182      -22.4838651097      -13.3114331047  W2        752             0.0000000000
      2255       752  TIP3      H1             35.8716137182      -21.8978151097      -13.4512731047  W2        752             0.0000000000
      2256       752  TIP3      H2             34.4336337182      -21.9152851097      -12.9781931047  W2        752             0.0000000000
      2257       753  TIP3      OH2            19.2025037182      -36.1074451097       -0.7096131047  W2        753             0.0000000000
      2258       753  TIP3      H1             18.3097337182      -35.7689051097       -0.7772131047  W2        753             0.0000000000
      2259       753  TIP3      H2             19.1037837182      -36.9628351097       -0.2915331047  W2        753             0.0000000000
      2260       754  TIP3      OH2            31.4903137182      -28.2909151097      -11.2856631047  W2        754             0.0000000000
      2261       754  TIP3      H1             31.2130737182      -29.0189851097      -10.7295531047  W2        754             0.0000000000
      2262       754  TIP3      H2             32.4176137182      -28.1717151097      -11.0804031047  W2        754             0.0000000000
      2263       755  TIP3      OH2            18.8537037182      -24.3030051097       -2.2746731047  W2        755             0.0000000000
      2264       755  TIP3      H1             19.0707337182      -25.2347651097       -2.3057031047  W2        755             0.0000000000
      2265       755  TIP3      H2             19.1000537182      -24.0285051097       -1.3913931047  W2        755             0.0000000000
      2266       756  TIP3      OH2            24.7151637182      -25.8515051097      -15.0654531047  W2        756             0.0000000000
      2267       756  TIP3      H1             24.9541437182      -26.5996951097      -15.6125631047  W2        756             0.0000000000
      2268       756  TIP3      H2             24.4462937182      -26.2393351097      -14.2326731047  W2        756             0.0000000000
      2269       757  TIP3      OH2            23.6522237182      -26.2811251097      -12.6091931047  W2        757             0.0000000000
      2270       757  TIP3      H1             23.7990237182      -26.8011451097      -11.8191031047  W2        757             0.0000000000
      2271       757  TIP3      H2             23.6493937182      -25.3743651097      -12.3026031047  W2        757             0.0000000000
      2272       758  TIP3      OH2            20.1053337182      -29.0287951097      -12.0986531047  W2        758             0.0000000000
      2273       758  TIP3      H1             19.4192637182      -28.6765451097      -11.5316831047  W2        758             0.0000000000
      2274       758  TIP3      H2             20.6281237182      -28.2658351097      -12.3452231047  W2        758             0.0000000000
      2275       759  TIP3      OH2            27.9368437182      -36.3664151097       -1.8197531047  W2        759             0.0000000000
      2276       759  TIP3      H1             28.6356337182      -36.2925451097       -1.1697831047  W2        759             0.0000000000
      2277       759  TIP3      H2             27.5559837182      -37.2309151097       -1.6654631047  W2        759             0.0000000000
      2278       760  TIP3      OH2            28.7213337182      -36.7142451097      -10.7225231047  W2        760             0.0000000000
      2279       760  TIP3      H1             28.9411637182      -36.2427051097      -11.5259831047  W2        760             0.0000000000
      2280       760  TIP3      H2             29.2797337182      -36.3199851097      -10.0524631047  W2        760             0.0000000000
      2281       761  TIP3      OH2            26.3899437182      -24.5837651097      -11.8597731047  W2        761             0.0000000000
      2282       761  TIP3      H1             25.5735537182      -24.0867951097      -11.8073431047  W2        761             0.0000000000
      2283       761  TIP3      H2             26.9195737182      -24.1084151097      -12.4998931047  W2        761             0.0000000000
      2284       762  TIP3      OH2            25.9213237182      -34.9863651097       -9.8876831047  W2        762             0.0000000000
      2285       762  TIP3      H1             26.7335837182      -34.4820451097       -9.8415131047  W2        762             0.0000000000
      2286       762  TIP3      H2             25.6766237182      -35.1313951097       -8.9737231047  W2        762             0.0000000000
      2287       763  TIP3      OH2            26.4569637182      -34.0000951097       -0.7030231047  W2        763             0.0000000000
      2288       763  TIP3      H1             26.5759937182      -33.4265551097        0.0540168953  W2        763             0.0000000000
      2289       763  TIP3      H2             27.1124237182      -34.6881551097       -0.5882431047  W2        763             0.0000000000
      2290       764  TIP3      OH2            26.8049937182      -37.9050651097       -8.9495731047  W2        764             0.0000000000
      2291       764  TIP3      H1             26.4583437182      -37.2880051097       -8.3051431047  W2        764             0.0000000000
      2292       764  TIP3      H2             27.4636837182      -37.4044951097       -9.4310231047  W2        764             0.0000000000
      2293       765  TIP3      OH2            23.7282537182      -23.5400451097      -11.8780831047  W2        765             0.0000000000
      2294       765  TIP3      H1             23.8891237182      -22.7402951097      -12.3788231047  W2        765             0.0000000000
      2295       765  TIP3      H2             23.5310337182      -23.2334451097      -10.9930231047  W2        765             0.0000000000
      2296       766  TIP3      OH2            22.4626937182      -36.8421251097      -12.2623231047  W2        766             0.0000000000
      2297       766  TIP3      H1             22.3791737182      -35.9538151097      -11.9156831047  W2        766             0.0000000000
      2298       766  TIP3      H2             23.3527237182      -37.1074551097      -12.0306431047  W2        766             0.0000000000
      2299       767  TIP3      OH2            32.6615437182      -36.0930651097        0.1319468953  W2        767             0.0000000000
      2300       767  TIP3      H1             31.7451237182      -35.8308951097        0.0443168953  W2        767             0.0000000000
      2301       767  TIP3      H2             32.9970437182      -36.0961651097       -0.7645231047  W2        767             0.0000000000
      2302       768  TIP3      OH2            31.2636437182      -32.3429651097       -5.7723231047  W2        768             0.0000000000
      2303       768  TIP3      H1             30.4660837182      -32.7579451097       -6.1008231047  W2        768             0.0000000000
      2304       768  TIP3      H2             31.7087537182      -33.0335951097       -5.2812731047  W2        768             0.0000000000
      2305       769  TIP3      OH2            20.7212237182      -26.4149051097      -13.2018731047  W2        769             0.0000000000
      2306       769  TIP3      H1             21.3133737182      -25.7154251097      -12.9256331047  W2        769             0.0000000000
      2307       769  TIP3      H2             21.1805237182      -26.8479551097      -13.9214131047  W2        769             0.0000000000
      2308       770  TIP3      OH2            19.0371437182      -33.7506051097      -14.0859331047  W2        770             0.0000000000
      2309       770  TIP3      H1             18.9924037182      -32.8112951097      -13.9072331047  W2        770             0.0000000000
      2310       770  TIP3      H2             18.1494637182      -33.9861151097      -14.3557231047  W2        770             0.0000000000
      2311       771  TIP3      OH2            32.3501037182      -23.0867151097       -4.1499731047  W2        771             0.0000000000
      2312       771  TIP3      H1             32.1945337182      -22.4082751097       -4.8070431047  W2        771             0.0000000000
      2313       771  TIP3      H2             33.2827437182      -23.0147851097       -3.9469131047  W2        771             0.0000000000
      2314       772  TIP3      OH2            19.8453437182      -38.9689451097       -5.4128331047  W2        772             0.0000000000
      2315       772  TIP3      H1             19.6163237182      -38.9096951097       -6.3403331047  W2        772             0.0000000000
      2316       772  TIP3      H2             19.4026837182      -39.7603951097       -5.1064231047  W2        772             0.0000000000
      2317       773  TIP3      OH2            18.7756737182      -25.0282351097       -9.2522531047  W2        773             0.0000000000
      2318       773  TIP3      H1             17.9435337182      -24.5559651097       -9.2251131047  W2        773             0.0000000000
      2319       773  TIP3      H2             19.3215037182      -24.5184751097       -9.8509431047  W2        773             0.0000000000
      2320       774  TIP3      OH2            18.0640437182      -22.4158651097        2.0775468953  W2        774             0.0000000000
      2321       774  TIP3      H1             18.6042637182      -22.6324651097        2.8374668953  W2        774             0.0000000000
      2322       774  TIP3      H2             17.5828437182      -23.2212651097        1.8877968953  W2        774             0.0000000000
      2323       775  TIP3      OH2            22.6613837182      -23.4964251097        3.6979668953  W2        775             0.0000000000
      2324       775  TIP3      H1             23.4291037182      -23.9553451097        4.0388868953  W2        775             0.0000000000
      2325       775  TIP3      H2             22.6400037182      -23.7224451097        2.7680868953  W2        775             0.0000000000
      2326       776  TIP3      OH2            26.7533437182      -23.9883651097      -14.9268531047  W2        776             0.0000000000
      2327       776  TIP3      H1             26.1094437182      -24.6195051097      -14.6054831047  W2        776             0.0000000000
      2328       776  TIP3      H2             27.5151737182      -24.5195651097      -15.1585031047  W2        776             0.0000000000
      2329       777  TIP3      OH2            29.2382537182      -25.1163151097        2.4271168953  W2        777             0.0000000000
      2330       777  TIP3      H1             28.8872037182      -25.9730151097        2.6701568953  W2        777             0.0000000000
      2331       777  TIP3      H2             29.9645737182      -24.9736451097        3.0340168953  W2        777             0.0000000000
      2332       778  TIP3      OH2            31.3576337182      -24.1713751097      -14.6930531047  W2        778             0.0000000000
      2333       778  TIP3      H1             31.6406737182      -24.9658551097      -14.2403631047  W2        778             0.0000000000
      2334       778  TIP3      H2             32.0974237182      -23.9382751097      -15.2539431047  W2        778             0.0000000000
      2335       779  TIP3      OH2            17.9709937182      -28.6054551097        3.0319768953  W2        779             0.0000000000
      2336       779  TIP3      H1             18.1150437182      -29.5073851097        2.7456468953  W2        779             0.0000000000
      2337       779  TIP3      H2             17.1987337182      -28.3192451097        2.5442068953  W2        779             0.0000000000
      2338       780  TIP3      OH2            22.3123637182      -28.2618851097      -14.8355631047  W2        780             0.0000000000
      2339       780  TIP3      H1             22.3767737182      -29.0559251097      -14.3049231047  W2        780             0.0000000000
      2340       780  TIP3      H2             22.9652837182      -28.3806051097      -15.5253631047  W2        780             0.0000000000
      2341       781  TIP3      OH2            24.6266037182      -28.6356451097        2.4646168953  W2        781             0.0000000000
      2342       781  TIP3      H1             24.2979837182      -28.3648351097        1.6073568953  W2        781             0.0000000000
      2343       781  TIP3      H2             24.7784237182      -29.5766651097        2.3771168953  W2        781             0.0000000000
      2344       782  TIP3      OH2            27.6647037182      -27.2147151097      -15.0997631047  W2        782             0.0000000000
      2345       782  TIP3      H1             27.3961137182      -27.0345051097      -14.1988731047  W2        782             0.0000000000
      2346       782  TIP3      H2             27.4582637182      -28.1400951097      -15.2311831047  W2        782             0.0000000000
      2347       783  TIP3      OH2            30.3611237182      -28.7199151097       -0.1521531047  W2        783             0.0000000000
      2348       783  TIP3      H1             31.1066037182      -28.1315451097       -0.2717531047  W2        783             0.0000000000
      2349       783  TIP3      H2             29.6038037182      -28.1379451097       -0.0888431047  W2        783             0.0000000000
      2350       784  TIP3      OH2            18.8036437182      -31.4051251097        2.4519068953  W2        784             0.0000000000
      2351       784  TIP3      H1             19.2117637182      -32.2624651097        2.3309668953  W2        784             0.0000000000
      2352       784  TIP3      H2             18.5434037182      -31.3909951097        3.3729368953  W2        784             0.0000000000
      2353       785  TIP3      OH2            23.4617437182      -30.2892651097      -12.5297631047  W2        785             0.0000000000
      2354       785  TIP3      H1             23.0019437182      -30.7734351097      -11.8439131047  W2        785             0.0000000000
      2355       785  TIP3      H2             23.7166137182      -30.9577251097      -13.1657131047  W2        785             0.0000000000
      2356       786  TIP3      OH2            22.7506737182      -32.3965551097       -0.1738031047  W2        786             0.0000000000
      2357       786  TIP3      H1             22.1322837182      -31.7218951097        0.1066668953  W2        786             0.0000000000
      2358       786  TIP3      H2             23.0947937182      -32.0751651097       -1.0071831047  W2        786             0.0000000000
      2359       787  TIP3      OH2            24.5327837182      -32.0460851097      -14.2674431047  W2        787             0.0000000000
      2360       787  TIP3      H1             24.3522837182      -32.2009651097      -15.1946131047  W2        787             0.0000000000
      2361       787  TIP3      H2             25.4828337182      -31.9382151097      -14.2226531047  W2        787             0.0000000000
      2362       788  TIP3      OH2            27.7704937182      -29.9250251097        3.1036768953  W2        788             0.0000000000
      2363       788  TIP3      H1             28.7236137182      -29.8411151097        3.0762768953  W2        788             0.0000000000
      2364       788  TIP3      H2             27.6099537182      -30.6368451097        3.7231668953  W2        788             0.0000000000
      2365       789  TIP3      OH2            33.9226137182      -29.6916651097      -14.8216331047  W2        789             0.0000000000
      2366       789  TIP3      H1             33.6490937182      -30.1161151097      -15.6348031047  W2        789             0.0000000000
      2367       789  TIP3      H2             33.9620237182      -28.7602151097      -15.0385931047  W2        789             0.0000000000
      2368       790  TIP3      OH2            23.0900437182      -35.0414751097        0.9085068953  W2        790             0.0000000000
      2369       790  TIP3      H1             23.2401337182      -35.7703451097        0.3064768953  W2        790             0.0000000000
      2370       790  TIP3      H2             23.0922837182      -34.2643051097        0.3497268953  W2        790             0.0000000000
      2371       791  TIP3      OH2            23.5026137182      -36.6718951097       -1.5987531047  W2        791             0.0000000000
      2372       791  TIP3      H1             24.0383637182      -36.2202251097       -2.2508231047  W2        791             0.0000000000
      2373       791  TIP3      H2             22.6505737182      -36.7799151097       -2.0213431047  W2        791             0.0000000000
      2374       792  TIP3      OH2            25.0844537182      -31.2322751097       -1.3592331047  W2        792             0.0000000000
      2375       792  TIP3      H1             25.8349337182      -31.3885251097       -1.9324531047  W2        792             0.0000000000
      2376       792  TIP3      H2             24.7452837182      -30.3806151097       -1.6346831047  W2        792             0.0000000000
      2377       793  TIP3      OH2            29.5000737182      -33.4170951097        3.6692968953  W2        793             0.0000000000
      2378       793  TIP3      H1             29.6922037182      -34.3481551097        3.5577468953  W2        793             0.0000000000
      2379       793  TIP3      H2             30.3577037182      -32.9921451097        3.6588368953  W2        793             0.0000000000
      2380       794  TIP3      OH2            30.8167937182      -30.6285751097        1.7465668953  W2        794             0.0000000000
      2381       794  TIP3      H1             30.5352937182      -29.9191151097        1.1689468953  W2        794             0.0000000000
      2382       794  TIP3      H2             31.7592237182      -30.7012751097        1.5956868953  W2        794             0.0000000000
      2383       795  TIP3      OH2            21.5686737182      -33.8431251097        2.8200668953  W2        795             0.0000000000
      2384       795  TIP3      H1             20.8015737182      -34.3756451097        2.6098268953  W2        795             0.0000000000
      2385       795  TIP3      H2             22.2475737182      -34.1530851097        2.2206968953  W2        795             0.0000000000
      2386       796  TIP3      OH2            24.3081637182      -39.2153251097       -1.1673931047  W2        796             0.0000000000
      2387       796  TIP3      H1             24.2101237182      -38.2690051097       -1.2727731047  W2        796             0.0000000000
      2388       796  TIP3      H2             23.5657837182      -39.5879451097       -1.6430431047  W2        796             0.0000000000
      2389       797  TIP3      OH2            25.5722137182      -34.8937851097        2.3964468953  W2        797             0.0000000000
      2390       797  TIP3      H1             25.3367537182      -35.1131151097        3.2979368953  W2        797             0.0000000000
      2391       797  TIP3      H2             24.7889037182      -35.1006651097        1.8866968953  W2        797             0.0000000000
      2392       798  TIP3      OH2            28.2878737182      -35.7664351097        1.4717968953  W2        798             0.0000000000
      2393       798  TIP3      H1             27.3404137182      -35.7344651097        1.6041268953  W2        798             0.0000000000
      2394       798  TIP3      H2             28.6005437182      -36.3917251097        2.1256168953  W2        798             0.0000000000
      2395       799  TIP3      OH2            29.9220237182      -37.1323251097        3.4769868953  W2        799             0.0000000000
      2396       799  TIP3      H1             29.8252037182      -38.0845951097        3.4711768953  W2        799             0.0000000000
      2397       799  TIP3      H2             29.6003337182      -36.8636451097        4.3375368953  W2        799             0.0000000000
      2398       800  TIP3      OH2            19.7489537182      -35.9227451097        2.5245368953  W2        800             0.0000000000
      2399       800  TIP3      H1             19.9606937182      -36.6291351097        1.9142868953  W2        800             0.0000000000
      2400       800  TIP3      H2             19.6377037182      -36.3601451097        3.3686568953  W2        800             0.0000000000
      2401       801  TIP3      OH2            24.5299737182      -39.9215851097        1.5038868953  W2        801             0.0000000000
      2402       801  TIP3      H1             25.2418137182      -40.5613651097        1.4897968953  W2        801             0.0000000000
      2403       801  TIP3      H2             24.4290137182      -39.6547551097        0.5901968953  W2        801             0.0000000000
      2404       802  TIP3      OH2            24.8837237182      -38.2387451097        3.5575168953  W2        802             0.0000000000
      2405       802  TIP3      H1             24.7519437182      -38.7143651097        2.7373668953  W2        802             0.0000000000
      2406       802  TIP3      H2             24.2844637182      -37.4943851097        3.5022268953  W2        802             0.0000000000
      2407       803  TIP3      OH2            24.4299537182      -21.3557151097      -13.2660831047  W2        803             0.0000000000
      2408       803  TIP3      H1             25.3630237182      -21.1978451097      -13.1222431047  W2        803             0.0000000000
      2409       803  TIP3      H2             24.1658337182      -20.6804151097      -13.8909331047  W2        803             0.0000000000
      2410       804  TIP3      OH2            17.9984437182      -26.7193351097      -13.7832731047  W2        804             0.0000000000
      2411       804  TIP3      H1             18.9123637182      -26.6404451097      -13.5098831047  W2        804             0.0000000000
      2412       804  TIP3      H2             18.0057537182      -27.4063751097      -14.4497131047  W2        804             0.0000000000
      2413       805  TIP3      OH2            16.6475037182      -21.3264851097       -8.7058831047  W2        805             0.0000000000
      2414       805  TIP3      H1             16.0002137182      -21.7883151097       -9.2387631047  W2        805             0.0000000000
      2415       805  TIP3      H2             17.0019637182      -21.9981551097       -8.1232631047  W2        805             0.0000000000
      2416       806  TIP3      OH2            17.5174237182      -23.2457851097       -6.9012631047  W2        806             0.0000000000
      2417       806  TIP3      H1             17.1831037182      -24.1260551097       -6.7292431047  W2        806             0.0000000000
      2418       806  TIP3      H2             17.7396637182      -22.9002851097       -6.0367031047  W2        806             0.0000000000
      2419       807  TIP3      OH2            35.0659037182      -22.4361451097       -3.9207831047  W2        807             0.0000000000
      2420       807  TIP3      H1             35.0445737182      -22.2513051097       -2.9818431047  W2        807             0.0000000000
      2421       807  TIP3      H2             35.7565237182      -21.8677451097       -4.2616431047  W2        807             0.0000000000
      2422       808  TIP3      OH2            34.6291937182      -22.8690351097       -0.9988731047  W2        808             0.0000000000
      2423       808  TIP3      H1             34.1420637182      -23.6046251097       -1.3701331047  W2        808             0.0000000000
      2424       808  TIP3      H2             35.1784637182      -23.2626451097       -0.3209331047  W2        808             0.0000000000
      2425       809  TIP3      OH2            33.0799237182      -27.0792251097        3.6391568953  W2        809             0.0000000000
      2426       809  TIP3      H1             32.2140337182      -27.1842551097        4.0333868953  W2        809             0.0000000000
      2427       809  TIP3      H2             33.4565137182      -26.3208951097        4.0856268953  W2        809             0.0000000000
      2428       810  TIP3      OH2            34.3808937182      -28.8228551097      -10.8465931047  W2        810             0.0000000000
      2429       810  TIP3      H1             35.2310337182      -28.4017651097      -10.7194331047  W2        810             0.0000000000
      2430       810  TIP3      H2             34.3864037182      -29.5628451097      -10.2394531047  W2        810             0.0000000000
      2431       811  TIP3      OH2            34.7754537182      -30.7691151097       -9.0230231047  W2        811             0.0000000000
      2432       811  TIP3      H1             34.0489137182      -31.2488551097       -8.6252631047  W2        811             0.0000000000
      2433       811  TIP3      H2             35.3567837182      -30.5636451097       -8.2908631047  W2        811             0.0000000000
      2434       812  TIP3      OH2            34.5345737182      -27.9843651097       -4.0752631047  W2        812             0.0000000000
      2435       812  TIP3      H1             35.3679937182      -28.3623651097       -4.3559031047  W2        812             0.0000000000
      2436       812  TIP3      H2             34.6466037182      -27.0412451097       -4.1943531047  W2        812             0.0000000000
      2437       813  TIP3      OH2            33.0208037182      -25.1066151097       -1.7684231047  W2        813             0.0000000000
      2438       813  TIP3      H1             32.3733337182      -24.7814651097       -1.1429031047  W2        813             0.0000000000
      2439       813  TIP3      H2             32.5032037182      -25.5468451097       -2.4425931047  W2        813             0.0000000000
      2440       814  TIP3      OH2            35.0437637182      -30.8682651097      -12.6318931047  W2        814             0.0000000000
      2441       814  TIP3      H1             34.5218737182      -30.5118551097      -13.3508031047  W2        814             0.0000000000
      2442       814  TIP3      H2             35.0106837182      -30.1934851097      -11.9538031047  W2        814             0.0000000000
      2443       815  TIP3      OH2            33.3926637182      -33.6287051097      -14.0811831047  W2        815             0.0000000000
      2444       815  TIP3      H1             33.4891037182      -32.9620051097      -14.7612131047  W2        815             0.0000000000
      2445       815  TIP3      H2             33.2526237182      -34.4440751097      -14.5626331047  W2        815             0.0000000000
      2446       816  TIP3      OH2            32.5621337182      -32.2484651097       -8.4601531047  W2        816             0.0000000000
      2447       816  TIP3      H1             32.4120137182      -33.1936051097       -8.4803731047  W2        816             0.0000000000
      2448       816  TIP3      H2             32.2085837182      -31.9673251097       -7.6162431047  W2        816             0.0000000000
      2449       817  TIP3      OH2            17.5973737182      -30.1702451097       -4.4497731047  W2        817             0.0000000000
      2450       817  TIP3      H1             17.7816637182      -30.2520751097       -5.3854831047  W2        817             0.0000000000
      2451       817  TIP3      H2             18.4466637182      -30.2945451097       -4.0261331047  W2        817             0.0000000000
      2452       818  TIP3      OH2            33.4184237182      -30.2781351097        1.1786768953  W2        818             0.0000000000
      2453       818  TIP3      H1             34.0011537182      -31.0129051097        1.3703968953  W2        818             0.0000000000
      2454       818  TIP3      H2             33.9823537182      -29.5061051097        1.2252568953  W2        818             0.0000000000
      2455       819  TIP3      OH2            34.9151337182      -32.3755551097        1.8632168953  W2        819             0.0000000000
      2456       819  TIP3      H1             34.0518037182      -32.7543451097        1.6976868953  W2        819             0.0000000000
      2457       819  TIP3      H2             35.5195037182      -33.1140751097        1.7887968953  W2        819             0.0000000000
      2458       820  TIP3      OH2            32.6400437182      -36.2207251097      -14.9636331047  W2        820             0.0000000000
      2459       820  TIP3      H1             33.2506237182      -36.5920451097      -14.3268131047  W2        820             0.0000000000
      2460       820  TIP3      H2             31.8031937182      -36.6420351097      -14.7676331047  W2        820             0.0000000000
      2461       821  TIP3      OH2            32.2726137182      -34.6658851097       -9.9976431047  W2        821             0.0000000000
      2462       821  TIP3      H1             32.5523237182      -35.5728451097       -9.8734731047  W2        821             0.0000000000
      2463       821  TIP3      H2             33.0317837182      -34.2317351097      -10.3867231047  W2        821             0.0000000000
      2464       822  TIP3      OH2            32.8844437182      -34.0841451097       -4.5617531047  W2        822             0.0000000000
      2465       822  TIP3      H1             33.8172437182      -33.8721551097       -4.5961531047  W2        822             0.0000000000
      2466       822  TIP3      H2             32.6491937182      -33.9829351097       -3.6394531047  W2        822             0.0000000000
      2467       823  TIP3      OH2            32.9136337182      -33.3476151097       -1.7858131047  W2        823             0.0000000000
      2468       823  TIP3      H1             32.0707637182      -33.0795751097       -1.4198331047  W2        823             0.0000000000
      2469       823  TIP3      H2             33.3560637182      -32.5254251097       -1.9967031047  W2        823             0.0000000000
      2470       824  TIP3      OH2            17.1948537182      -34.8997451097        1.6911068953  W2        824             0.0000000000
      2471       824  TIP3      H1             18.1143437182      -35.0219151097        1.9274168953  W2        824             0.0000000000
      2472       824  TIP3      H2             16.7453037182      -35.6497751097        2.0804568953  W2        824             0.0000000000
      2473       825  TIP3      OH2            35.1967937182      -39.3675951097        3.5676868953  W2        825             0.0000000000
      2474       825  TIP3      H1             35.5464937182      -40.0212451097        2.9621568953  W2        825             0.0000000000
      2475       825  TIP3      H2             35.3437437182      -38.5301851097        3.1279468953  W2        825             0.0000000000
      2476       826  TIP3      OH2            32.8860937182      -37.4029551097       -9.9494431047  W2        826             0.0000000000
      2477       826  TIP3      H1             33.0685937182      -37.8518051097       -9.1239431047  W2        826             0.0000000000
      2478       826  TIP3      H2             32.2863837182      -37.9875151097      -10.4129831047  W2        826             0.0000000000
      2479       827  TIP3      OH2            18.4161037182      -36.5875851097       -5.4176031047  W2        827             0.0000000000
      2480       827  TIP3      H1             18.8612637182      -37.3793351097       -5.1156331047  W2        827             0.0000000000
      2481       827  TIP3      H2             18.8824037182      -35.8710651097       -4.9870431047  W2        827             0.0000000000
      2482       828  TIP3      OH2            16.7201337182      -33.5882851097       -4.3485831047  W2        828             0.0000000000
      2483       828  TIP3      H1             17.2121137182      -33.8092351097       -5.1393831047  W2        828             0.0000000000
      2484       828  TIP3      H2             17.0822237182      -32.7479451097       -4.0676331047  W2        828             0.0000000000
      2485       829  TIP3      OH2            34.7165137182      -37.2581351097        1.9168168953  W2        829             0.0000000000
      2486       829  TIP3      H1             33.7990837182      -36.9874251097        1.8811668953  W2        829             0.0000000000
      2487       829  TIP3      H2             34.8394537182      -37.7932951097        1.1327868953  W2        829             0.0000000000
      2488       830  TIP3      OH2            34.7527137182      -37.3351451097      -13.4214131047  W2        830             0.0000000000
      2489       830  TIP3      H1             35.1649737182      -38.0565751097      -13.8966131047  W2        830             0.0000000000
      2490       830  TIP3      H2             35.4343637182      -36.6656851097      -13.3629831047  W2        830             0.0000000000
      2491       831  TIP3      OH2            17.0337837182      -37.3303751097      -10.2943431047  W2        831             0.0000000000
      2492       831  TIP3      H1             16.1086237182      -37.1217151097      -10.4237931047  W2        831             0.0000000000
      2493       831  TIP3      H2             17.4877737182      -36.8462951097      -10.9841131047  W2        831             0.0000000000
      2494       832  TIP3      OH2            31.8045037182      -22.3462051097       -8.3486031047  W2        832             0.0000000000
      2495       832  TIP3      H1             32.4567937182      -22.6939951097       -8.9566931047  W2        832             0.0000000000
      2496       832  TIP3      H2             32.3148837182      -21.8578851097       -7.7026331047  W2        832             0.0000000000
      2497       833  TIP3      OH2            16.9973237182      -38.5924751097       -1.9500931047  W2        833             0.0000000000
      2498       833  TIP3      H1             16.3323737182      -38.8384451097       -1.3070031047  W2        833             0.0000000000
      2499       833  TIP3      H2             16.5544537182      -37.9704351097       -2.5272931047  W2        833             0.0000000000
      2500       834  TIP3      OH2            19.1892537182      -25.4170651097        2.1944868953  W2        834             0.0000000000
      2501       834  TIP3      H1             18.3685037182      -25.2424151097        1.7339568953  W2        834             0.0000000000
      2502       834  TIP3      H2             18.9370337182      -25.4905951097        3.1149268953  W2        834             0.0000000000
      2503       835  TIP3      OH2            22.1435437182      -24.4429451097       -1.5471131047  W2        835             0.0000000000
      2504       835  TIP3      H1             21.7186537182      -23.6330951097       -1.8296531047  W2        835             0.0000000000
      2505       835  TIP3      H2             23.0478237182      -24.3575351097       -1.8491331047  W2        835             0.0000000000
      2506       836  TIP3      OH2            26.4546837182      -23.0439451097        1.4122568953  W2        836             0.0000000000
      2507       836  TIP3      H1             26.6394337182      -23.3773351097        2.2902868953  W2        836             0.0000000000
      2508       836  TIP3      H2             27.3011337182      -22.7340851097        1.0901768953  W2        836             0.0000000000
      2509       837  TIP3      OH2            28.7997237182      -21.7580551097        0.6563968953  W2        837             0.0000000000
      2510       837  TIP3      H1             29.4766137182      -22.3908251097        0.4163168953  W2        837             0.0000000000
      2511       837  TIP3      H2             29.1216037182      -21.3570051097        1.4637268953  W2        837             0.0000000000
      2512       838  TIP3      OH2            33.7171037182      -39.1685051097       -0.2641031047  W2        838             0.0000000000
      2513       838  TIP3      H1             32.9044537182      -38.8434751097       -0.6516331047  W2        838             0.0000000000
      2514       838  TIP3      H2             33.9499537182      -39.9286551097       -0.7971931047  W2        838             0.0000000000
      2515       839  TIP3      OH2            19.5452137182      -21.1865551097       -1.4995831047  W2        839             0.0000000000
      2516       839  TIP3      H1             18.8248537182      -20.7464551097       -1.9508131047  W2        839             0.0000000000
      2517       839  TIP3      H2             19.1796137182      -21.4370851097       -0.6511831047  W2        839             0.0000000000
      2518       840  TIP3      OH2            22.0124737182      -21.5861651097       -2.4698631047  W2        840             0.0000000000
      2519       840  TIP3      H1             21.1476937182      -21.5143151097       -2.0658531047  W2        840             0.0000000000
      2520       840  TIP3      H2             21.9573737182      -21.0394351097       -3.2536131047  W2        840             0.0000000000
      2521       841  TIP3      OH2            26.7230337182      -21.6982751097       -3.2942631047  W2        841             0.0000000000
      2522       841  TIP3      H1             26.2664337182      -21.1693051097       -3.9484231047  W2        841             0.0000000000
      2523       841  TIP3      H2             26.8858337182      -21.0951351097       -2.5690331047  W2        841             0.0000000000
      2524       842  TIP3      OH2            29.0506637182      -22.8203151097       -2.3492331047  W2        842             0.0000000000
      2525       842  TIP3      H1             28.1460337182      -22.6552951097       -2.6150231047  W2        842             0.0000000000
      2526       842  TIP3      H2             29.4795237182      -21.9670951097       -2.4148931047  W2        842             0.0000000000
      2527       843  TIP3      OH2            31.6548537182      -21.2504051097       -2.0544531047  W2        843             0.0000000000
      2528       843  TIP3      H1             31.4730537182      -20.3345151097       -2.2649631047  W2        843             0.0000000000
      2529       843  TIP3      H2             31.8316337182      -21.6606951097       -2.9009931047  W2        843             0.0000000000
      2530       844  TIP3      OH2            18.9600237182      -22.5633051097       -4.5894031047  W2        844             0.0000000000
      2531       844  TIP3      H1             18.9416237182      -22.9887951097       -3.7321731047  W2        844             0.0000000000
      2532       844  TIP3      H2             19.7648137182      -22.8818051097       -4.9981831047  W2        844             0.0000000000
      2533       845  TIP3      OH2            21.1013337182      -23.8534351097       -5.9344131047  W2        845             0.0000000000
      2534       845  TIP3      H1             20.8824037182      -24.7696951097       -5.7648131047  W2        845             0.0000000000
      2535       845  TIP3      H2             21.9255537182      -23.7133951097       -5.4682731047  W2        845             0.0000000000
      2536       846  TIP3      OH2            23.6385837182      -23.3835051097       -5.0856131047  W2        846             0.0000000000
      2537       846  TIP3      H1             23.8511537182      -24.2716051097       -5.3725231047  W2        846             0.0000000000
      2538       846  TIP3      H2             23.7030937182      -23.4177351097       -4.1312131047  W2        846             0.0000000000
      2539       847  TIP3      OH2            27.1469537182      -37.7194451097       -5.9412831047  W2        847             0.0000000000
      2540       847  TIP3      H1             26.4726337182      -38.3488851097       -5.6857031047  W2        847             0.0000000000
      2541       847  TIP3      H2             27.7108737182      -38.2035551097       -6.5444931047  W2        847             0.0000000000
      2542       848  TIP3      OH2            32.2896737182      -39.6120451097       -5.8285731047  W2        848             0.0000000000
      2543       848  TIP3      H1             32.8934337182      -39.0645051097       -6.3304731047  W2        848             0.0000000000
      2544       848  TIP3      H2             31.4198737182      -39.2930051097       -6.0691631047  W2        848             0.0000000000
      2545       849  TIP3      OH2            34.0167137182      -38.4731751097       -7.4954831047  W2        849             0.0000000000
      2546       849  TIP3      H1             34.6284637182      -38.9876051097       -8.0221231047  W2        849             0.0000000000
      2547       849  TIP3      H2             34.3990537182      -37.5959651097       -7.4720431047  W2        849             0.0000000000
      2548       850  TIP3      OH2            19.4737037182      -39.0854151097       -8.1192931047  W2        850             0.0000000000
      2549       850  TIP3      H1             18.6966837182      -39.3199251097       -8.6267031047  W2        850             0.0000000000
      2550       850  TIP3      H2             20.0040637182      -39.8822051097       -8.1104931047  W2        850             0.0000000000
      2551       851  TIP3      OH2            18.3100437182      -39.2876051097      -12.3156831047  W2        851             0.0000000000
      2552       851  TIP3      H1             18.7491137182      -38.6765551097      -12.9073331047  W2        851             0.0000000000
      2553       851  TIP3      H2             17.6762837182      -38.7491951097      -11.8416831047  W2        851             0.0000000000
      2554       852  TIP3      OH2            24.0529637182      -39.1587051097       -8.3059831047  W2        852             0.0000000000
      2555       852  TIP3      H1             24.9273037182      -38.7702751097       -8.3355531047  W2        852             0.0000000000
      2556       852  TIP3      H2             23.9170437182      -39.3739251097       -7.3832631047  W2        852             0.0000000000
      2557       853  TIP3      OH2            29.6098037182      -39.1287251097       -6.6568131047  W2        853             0.0000000000
      2558       853  TIP3      H1             29.6859637182      -39.0335651097       -7.6062131047  W2        853             0.0000000000
      2559       853  TIP3      H2             29.3347237182      -40.0364351097       -6.5279031047  W2        853             0.0000000000
      2560       854  TIP3      OH2            30.9630637182      -39.1029451097      -10.9643131047  W2        854             0.0000000000
      2561       854  TIP3      H1             30.2601737182      -38.4880251097      -11.1741731047  W2        854             0.0000000000
      2562       854  TIP3      H2             30.5182037182      -39.9402751097      -10.8332231047  W2        854             0.0000000000
      2563       855  TIP3      OH2            18.2109937182      -23.3393851097      -11.4181731047  W2        855             0.0000000000
      2564       855  TIP3      H1             17.5259837182      -23.3774951097      -12.0856631047  W2        855             0.0000000000
      2565       855  TIP3      H2             18.2147137182      -22.4266251097      -11.1299631047  W2        855             0.0000000000
      2566       856  TIP3      OH2            20.1709537182      -37.3714551097      -13.8732731047  W2        856             0.0000000000
      2567       856  TIP3      H1             20.6622937182      -38.0012151097      -14.4007231047  W2        856             0.0000000000
      2568       856  TIP3      H2             20.7945837182      -37.0755151097      -13.2101531047  W2        856             0.0000000000
      2569       857  TIP3      OH2            25.1969637182      -37.0783051097      -11.4162231047  W2        857             0.0000000000
      2570       857  TIP3      H1             25.3750937182      -37.7249851097      -10.7333631047  W2        857             0.0000000000
      2571       857  TIP3      H2             25.1435837182      -36.2445351097      -10.9491131047  W2        857             0.0000000000
      2572       858  TIP3      OH2            27.0753437182      -22.1298951097      -13.0205531047  W2        858             0.0000000000
      2573       858  TIP3      H1             27.9413637182      -21.7631551097      -13.1987331047  W2        858             0.0000000000
      2574       858  TIP3      H2             26.8286237182      -22.5690951097      -13.8344731047  W2        858             0.0000000000
      2575       859  TIP3      OH2            33.7843037182      -22.5668651097      -10.3414431047  W2        859             0.0000000000
      2576       859  TIP3      H1             33.5900137182      -23.3146551097      -10.9064831047  W2        859             0.0000000000
      2577       859  TIP3      H2             33.7453137182      -21.8088551097      -10.9246531047  W2        859             0.0000000000
      2578       860  TIP3      OH2            19.4315037182      -38.5712251097        1.3983268953  W2        860             0.0000000000
      2579       860  TIP3      H1             19.0653237182      -39.3369651097        1.8407968953  W2        860             0.0000000000
      2580       860  TIP3      H2             20.3443537182      -38.5422051097        1.6848368953  W2        860             0.0000000000
      2581       861  TIP3      OH2            21.4045837182      -39.2207851097        2.9340368953  W2        861             0.0000000000
      2582       861  TIP3      H1             22.3029437182      -39.4947651097        2.7493768953  W2        861             0.0000000000
      2583       861  TIP3      H2             21.0178937182      -39.9631851097        3.3982968953  W2        861             0.0000000000
      2584       862  TIP3      OH2            20.0291137182      -22.4193051097      -14.3929631047  W2        862             0.0000000000
      2585       862  TIP3      H1             19.7615737182      -22.1330151097      -13.5196531047  W2        862             0.0000000000
      2586       862  TIP3      H2             20.8003737182      -22.9653851097      -14.2407131047  W2        862             0.0000000000
      2587       863  TIP3      OH2            29.8258137182      -39.8882551097        3.1163168953  W2        863             0.0000000000
      2588       863  TIP3      H1             29.9025337182      -40.3141851097        3.9700868953  W2        863             0.0000000000
      2589       863  TIP3      H2             30.7194737182      -39.8747851097        2.7736668953  W2        863             0.0000000000
      2590       864  TIP3      OH2            33.0019237182      -23.8156251097        1.8087368953  W2        864             0.0000000000
      2591       864  TIP3      H1             32.2201137182      -24.0018251097        1.2887968953  W2        864             0.0000000000
      2592       864  TIP3      H2             32.9299137182      -22.8861951097        2.0259868953  W2        864             0.0000000000
      2593       865  TIP3      OH2            38.7095937182      -31.0599051097       -3.1487331047  W2        865             0.0000000000
      2594       865  TIP3      H1             38.7508037182      -31.6855751097       -2.4254931047  W2        865             0.0000000000
      2595       865  TIP3      H2             39.4123637182      -30.4360451097       -2.9666931047  W2        865             0.0000000000
      2596       866  TIP3      OH2            39.6329037182      -26.6100151097       -4.6138231047  W2        866             0.0000000000
      2597       866  TIP3      H1             39.2634237182      -27.4119651097       -4.9833931047  W2        866             0.0000000000
      2598       866  TIP3      H2             40.5740137182      -26.7785251097       -4.5674831047  W2        866             0.0000000000
      2599       867  TIP3      OH2            36.2429537182      -32.9497551097       -9.2209431047  W2        867             0.0000000000
      2600       867  TIP3      H1             35.7952937182      -32.1038851097       -9.2392931047  W2        867             0.0000000000
      2601       867  TIP3      H2             35.6820737182      -33.5293351097       -9.7364331047  W2        867             0.0000000000
      2602       868  TIP3      OH2            36.9535637182      -30.7877951097       -7.0951431047  W2        868             0.0000000000
      2603       868  TIP3      H1             37.1669137182      -31.5576351097       -6.5678431047  W2        868             0.0000000000
      2604       868  TIP3      H2             37.6913237182      -30.6981251097       -7.6983831047  W2        868             0.0000000000
      2605       869  TIP3      OH2            37.6462137182      -33.3495151097       -5.9735231047  W2        869             0.0000000000
      2606       869  TIP3      H1             38.2998737182      -33.8993451097       -5.5415131047  W2        869             0.0000000000
      2607       869  TIP3      H2             37.6701437182      -33.6236151097       -6.8903231047  W2        869             0.0000000000
      2608       870  TIP3      OH2            39.4299837182      -34.9360751097       -4.7093631047  W2        870             0.0000000000
      2609       870  TIP3      H1             40.0436137182      -34.3033151097       -4.3361231047  W2        870             0.0000000000
      2610       870  TIP3      H2             39.9420537182      -35.4085751097       -5.3656731047  W2        870             0.0000000000
      2611       871  TIP3      OH2            36.9339137182      -27.5175951097      -10.8051331047  W2        871             0.0000000000
      2612       871  TIP3      H1             36.6620037182      -27.2884951097      -11.6938431047  W2        871             0.0000000000
      2613       871  TIP3      H2             36.9794837182      -26.6797151097      -10.3446031047  W2        871             0.0000000000
      2614       872  TIP3      OH2            39.3469637182      -30.4792951097       -0.2951631047  W2        872             0.0000000000
      2615       872  TIP3      H1             39.4172837182      -29.8286151097        0.4033368953  W2        872             0.0000000000
      2616       872  TIP3      H2             38.4561837182      -30.3765451097       -0.6300731047  W2        872             0.0000000000
      2617       873  TIP3      OH2            36.2636337182      -28.4128851097       -1.4701631047  W2        873             0.0000000000
      2618       873  TIP3      H1             35.7624737182      -28.4409451097       -2.2851931047  W2        873             0.0000000000
      2619       873  TIP3      H2             36.2690037182      -29.3185651097       -1.1604331047  W2        873             0.0000000000
      2620       874  TIP3      OH2            36.0139037182      -25.6325051097       -4.5861431047  W2        874             0.0000000000
      2621       874  TIP3      H1             36.9599637182      -25.7768051097       -4.6051931047  W2        874             0.0000000000
      2622       874  TIP3      H2             35.9015337182      -24.8482251097       -4.0490231047  W2        874             0.0000000000
      2623       875  TIP3      OH2            39.2581137182      -22.8315451097       -8.4406731047  W2        875             0.0000000000
      2624       875  TIP3      H1             39.4101537182      -23.1795051097       -7.5620231047  W2        875             0.0000000000
      2625       875  TIP3      H2             38.4071537182      -23.1878151097       -8.6959531047  W2        875             0.0000000000
      2626       876  TIP3      OH2            38.5126837182      -27.0893451097       -0.4268831047  W2        876             0.0000000000
      2627       876  TIP3      H1             38.7288137182      -27.4507851097        0.4326968953  W2        876             0.0000000000
      2628       876  TIP3      H2             37.6571537182      -27.4639651097       -0.6365331047  W2        876             0.0000000000
      2629       877  TIP3      OH2            38.9725437182      -33.3334951097       -1.4692431047  W2        877             0.0000000000
      2630       877  TIP3      H1             38.9344837182      -32.9333351097       -0.6005331047  W2        877             0.0000000000
      2631       877  TIP3      H2             38.4816537182      -34.1502551097       -1.3789531047  W2        877             0.0000000000
      2632       878  TIP3      OH2            35.5806237182      -36.2173151097       -7.6187731047  W2        878             0.0000000000
      2633       878  TIP3      H1             36.2113937182      -36.2461051097       -6.8993831047  W2        878             0.0000000000
      2634       878  TIP3      H2             36.0300537182      -36.6424451097       -8.3491831047  W2        878             0.0000000000
      2635       879  TIP3      OH2            36.8548337182      -35.4711151097      -12.1947331047  W2        879             0.0000000000
      2636       879  TIP3      H1             37.3290037182      -34.8801251097      -12.7796431047  W2        879             0.0000000000
      2637       879  TIP3      H2             36.1374737182      -34.9408251097      -11.8477231047  W2        879             0.0000000000
      2638       880  TIP3      OH2            38.6292737182      -34.3764551097       -8.5112731047  W2        880             0.0000000000
      2639       880  TIP3      H1             37.7400737182      -34.2769051097       -8.8513131047  W2        880             0.0000000000
      2640       880  TIP3      H2             38.9257637182      -35.2181551097       -8.8574831047  W2        880             0.0000000000
      2641       881  TIP3      OH2            39.0916137182      -28.6247851097        1.8109568953  W2        881             0.0000000000
      2642       881  TIP3      H1             39.8238537182      -28.3701951097        2.3724068953  W2        881             0.0000000000
      2643       881  TIP3      H2             38.3114837182      -28.4202451097        2.3264968953  W2        881             0.0000000000
      2644       882  TIP3      OH2            39.4165837182      -29.3214051097       -5.5826031047  W2        882             0.0000000000
      2645       882  TIP3      H1             40.1613037182      -29.3238351097       -6.1839531047  W2        882             0.0000000000
      2646       882  TIP3      H2             39.4942437182      -30.1450251097       -5.1010931047  W2        882             0.0000000000
      2647       883  TIP3      OH2            36.4245537182      -30.8607151097       -0.2677531047  W2        883             0.0000000000
      2648       883  TIP3      H1             36.6474137182      -31.2787551097        0.5639968953  W2        883             0.0000000000
      2649       883  TIP3      H2             35.8225637182      -31.4732151097       -0.6904731047  W2        883             0.0000000000
      2650       884  TIP3      OH2            37.5462937182      -30.9411751097      -13.5912131047  W2        884             0.0000000000
      2651       884  TIP3      H1             38.1622837182      -30.3144551097      -13.2117331047  W2        884             0.0000000000
      2652       884  TIP3      H2             36.6845537182      -30.6251951097      -13.3195631047  W2        884             0.0000000000
      2653       885  TIP3      OH2            38.0585037182      -36.1074451097       -0.7096131047  W2        885             0.0000000000
      2654       885  TIP3      H1             37.1657337182      -35.7689051097       -0.7772131047  W2        885             0.0000000000
      2655       885  TIP3      H2             37.9597837182      -36.9628351097       -0.2915331047  W2        885             0.0000000000
      2656       886  TIP3      OH2            37.7097037182      -24.3030051097       -2.2746731047  W2        886             0.0000000000
      2657       886  TIP3      H1             37.9267337182      -25.2347651097       -2.3057031047  W2        886             0.0000000000
      2658       886  TIP3      H2             37.9560537182      -24.0285051097       -1.3913931047  W2        886             0.0000000000
      2659       887  TIP3      OH2            38.9613337182      -29.0287951097      -12.0986531047  W2        887             0.0000000000
      2660       887  TIP3      H1             38.2752637182      -28.6765451097      -11.5316831047  W2        887             0.0000000000
      2661       887  TIP3      H2             39.4841237182      -28.2658351097      -12.3452231047  W2        887             0.0000000000
      2662       888  TIP3      OH2            39.5772237182      -26.4149051097      -13.2018731047  W2        888             0.0000000000
      2663       888  TIP3      H1             40.1693737182      -25.7154251097      -12.9256331047  W2        888             0.0000000000
      2664       888  TIP3      H2             40.0365237182      -26.8479551097      -13.9214131047  W2        888             0.0000000000
      2665       889  TIP3      OH2            37.8931437182      -33.7506051097      -14.0859331047  W2        889             0.0000000000
      2666       889  TIP3      H1             37.8484037182      -32.8112951097      -13.9072331047  W2        889             0.0000000000
      2667       889  TIP3      H2             37.0054637182      -33.9861151097      -14.3557231047  W2        889             0.0000000000
      2668       890  TIP3      OH2            38.7013437182      -38.9689451097       -5.4128331047  W2        890             0.0000000000
      2669       890  TIP3      H1             38.4723237182      -38.9096951097       -6.3403331047  W2        890             0.0000000000
      2670       890  TIP3      H2             38.2586837182      -39.7603951097       -5.1064231047  W2        890             0.0000000000
      2671       891  TIP3      OH2            37.6316737182      -25.0282351097       -9.2522531047  W2        891             0.0000000000
      2672       891  TIP3      H1             36.7995337182      -24.5559651097       -9.2251131047  W2        891             0.0000000000
      2673       891  TIP3      H2             38.1775037182      -24.5184751097       -9.8509431047  W2        891             0.0000000000
      2674       892  TIP3      OH2            36.9200437182      -22.4158651097        2.0775468953  W2        892             0.0000000000
      2675       892  TIP3      H1             37.4602637182      -22.6324651097        2.8374668953  W2        892             0.0000000000
      2676       892  TIP3      H2             36.4388437182      -23.2212651097        1.8877968953  W2        892             0.0000000000
      2677       893  TIP3      OH2            36.8269937182      -28.6054551097        3.0319768953  W2        893             0.0000000000
      2678       893  TIP3      H1             36.9710437182      -29.5073851097        2.7456468953  W2        893             0.0000000000
      2679       893  TIP3      H2             36.0547337182      -28.3192451097        2.5442068953  W2        893             0.0000000000
      2680       894  TIP3      OH2            37.6596437182      -31.4051251097        2.4519068953  W2        894             0.0000000000
      2681       894  TIP3      H1             38.0677637182      -32.2624651097        2.3309668953  W2        894             0.0000000000
      2682       894  TIP3      H2             37.3994037182      -31.3909951097        3.3729368953  W2        894             0.0000000000
      2683       895  TIP3      OH2            38.6049537182      -35.9227451097        2.5245368953  W2        895             0.0000000000
      2684       895  TIP3      H1             38.8166937182      -36.6291351097        1.9142868953  W2        895             0.0000000000
      2685       895  TIP3      H2             38.4937037182      -36.3601451097        3.3686568953  W2        895             0.0000000000
      2686       896  TIP3      OH2            36.8544437182      -26.7193351097      -13.7832731047  W2        896             0.0000000000
      2687       896  TIP3      H1             37.7683637182      -26.6404451097      -13.5098831047  W2        896             0.0000000000
      2688       896  TIP3      H2             36.8617537182      -27.4063751097      -14.4497131047  W2        896             0.0000000000
      2689       897  TIP3      OH2            35.5035037182      -21.3264851097       -8.7058831047  W2        897             0.0000000000
      2690       897  TIP3      H1             34.8562137182      -21.7883151097       -9.2387631047  W2        897             0.0000000000
      2691       897  TIP3      H2             35.8579637182      -21.9981551097       -8.1232631047  W2        897             0.0000000000
      2692       898  TIP3      OH2            36.3734237182      -23.2457851097       -6.9012631047  W2        898             0.0000000000
      2693       898  TIP3      H1             36.0391037182      -24.1260551097       -6.7292431047  W2        898             0.0000000000
      2694       898  TIP3      H2             36.5956637182      -22.9002851097       -6.0367031047  W2        898             0.0000000000
      2695       899  TIP3      OH2            36.4533737182      -30.1702451097       -4.4497731047  W2        899             0.0000000000
      2696       899  TIP3      H1             36.6376637182      -30.2520751097       -5.3854831047  W2        899             0.0000000000
      2697       899  TIP3      H2             37.3026637182      -30.2945451097       -4.0261331047  W2        899             0.0000000000
      2698       900  TIP3      OH2            36.0508537182      -34.8997451097        1.6911068953  W2        900             0.0000000000
      2699       900  TIP3      H1             36.9703437182      -35.0219151097        1.9274168953  W2        900             0.0000000000
      2700       900  TIP3      H2             35.6013037182      -35.6497751097        2.0804568953  W2        900             0.0000000000
      2701       901  TIP3      OH2            37.2721037182      -36.5875851097       -5.4176031047  W2        901             0.0000000000
      2702       901  TIP3      H1             37.7172637182      -37.3793351097       -5.1156331047  W2        901             0.0000000000
      2703       901  TIP3      H2             37.7384037182      -35.8710651097       -4.9870431047  W2        901             0.0000000000
      2704       902  TIP3      OH2            35.5761337182      -33.5882851097       -4.3485831047  W2        902             0.0000000000
      2705       902  TIP3      H1             36.0681137182      -33.8092351097       -5.1393831047  W2        902             0.0000000000
      2706       902  TIP3      H2             35.9382237182      -32.7479451097       -4.0676331047  W2        902             0.0000000000
      2707       903  TIP3      OH2            35.8897837182      -37.3303751097      -10.2943431047  W2        903             0.0000000000
      2708       903  TIP3      H1             34.9646237182      -37.1217151097      -10.4237931047  W2        903             0.0000000000
      2709       903  TIP3      H2             36.3437737182      -36.8462951097      -10.9841131047  W2        903             0.0000000000
      2710       904  TIP3      OH2            35.8533237182      -38.5924751097       -1.9500931047  W2        904             0.0000000000
      2711       904  TIP3      H1             35.1883737182      -38.8384451097       -1.3070031047  W2        904             0.0000000000
      2712       904  TIP3      H2             35.4104537182      -37.9704351097       -2.5272931047  W2        904             0.0000000000
      2713       905  TIP3      OH2            38.0452537182      -25.4170651097        2.1944868953  W2        905             0.0000000000
      2714       905  TIP3      H1             37.2245037182      -25.2424151097        1.7339568953  W2        905             0.0000000000
      2715       905  TIP3      H2             37.7930337182      -25.4905951097        3.1149268953  W2        905             0.0000000000
      2716       906  TIP3      OH2            38.4012137182      -21.1865551097       -1.4995831047  W2        906             0.0000000000
      2717       906  TIP3      H1             37.6808537182      -20.7464551097       -1.9508131047  W2        906             0.0000000000
      2718       906  TIP3      H2             38.0356137182      -21.4370851097       -0.6511831047  W2        906             0.0000000000
      2719       907  TIP3      OH2            37.8160237182      -22.5633051097       -4.5894031047  W2        907             0.0000000000
      2720       907  TIP3      H1             37.7976237182      -22.9887951097       -3.7321731047  W2        907             0.0000000000
      2721       907  TIP3      H2             38.6208137182      -22.8818051097       -4.9981831047  W2        907             0.0000000000
      2722       908  TIP3      OH2            38.3297037182      -39.0854151097       -8.1192931047  W2        908             0.0000000000
      2723       908  TIP3      H1             37.5526837182      -39.3199251097       -8.6267031047  W2        908             0.0000000000
      2724       908  TIP3      H2             38.8600637182      -39.8822051097       -8.1104931047  W2        908             0.0000000000
      2725       909  TIP3      OH2            37.1660437182      -39.2876051097      -12.3156831047  W2        909             0.0000000000
      2726       909  TIP3      H1             37.6051137182      -38.6765551097      -12.9073331047  W2        909             0.0000000000
      2727       909  TIP3      H2             36.5322837182      -38.7491951097      -11.8416831047  W2        909             0.0000000000
      2728       910  TIP3      OH2            37.0669937182      -23.3393851097      -11.4181731047  W2        910             0.0000000000
      2729       910  TIP3      H1             36.3819837182      -23.3774951097      -12.0856631047  W2        910             0.0000000000
      2730       910  TIP3      H2             37.0707137182      -22.4266251097      -11.1299631047  W2        910             0.0000000000
      2731       911  TIP3      OH2            39.0269537182      -37.3714551097      -13.8732731047  W2        911             0.0000000000
      2732       911  TIP3      H1             39.5182937182      -38.0012151097      -14.4007231047  W2        911             0.0000000000
      2733       911  TIP3      H2             39.6505837182      -37.0755151097      -13.2101531047  W2        911             0.0000000000
      2734       912  TIP3      OH2            38.2875037182      -38.5712251097        1.3983268953  W2        912             0.0000000000
      2735       912  TIP3      H1             37.9213237182      -39.3369651097        1.8407968953  W2        912             0.0000000000
      2736       912  TIP3      H2             39.2003537182      -38.5422051097        1.6848368953  W2        912             0.0000000000
      2737       913  TIP3      OH2            38.8851137182      -22.4193051097      -14.3929631047  W2        913             0.0000000000
      2738       913  TIP3      H1             38.6175737182      -22.1330151097      -13.5196531047  W2        913             0.0000000000
      2739       913  TIP3      H2             39.6563737182      -22.9653851097      -14.2407131047  W2        913             0.0000000000
      2740       914  TIP3      OH2           -28.0160362818      -11.0731851097       -8.1605431047  W2        914             0.0000000000
      2741       914  TIP3      H1            -27.9269262818      -10.1293651097       -8.2928331047  W2        914             0.0000000000
      2742       914  TIP3      H2            -28.6542762818      -11.3485451097       -8.8186031047  W2        914             0.0000000000
      2743       915  TIP3      OH2           -29.0829062818      -11.8181151097       -4.7417231047  W2        915             0.0000000000
      2744       915  TIP3      H1            -29.1211562818      -12.4644851097       -4.0367631047  W2        915             0.0000000000
      2745       915  TIP3      H2            -29.4052562818      -12.2846751097       -5.5128531047  W2        915             0.0000000000
      2746       916  TIP3      OH2           -36.7144062818      -12.2039051097       -3.1487331047  W2        916             0.0000000000
      2747       916  TIP3      H1            -36.6731962818      -12.8295751097       -2.4254931047  W2        916             0.0000000000
      2748       916  TIP3      H2            -36.0116362818      -11.5800451097       -2.9666931047  W2        916             0.0000000000
      2749       917  TIP3      OH2           -25.3768862818       -8.8790751097       -6.4402131047  W2        917             0.0000000000
      2750       917  TIP3      H1            -25.8176162818       -9.5994751097       -5.9896531047  W2        917             0.0000000000
      2751       917  TIP3      H2            -25.3899162818       -8.1583551097       -5.8104431047  W2        917             0.0000000000
      2752       918  TIP3      OH2           -35.7910962818       -7.7540151097       -4.6138231047  W2        918             0.0000000000
      2753       918  TIP3      H1            -36.1605762818       -8.5559651097       -4.9833931047  W2        918             0.0000000000
      2754       918  TIP3      H2            -34.8499862818       -7.9225251097       -4.5674831047  W2        918             0.0000000000
      2755       919  TIP3      OH2           -39.1810462818      -14.0937551097       -9.2209431047  W2        919             0.0000000000
      2756       919  TIP3      H1            -39.6287062818      -13.2478851097       -9.2392931047  W2        919             0.0000000000
      2757       919  TIP3      H2            -39.7419262818      -14.6733351097       -9.7364331047  W2        919             0.0000000000
      2758       920  TIP3      OH2           -38.4704362818      -11.9317951097       -7.0951431047  W2        920             0.0000000000
      2759       920  TIP3      H1            -38.2570862818      -12.7016351097       -6.5678431047  W2        920             0.0000000000
      2760       920  TIP3      H2            -37.7326762818      -11.8421251097       -7.6983831047  W2        920             0.0000000000
      2761       921  TIP3      OH2           -28.2653362818       -3.7749051097       -6.2281731047  W2        921             0.0000000000
      2762       921  TIP3      H1            -27.6456962818       -4.4514351097       -6.5012531047  W2        921             0.0000000000
      2763       921  TIP3      H2            -28.4735962818       -3.9928251097       -5.3196831047  W2        921             0.0000000000
      2764       922  TIP3      OH2           -30.6934662818       -9.3859751097       -4.3356231047  W2        922             0.0000000000
      2765       922  TIP3      H1            -30.3896762818      -10.0718351097       -4.9302131047  W2        922             0.0000000000
      2766       922  TIP3      H2            -29.9720662818       -9.2671051097       -3.7178231047  W2        922             0.0000000000
      2767       923  TIP3      OH2           -22.0304862818      -17.7844451097       -3.4750031047  W2        923             0.0000000000
      2768       923  TIP3      H1            -21.9812662818      -17.1743251097       -2.7390931047  W2        923             0.0000000000
      2769       923  TIP3      H2            -21.6049762818      -17.3233551097       -4.1978931047  W2        923             0.0000000000
      2770       924  TIP3      OH2           -27.5527662818      -14.9917351097       -4.0081431047  W2        924             0.0000000000
      2771       924  TIP3      H1            -27.4101762818      -15.9380351097       -3.9879831047  W2        924             0.0000000000
      2772       924  TIP3      H2            -27.6588662818      -14.7847551097       -4.9366531047  W2        924             0.0000000000
      2773       925  TIP3      OH2           -34.3979362818      -16.8900951097       -6.7356631047  W2        925             0.0000000000
      2774       925  TIP3      H1            -34.3548262818      -16.0302451097       -7.1540331047  W2        925             0.0000000000
      2775       925  TIP3      H2            -34.8555262818      -17.4426251097       -7.3693431047  W2        925             0.0000000000
      2776       926  TIP3      OH2           -26.6756662818      -16.7595351097       -8.3348331047  W2        926             0.0000000000
      2777       926  TIP3      H1            -26.0292362818      -17.0882151097       -7.7100731047  W2        926             0.0000000000
      2778       926  TIP3      H2            -26.1657262818      -16.2416351097       -8.9576931047  W2        926             0.0000000000
      2779       927  TIP3      OH2           -37.7777862818      -14.4935151097       -5.9735231047  W2        927             0.0000000000
      2780       927  TIP3      H1            -37.1241262818      -15.0433451097       -5.5415131047  W2        927             0.0000000000
      2781       927  TIP3      H2            -37.7538562818      -14.7676151097       -6.8903231047  W2        927             0.0000000000
      2782       928  TIP3      OH2           -32.6213362818      -12.9433851097       -6.7583731047  W2        928             0.0000000000
      2783       928  TIP3      H1            -32.0052362818      -13.4698451097       -6.2489731047  W2        928             0.0000000000
      2784       928  TIP3      H2            -33.2074562818      -13.5835151097       -7.1620131047  W2        928             0.0000000000
      2785       929  TIP3      OH2           -21.6390262818      -16.3065251097       -1.2390231047  W2        929             0.0000000000
      2786       929  TIP3      H1            -22.3275662818      -15.6484551097       -1.3343631047  W2        929             0.0000000000
      2787       929  TIP3      H2            -21.6235662818      -16.5037351097       -0.3024831047  W2        929             0.0000000000
      2788       930  TIP3      OH2           -35.5877462818      -17.9722551097       -2.6615831047  W2        930             0.0000000000
      2789       930  TIP3      H1            -35.8065762818      -17.4421951097       -3.4279831047  W2        930             0.0000000000
      2790       930  TIP3      H2            -36.2556562818      -17.7457051097       -2.0144431047  W2        930             0.0000000000
      2791       931  TIP3      OH2           -28.2187662818       -8.4721451097       -9.1176731047  W2        931             0.0000000000
      2792       931  TIP3      H1            -28.5142562818       -8.7949151097       -9.9689831047  W2        931             0.0000000000
      2793       931  TIP3      H2            -28.5429862818       -7.5724751097       -9.0764131047  W2        931             0.0000000000
      2794       932  TIP3      OH2           -33.0186062818      -10.2966851097       -2.3742131047  W2        932             0.0000000000
      2795       932  TIP3      H1            -33.7586962818       -9.6985351097       -2.2706931047  W2        932             0.0000000000
      2796       932  TIP3      H2            -32.3046562818       -9.7427251097       -2.6898531047  W2        932             0.0000000000
      2797       933  TIP3      OH2           -24.9118262818      -17.4686051097       -6.3542431047  W2        933             0.0000000000
      2798       933  TIP3      H1            -25.1270262818      -18.2342651097       -5.8216431047  W2        933             0.0000000000
      2799       933  TIP3      H2            -24.2560862818      -16.9961451097       -5.8413931047  W2        933             0.0000000000
      2800       934  TIP3      OH2           -35.9940162818      -16.0800751097       -4.7093631047  W2        934             0.0000000000
      2801       934  TIP3      H1            -35.3803862818      -15.4473151097       -4.3361231047  W2        934             0.0000000000
      2802       934  TIP3      H2            -35.4819462818      -16.5525751097       -5.3656731047  W2        934             0.0000000000
      2803       935  TIP3      OH2           -34.6111762818       -8.3323851097       -1.5870631047  W2        935             0.0000000000
      2804       935  TIP3      H1            -34.6164162818       -7.4530351097       -1.9651331047  W2        935             0.0000000000
      2805       935  TIP3      H2            -35.4647662818       -8.4159751097       -1.1620731047  W2        935             0.0000000000
      2806       936  TIP3      OH2           -38.4900862818       -8.6615951097      -10.8051331047  W2        936             0.0000000000
      2807       936  TIP3      H1            -38.7619962818       -8.4324951097      -11.6938431047  W2        936             0.0000000000
      2808       936  TIP3      H2            -38.4445162818       -7.8237151097      -10.3446031047  W2        936             0.0000000000
      2809       937  TIP3      OH2           -24.8651162818       -7.0400051097       -4.0922831047  W2        937             0.0000000000
      2810       937  TIP3      H1            -25.8067462818       -6.9816151097       -3.9305931047  W2        937             0.0000000000
      2811       937  TIP3      H2            -24.5885062818       -6.1339551097       -4.2293131047  W2        937             0.0000000000
      2812       938  TIP3      OH2           -24.5644162818      -18.7534751097       -2.6748931047  W2        938             0.0000000000
      2813       938  TIP3      H1            -25.3004962818      -18.1427651097       -2.7127631047  W2        938             0.0000000000
      2814       938  TIP3      H2            -23.8810162818      -18.3385751097       -3.2012531047  W2        938             0.0000000000
      2815       939  TIP3      OH2           -31.5612762818      -20.6667451097       -5.2090931047  W2        939             0.0000000000
      2816       939  TIP3      H1            -31.6788562818      -21.6151451097       -5.2632631047  W2        939             0.0000000000
      2817       939  TIP3      H2            -32.4162662818      -20.3341351097       -4.9359831047  W2        939             0.0000000000
      2818       940  TIP3      OH2           -26.6129962818       -5.2586551097       -7.4671231047  W2        940             0.0000000000
      2819       940  TIP3      H1            -26.1877662818       -5.9658651097       -7.9521631047  W2        940             0.0000000000
      2820       940  TIP3      H2            -26.2959962818       -4.4573851097       -7.8839031047  W2        940             0.0000000000
      2821       941  TIP3      OH2           -25.4533462818       -7.3578051097       -8.9584631047  W2        941             0.0000000000
      2822       941  TIP3      H1            -25.7108662818       -8.0477951097       -9.5698731047  W2        941             0.0000000000
      2823       941  TIP3      H2            -25.3822662818       -7.8006851097       -8.1128731047  W2        941             0.0000000000
      2824       942  TIP3      OH2           -23.7673262818       -8.7911351097       -0.4811131047  W2        942             0.0000000000
      2825       942  TIP3      H1            -23.6276962818       -9.3828851097       -1.2204131047  W2        942             0.0000000000
      2826       942  TIP3      H2            -23.6000462818       -7.9185451097       -0.8372331047  W2        942             0.0000000000
      2827       943  TIP3      OH2           -29.2947862818      -11.8291851097      -10.7085131047  W2        943             0.0000000000
      2828       943  TIP3      H1            -30.0062362818      -11.2942151097      -11.0604631047  W2        943             0.0000000000
      2829       943  TIP3      H2            -28.6038262818      -11.7739751097      -11.3686231047  W2        943             0.0000000000
      2830       944  TIP3      OH2           -29.2408662818      -13.3717551097      -13.6700131047  W2        944             0.0000000000
      2831       944  TIP3      H1            -28.5398762818      -13.3490651097      -13.0186131047  W2        944             0.0000000000
      2832       944  TIP3      H2            -28.9385762818      -13.9997851097      -14.3260831047  W2        944             0.0000000000
      2833       945  TIP3      OH2           -21.9253962818      -12.4513351097       -2.4150731047  W2        945             0.0000000000
      2834       945  TIP3      H1            -22.5779862818      -11.7567751097       -2.3259831047  W2        945             0.0000000000
      2835       945  TIP3      H2            -21.4603662818      -12.2412451097       -3.2249131047  W2        945             0.0000000000
      2836       946  TIP3      OH2           -25.8890162818      -11.6198551097       -9.7569231047  W2        946             0.0000000000
      2837       946  TIP3      H1            -26.6209162818      -11.3914851097       -9.1838631047  W2        946             0.0000000000
      2838       946  TIP3      H2            -25.4417962818      -12.3335851097       -9.3021731047  W2        946             0.0000000000
      2839       947  TIP3      OH2           -25.9916662818      -13.4455951097       -0.6892231047  W2        947             0.0000000000
      2840       947  TIP3      H1            -25.9117562818      -12.6821551097       -0.1173731047  W2        947             0.0000000000
      2841       947  TIP3      H2            -26.5928962818      -13.1663551097       -1.3797131047  W2        947             0.0000000000
      2842       948  TIP3      OH2           -34.2436462818      -10.9892351097       -7.8744231047  W2        948             0.0000000000
      2843       948  TIP3      H1            -34.5741262818      -11.3598951097       -8.6927231047  W2        948             0.0000000000
      2844       948  TIP3      H2            -33.6552362818      -11.6598351097       -7.5275931047  W2        948             0.0000000000
      2845       949  TIP3      OH2           -32.8768962818       -7.5611751097       -5.1932031047  W2        949             0.0000000000
      2846       949  TIP3      H1            -32.9717662818       -8.1398651097       -5.9497431047  W2        949             0.0000000000
      2847       949  TIP3      H2            -32.1475362818       -7.9326051097       -4.6969231047  W2        949             0.0000000000
      2848       950  TIP3      OH2           -33.8770962818      -12.2206751097       -4.2409231047  W2        950             0.0000000000
      2849       950  TIP3      H1            -33.3118462818      -12.0992551097       -5.0038031047  W2        950             0.0000000000
      2850       950  TIP3      H2            -33.5582062818      -11.5831751097       -3.6020731047  W2        950             0.0000000000
      2851       951  TIP3      OH2           -27.5678762818       -6.7174851097       -3.5068731047  W2        951             0.0000000000
      2852       951  TIP3      H1            -27.8082162818       -6.0551751097       -2.8589531047  W2        951             0.0000000000
      2853       951  TIP3      H2            -27.7660562818       -7.5519651097       -3.0819131047  W2        951             0.0000000000
      2854       952  TIP3      OH2           -32.9970262818       -7.8214051097        0.4762668953  W2        952             0.0000000000
      2855       952  TIP3      H1            -33.3082762818       -7.0390851097        0.9315868953  W2        952             0.0000000000
      2856       952  TIP3      H2            -33.6470062818       -7.9744951097       -0.2095331047  W2        952             0.0000000000
      2857       953  TIP3      OH2           -27.0180662818      -12.4575651097      -12.0718031047  W2        953             0.0000000000
      2858       953  TIP3      H1            -26.4385162818      -12.3075351097      -11.3249131047  W2        953             0.0000000000
      2859       953  TIP3      H2            -26.6040662818      -11.9868251097      -12.7951631047  W2        953             0.0000000000
      2860       954  TIP3      OH2           -36.0770362818      -11.6232951097       -0.2951631047  W2        954             0.0000000000
      2861       954  TIP3      H1            -36.0067162818      -10.9726151097        0.4033368953  W2        954             0.0000000000
      2862       954  TIP3      H2            -36.9678162818      -11.5205451097       -0.6300731047  W2        954             0.0000000000
      2863       955  TIP3      OH2           -29.2915762818       -5.7207151097       -8.6364931047  W2        955             0.0000000000
      2864       955  TIP3      H1            -28.8178162818       -5.4250851097       -7.8590731047  W2        955             0.0000000000
      2865       955  TIP3      H2            -29.8546462818       -4.9825551097       -8.8695331047  W2        955             0.0000000000
      2866       956  TIP3      OH2           -34.7574362818       -5.7499051097        1.2396468953  W2        956             0.0000000000
      2867       956  TIP3      H1            -34.7499062818       -5.8859351097        0.2921968953  W2        956             0.0000000000
      2868       956  TIP3      H2            -35.6733962818       -5.8670951097        1.4916468953  W2        956             0.0000000000
      2869       957  TIP3      OH2           -23.3192262818      -20.7075251097      -12.2588331047  W2        957             0.0000000000
      2870       957  TIP3      H1            -24.2191562818      -20.5686251097      -11.9637731047  W2        957             0.0000000000
      2871       957  TIP3      H2            -23.0673862818      -19.8760651097      -12.6606631047  W2        957             0.0000000000
      2872       958  TIP3      OH2           -35.2533762818      -11.9198051097      -10.2851431047  W2        958             0.0000000000
      2873       958  TIP3      H1            -35.5452462818      -11.1516351097      -10.7760131047  W2        958             0.0000000000
      2874       958  TIP3      H2            -35.9278562818      -12.5791851097      -10.4480031047  W2        958             0.0000000000
      2875       959  TIP3      OH2           -22.1300862818       -6.3412851097      -13.8824431047  W2        959             0.0000000000
      2876       959  TIP3      H1            -22.0567362818       -5.4022651097      -13.7119131047  W2        959             0.0000000000
      2877       959  TIP3      H2            -21.2245762818       -6.6464251097      -13.9387131047  W2        959             0.0000000000
      2878       960  TIP3      OH2           -39.1603662818       -9.5568851097       -1.4701631047  W2        960             0.0000000000
      2879       960  TIP3      H1            -39.6615262818       -9.5849451097       -2.2851931047  W2        960             0.0000000000
      2880       960  TIP3      H2            -39.1549962818      -10.4625651097       -1.1604331047  W2        960             0.0000000000
      2881       961  TIP3      OH2           -39.4100962818       -6.7765051097       -4.5861431047  W2        961             0.0000000000
      2882       961  TIP3      H1            -38.4640362818       -6.9208051097       -4.6051931047  W2        961             0.0000000000
      2883       961  TIP3      H2            -39.5224662818       -5.9922251097       -4.0490231047  W2        961             0.0000000000
      2884       962  TIP3      OH2           -21.2122462818       -6.1105351097        1.0962268953  W2        962             0.0000000000
      2885       962  TIP3      H1            -21.2615662818       -7.0657251097        1.0589868953  W2        962             0.0000000000
      2886       962  TIP3      H2            -22.0390162818       -5.8430051097        1.4976068953  W2        962             0.0000000000
      2887       963  TIP3      OH2           -30.2338462818       -6.5366151097       -0.0276331047  W2        963             0.0000000000
      2888       963  TIP3      H1            -30.1463862818       -5.7101551097        0.4472768953  W2        963             0.0000000000
      2889       963  TIP3      H2            -31.0973362818       -6.8662351097        0.2212968953  W2        963             0.0000000000
      2890       964  TIP3      OH2           -29.8192662818       -2.7642451097      -10.2215731047  W2        964             0.0000000000
      2891       964  TIP3      H1            -29.8946662818       -2.8855251097      -11.1680531047  W2        964             0.0000000000
      2892       964  TIP3      H2            -29.7863962818       -1.8149751097      -10.1031131047  W2        964             0.0000000000
      2893       965  TIP3      OH2           -36.1658862818       -3.9755451097       -8.4406731047  W2        965             0.0000000000
      2894       965  TIP3      H1            -36.0138462818       -4.3235051097       -7.5620231047  W2        965             0.0000000000
      2895       965  TIP3      H2            -37.0168462818       -4.3318151097       -8.6959531047  W2        965             0.0000000000
      2896       966  TIP3      OH2           -26.7176662818       -3.6102251097      -13.2193331047  W2        966             0.0000000000
      2897       966  TIP3      H1            -26.3428262818       -4.3546151097      -13.6900731047  W2        966             0.0000000000
      2898       966  TIP3      H2            -26.7132962818       -3.8801651097      -12.3010031047  W2        966             0.0000000000
      2899       967  TIP3      OH2           -27.0488562818       -3.6845151097      -10.4701131047  W2        967             0.0000000000
      2900       967  TIP3      H1            -27.9838762818       -3.5843251097      -10.2914131047  W2        967             0.0000000000
      2901       967  TIP3      H2            -26.7686662818       -4.3939151097       -9.8917931047  W2        967             0.0000000000
      2902       968  TIP3      OH2           -24.0602662818      -14.6172851097        1.5764468953  W2        968             0.0000000000
      2903       968  TIP3      H1            -24.4675862818      -14.1367251097        0.8557768953  W2        968             0.0000000000
      2904       968  TIP3      H2            -24.0196962818      -15.5226851097        1.2685268953  W2        968             0.0000000000
      2905       969  TIP3      OH2           -36.9113162818       -8.2333451097       -0.4268831047  W2        969             0.0000000000
      2906       969  TIP3      H1            -36.6951862818       -8.5947851097        0.4326968953  W2        969             0.0000000000
      2907       969  TIP3      H2            -37.7668462818       -8.6079651097       -0.6365331047  W2        969             0.0000000000
      2908       970  TIP3      OH2           -34.2925162818      -19.7632951097       -4.4314631047  W2        970             0.0000000000
      2909       970  TIP3      H1            -35.1541462818      -19.8504751097       -4.8391731047  W2        970             0.0000000000
      2910       970  TIP3      H2            -34.3149462818      -18.9072851097       -4.0037031047  W2        970             0.0000000000
      2911       971  TIP3      OH2           -29.6297362818      -20.0412551097       -1.0567631047  W2        971             0.0000000000
      2912       971  TIP3      H1            -29.2094262818      -20.4565451097       -0.3037031047  W2        971             0.0000000000
      2913       971  TIP3      H2            -30.5627762818      -20.2199251097       -0.9395631047  W2        971             0.0000000000
      2914       972  TIP3      OH2           -26.3032462818      -16.2857351097       -0.2033131047  W2        972             0.0000000000
      2915       972  TIP3      H1            -26.8172962818      -16.4115151097        0.5942868953  W2        972             0.0000000000
      2916       972  TIP3      H2            -26.4587762818      -15.3734251097       -0.4476931047  W2        972             0.0000000000
      2917       973  TIP3      OH2           -25.5407562818      -11.4247351097      -14.4420131047  W2        973             0.0000000000
      2918       973  TIP3      H1            -25.4986762818      -11.6473451097      -15.3720131047  W2        973             0.0000000000
      2919       973  TIP3      H2            -24.6915462818      -11.0260251097      -14.2520231047  W2        973             0.0000000000
      2920       974  TIP3      OH2           -29.9680062818      -17.5489151097      -13.7716831047  W2        974             0.0000000000
      2921       974  TIP3      H1            -30.2215262818      -17.5297551097      -12.8488731047  W2        974             0.0000000000
      2922       974  TIP3      H2            -30.2247962818      -18.4203751097      -14.0730631047  W2        974             0.0000000000
      2923       975  TIP3      OH2           -34.2015062818      -14.7978451097       -3.3364431047  W2        975             0.0000000000
      2924       975  TIP3      H1            -34.8432962818      -14.8381151097       -2.6274331047  W2        975             0.0000000000
      2925       975  TIP3      H2            -34.1643062818      -13.8713751097       -3.5741431047  W2        975             0.0000000000
      2926       976  TIP3      OH2           -34.2045962818      -14.5768351097       -8.4244431047  W2        976             0.0000000000
      2927       976  TIP3      H1            -35.0973062818      -14.9172251097       -8.4830631047  W2        976             0.0000000000
      2928       976  TIP3      H2            -33.7539362818      -14.9537451097       -9.1801231047  W2        976             0.0000000000
      2929       977  TIP3      OH2           -28.6690462818      -14.1608051097       -9.6073631047  W2        977             0.0000000000
      2930       977  TIP3      H1            -29.0780162818      -13.3459451097       -9.8988831047  W2        977             0.0000000000
      2931       977  TIP3      H2            -27.9484262818      -14.3007951097      -10.2216531047  W2        977             0.0000000000
      2932       978  TIP3      OH2           -29.5668862818      -13.9851651097        1.8807068953  W2        978             0.0000000000
      2933       978  TIP3      H1            -30.1295062818      -14.6900051097        2.2014868953  W2        978             0.0000000000
      2934       978  TIP3      H2            -28.7405462818      -14.1059751097        2.3484668953  W2        978             0.0000000000
      2935       979  TIP3      OH2           -27.6642762818      -14.7147651097       -6.7933931047  W2        979             0.0000000000
      2936       979  TIP3      H1            -27.8598262818      -14.1090851097       -7.5083331047  W2        979             0.0000000000
      2937       979  TIP3      H2            -27.4830162818      -15.5482451097       -7.2277631047  W2        979             0.0000000000
      2938       980  TIP3      OH2           -36.4514562818      -14.4774951097       -1.4692431047  W2        980             0.0000000000
      2939       980  TIP3      H1            -36.4895162818      -14.0773351097       -0.6005331047  W2        980             0.0000000000
      2940       980  TIP3      H2            -36.9423462818      -15.2942551097       -1.3789531047  W2        980             0.0000000000
      2941       981  TIP3      OH2           -33.0857162818      -17.1032651097      -14.6706431047  W2        981             0.0000000000
      2942       981  TIP3      H1            -33.5166462818      -17.5482551097      -13.9409031047  W2        981             0.0000000000
      2943       981  TIP3      H2            -33.8038462818      -16.7316351097      -15.1828931047  W2        981             0.0000000000
      2944       982  TIP3      OH2           -39.8433762818      -17.3613151097       -7.6187731047  W2        982             0.0000000000
      2945       982  TIP3      H1            -39.2126062818      -17.3901051097       -6.8993831047  W2        982             0.0000000000
      2946       982  TIP3      H2            -39.3939462818      -17.7864451097       -8.3491831047  W2        982             0.0000000000
      2947       983  TIP3      OH2           -38.5691662818      -16.6151151097      -12.1947331047  W2        983             0.0000000000
      2948       983  TIP3      H1            -38.0949962818      -16.0241251097      -12.7796431047  W2        983             0.0000000000
      2949       983  TIP3      H2            -39.2865262818      -16.0848251097      -11.8477231047  W2        983             0.0000000000
      2950       984  TIP3      OH2           -28.4003562818      -13.0766351097       -2.1221531047  W2        984             0.0000000000
      2951       984  TIP3      H1            -28.0768762818      -13.7076651097       -2.7651031047  W2        984             0.0000000000
      2952       984  TIP3      H2            -28.8404262818      -13.6114151097       -1.4614131047  W2        984             0.0000000000
      2953       985  TIP3      OH2           -31.6230662818      -17.1490851097       -7.3380331047  W2        985             0.0000000000
      2954       985  TIP3      H1            -32.5339562818      -17.0924051097       -7.0494331047  W2        985             0.0000000000
      2955       985  TIP3      H2            -31.1177762818      -17.2095351097       -6.5273131047  W2        985             0.0000000000
      2956       986  TIP3      OH2           -36.7947262818      -15.5204551097       -8.5112731047  W2        986             0.0000000000
      2957       986  TIP3      H1            -37.6839262818      -15.4209051097       -8.8513131047  W2        986             0.0000000000
      2958       986  TIP3      H2            -36.4982362818      -16.3621551097       -8.8574831047  W2        986             0.0000000000
      2959       987  TIP3      OH2           -33.1415462818      -15.5201951097      -10.8548131047  W2        987             0.0000000000
      2960       987  TIP3      H1            -32.2099962818      -15.3911951097      -10.6765031047  W2        987             0.0000000000
      2961       987  TIP3      H2            -33.3565162818      -14.8507651097      -11.5043431047  W2        987             0.0000000000
      2962       988  TIP3      OH2           -27.2178762818      -17.9144551097       -4.0738531047  W2        988             0.0000000000
      2963       988  TIP3      H1            -27.8947162818      -17.7831451097       -3.4098831047  W2        988             0.0000000000
      2964       988  TIP3      H2            -27.7033862818      -18.0695051097       -4.8840831047  W2        988             0.0000000000
      2965       989  TIP3      OH2           -34.4675262818      -14.3259751097      -13.2882031047  W2        989             0.0000000000
      2966       989  TIP3      H1            -35.0100162818      -14.7055951097      -13.9794431047  W2        989             0.0000000000
      2967       989  TIP3      H2            -33.6340362818      -14.1315051097      -13.7167931047  W2        989             0.0000000000
      2968       990  TIP3      OH2           -23.9303662818       -2.2429151097        2.2029068953  W2        990             0.0000000000
      2969       990  TIP3      H1            -23.7304962818       -1.8187251097        1.3684368953  W2        990             0.0000000000
      2970       990  TIP3      H2            -23.2749962818       -1.8990951097        2.8099468953  W2        990             0.0000000000
      2971       991  TIP3      OH2           -36.3323862818       -9.7687851097        1.8109568953  W2        991             0.0000000000
      2972       991  TIP3      H1            -35.6001462818       -9.5141951097        2.3724068953  W2        991             0.0000000000
      2973       991  TIP3      H2            -37.1125162818       -9.5642451097        2.3264968953  W2        991             0.0000000000
      2974       992  TIP3      OH2           -30.3030962818      -14.3617851097       -5.4510731047  W2        992             0.0000000000
      2975       992  TIP3      H1            -29.7387562818      -14.9081251097       -5.9981131047  W2        992             0.0000000000
      2976       992  TIP3      H2            -30.4507562818      -14.8835951097       -4.6623131047  W2        992             0.0000000000
      2977       993  TIP3      OH2           -35.3011262818      -18.2251751097       -9.0325931047  W2        993             0.0000000000
      2978       993  TIP3      H1            -35.6181762818      -19.1276451097       -9.0680531047  W2        993             0.0000000000
      2979       993  TIP3      H2            -34.5197162818      -18.2234351097       -9.5854331047  W2        993             0.0000000000
      2980       994  TIP3      OH2           -31.6765062818      -15.9731751097       -3.0370331047  W2        994             0.0000000000
      2981       994  TIP3      H1            -32.5119762818      -15.5192251097       -2.9267931047  W2        994             0.0000000000
      2982       994  TIP3      H2            -31.1524462818      -15.6973251097       -2.2850431047  W2        994             0.0000000000
      2983       995  TIP3      OH2           -31.1322462818       -9.7604051097      -11.3523931047  W2        995             0.0000000000
      2984       995  TIP3      H1            -31.8771462818      -10.2678751097      -11.6746031047  W2        995             0.0000000000
      2985       995  TIP3      H2            -31.2665262818       -9.7116051097      -10.4059131047  W2        995             0.0000000000
      2986       996  TIP3      OH2           -23.9823562818      -10.6275851097       -2.5656331047  W2        996             0.0000000000
      2987       996  TIP3      H1            -23.3404762818      -10.1709551097       -3.1094131047  W2        996             0.0000000000
      2988       996  TIP3      H2            -24.8126662818      -10.5143451097       -3.0282231047  W2        996             0.0000000000
      2989       997  TIP3      OH2           -27.2345662818      -16.9464151097      -13.1531331047  W2        997             0.0000000000
      2990       997  TIP3      H1            -28.1731462818      -16.8348551097      -13.3042531047  W2        997             0.0000000000
      2991       997  TIP3      H2            -26.9373562818      -16.0897251097      -12.8465631047  W2        997             0.0000000000
      2992       998  TIP3      OH2           -29.6130362818       -9.5760751097       -0.1154831047  W2        998             0.0000000000
      2993       998  TIP3      H1            -29.9584262818       -9.9578351097        0.6914768953  W2        998             0.0000000000
      2994       998  TIP3      H2            -29.8130262818       -8.6427151097       -0.0441931047  W2        998             0.0000000000
      2995       999  TIP3      OH2           -26.5162162818      -15.0791451097      -11.4923931047  W2        999             0.0000000000
      2996       999  TIP3      H1            -25.6243162818      -15.2166451097      -11.1732731047  W2        999             0.0000000000
      2997       999  TIP3      H2            -26.4598562818      -14.2885351097      -12.0290431047  W2        999             0.0000000000
      2998      1000  TIP3      OH2           -36.0074162818      -10.4654051097       -5.5826031047  W2        1000            0.0000000000
      2999      1000  TIP3      H1            -35.2626962818      -10.4678351097       -6.1839531047  W2        1000            0.0000000000
      3000      1000  TIP3      H2            -35.9297562818      -11.2890251097       -5.1010931047  W2        1000            0.0000000000
      3001      1001  TIP3      OH2           -29.0068362818       -8.3019751097      -12.3269331047  W2        1001            0.0000000000
      3002      1001  TIP3      H1            -29.3019962818       -7.4751851097      -11.9454531047  W2        1001            0.0000000000
      3003      1001  TIP3      H2            -29.7098362818       -8.9212851097      -12.1307931047  W2        1001            0.0000000000
      3004      1002  TIP3      OH2           -38.9994462818      -12.0047151097       -0.2677531047  W2        1002            0.0000000000
      3005      1002  TIP3      H1            -38.7765862818      -12.4227551097        0.5639968953  W2        1002            0.0000000000
      3006      1002  TIP3      H2            -39.6014362818      -12.6172151097       -0.6904731047  W2        1002            0.0000000000
      3007      1003  TIP3      OH2           -31.9829562818      -12.4877251097        1.9452168953  W2        1003            0.0000000000
      3008      1003  TIP3      H1            -32.2788762818      -12.6534251097        1.0501268953  W2        1003            0.0000000000
      3009      1003  TIP3      H2            -31.0514362818      -12.7076951097        1.9346068953  W2        1003            0.0000000000
      3010      1004  TIP3      OH2           -27.3626762818       -7.1145251097       -0.1649831047  W2        1004            0.0000000000
      3011      1004  TIP3      H1            -28.2632462818       -6.9312651097       -0.4325931047  W2        1004            0.0000000000
      3012      1004  TIP3      H2            -27.3285662818       -6.8555951097        0.7558968953  W2        1004            0.0000000000
      3013      1005  TIP3      OH2           -21.6313462818      -14.8697351097      -11.7977231047  W2        1005            0.0000000000
      3014      1005  TIP3      H1            -22.1857162818      -15.2659351097      -12.4699731047  W2        1005            0.0000000000
      3015      1005  TIP3      H2            -21.5309862818      -13.9592151097      -12.0753931047  W2        1005            0.0000000000
      3016      1006  TIP3      OH2           -21.6681462818       -9.0695651097        1.0394268953  W2        1006            0.0000000000
      3017      1006  TIP3      H1            -22.5192962818       -8.8311851097        0.6720668953  W2        1006            0.0000000000
      3018      1006  TIP3      H2            -21.0778062818       -9.0862451097        0.2861368953  W2        1006            0.0000000000
      3019      1007  TIP3      OH2           -23.3361762818       -6.0836951097      -11.3325131047  W2        1007            0.0000000000
      3020      1007  TIP3      H1            -23.7090662818       -6.9093151097      -11.0234531047  W2        1007            0.0000000000
      3021      1007  TIP3      H2            -23.0588262818       -6.2667551097      -12.2301731047  W2        1007            0.0000000000
      3022      1008  TIP3      OH2           -26.1757862818      -11.2757451097       -4.3113231047  W2        1008            0.0000000000
      3023      1008  TIP3      H1            -27.1040962818      -11.5075551097       -4.3383931047  W2        1008            0.0000000000
      3024      1008  TIP3      H2            -25.7246762818      -12.0527651097       -4.6414431047  W2        1008            0.0000000000
      3025      1009  TIP3      OH2           -33.6324762818       -6.9475851097       -8.1784531047  W2        1009            0.0000000000
      3026      1009  TIP3      H1            -33.1052562818       -6.1741451097       -8.3785731047  W2        1009            0.0000000000
      3027      1009  TIP3      H2            -34.5126262818       -6.7226651097       -8.4800531047  W2        1009            0.0000000000
      3028      1010  TIP3      OH2           -37.8777062818      -12.0851751097      -13.5912131047  W2        1010            0.0000000000
      3029      1010  TIP3      H1            -37.2617162818      -11.4584551097      -13.2117331047  W2        1010            0.0000000000
      3030      1010  TIP3      H2            -38.7394462818      -11.7691951097      -13.3195631047  W2        1010            0.0000000000
      3031      1011  TIP3      OH2           -32.2052462818       -9.2845951097       -8.6020231047  W2        1011            0.0000000000
      3032      1011  TIP3      H1            -32.4462462818       -8.3591551097       -8.5604931047  W2        1011            0.0000000000
      3033      1011  TIP3      H2            -32.9458862818       -9.7434651097       -8.2056331047  W2        1011            0.0000000000
      3034      1012  TIP3      OH2           -31.6905862818       -5.1352351097       -2.2869131047  W2        1012            0.0000000000
      3035      1012  TIP3      H1            -31.3281162818       -4.2806751097       -2.5204731047  W2        1012            0.0000000000
      3036      1012  TIP3      H2            -31.1590662818       -5.4270751097       -1.5462831047  W2        1012            0.0000000000
      3037      1013  TIP3      OH2           -33.5221662818       -4.2628351097       -9.0568031047  W2        1013            0.0000000000
      3038      1013  TIP3      H1            -34.4721162818       -4.1570951097       -9.0054731047  W2        1013            0.0000000000
      3039      1013  TIP3      H2            -33.1703562818       -3.4420951097       -8.7120531047  W2        1013            0.0000000000
      3040      1014  TIP3      OH2           -28.1465062818       -9.0361651097       -2.5863531047  W2        1014            0.0000000000
      3041      1014  TIP3      H1            -28.5723762818       -9.2639951097       -1.7599531047  W2        1014            0.0000000000
      3042      1014  TIP3      H2            -27.5659262818       -9.7749851097       -2.7688231047  W2        1014            0.0000000000
      3043      1015  TIP3      OH2           -25.9436162818       -8.1071151097      -13.5124531047  W2        1015            0.0000000000
      3044      1015  TIP3      H1            -25.5903062818       -8.4871351097      -12.7081031047  W2        1015            0.0000000000
      3045      1015  TIP3      H2            -26.8922662818       -8.2006351097      -13.4255231047  W2        1015            0.0000000000
      3046      1016  TIP3      OH2           -25.4880862818       -4.4842151097       -0.1168731047  W2        1016            0.0000000000
      3047      1016  TIP3      H1            -26.0897662818       -5.0399251097       -0.6122431047  W2        1016            0.0000000000
      3048      1016  TIP3      H2            -25.2067162818       -3.8172351097       -0.7431331047  W2        1016            0.0000000000
      3049      1017  TIP3      OH2           -21.4401762818       -3.6278651097      -13.3114331047  W2        1017            0.0000000000
      3050      1017  TIP3      H1            -20.6963862818       -3.0418151097      -13.4512731047  W2        1017            0.0000000000
      3051      1017  TIP3      H2            -22.1343662818       -3.0592851097      -12.9781931047  W2        1017            0.0000000000
      3052      1018  TIP3      OH2           -37.3654962818      -17.2514451097       -0.7096131047  W2        1018            0.0000000000
      3053      1018  TIP3      H1            -38.2582662818      -16.9129051097       -0.7772131047  W2        1018            0.0000000000
      3054      1018  TIP3      H2            -37.4642162818      -18.1068351097       -0.2915331047  W2        1018            0.0000000000
      3055      1019  TIP3      OH2           -25.0776862818       -9.4349151097      -11.2856631047  W2        1019            0.0000000000
      3056      1019  TIP3      H1            -25.3549262818      -10.1629851097      -10.7295531047  W2        1019            0.0000000000
      3057      1019  TIP3      H2            -24.1503862818       -9.3157151097      -11.0804031047  W2        1019            0.0000000000
      3058      1020  TIP3      OH2           -37.7142962818       -5.4470051097       -2.2746731047  W2        1020            0.0000000000
      3059      1020  TIP3      H1            -37.4972662818       -6.3787651097       -2.3057031047  W2        1020            0.0000000000
      3060      1020  TIP3      H2            -37.4679462818       -5.1725051097       -1.3913931047  W2        1020            0.0000000000
      3061      1021  TIP3      OH2           -31.8528362818       -6.9955051097      -15.0654531047  W2        1021            0.0000000000
      3062      1021  TIP3      H1            -31.6138562818       -7.7436951097      -15.6125631047  W2        1021            0.0000000000
      3063      1021  TIP3      H2            -32.1217062818       -7.3833351097      -14.2326731047  W2        1021            0.0000000000
      3064      1022  TIP3      OH2           -32.9157762818       -7.4251251097      -12.6091931047  W2        1022            0.0000000000
      3065      1022  TIP3      H1            -32.7689762818       -7.9451451097      -11.8191031047  W2        1022            0.0000000000
      3066      1022  TIP3      H2            -32.9186062818       -6.5183651097      -12.3026031047  W2        1022            0.0000000000
      3067      1023  TIP3      OH2           -36.4626662818      -10.1727951097      -12.0986531047  W2        1023            0.0000000000
      3068      1023  TIP3      H1            -37.1487362818       -9.8205451097      -11.5316831047  W2        1023            0.0000000000
      3069      1023  TIP3      H2            -35.9398762818       -9.4098351097      -12.3452231047  W2        1023            0.0000000000
      3070      1024  TIP3      OH2           -28.6311562818      -17.5104151097       -1.8197531047  W2        1024            0.0000000000
      3071      1024  TIP3      H1            -27.9323662818      -17.4365451097       -1.1697831047  W2        1024            0.0000000000
      3072      1024  TIP3      H2            -29.0120162818      -18.3749151097       -1.6654631047  W2        1024            0.0000000000
      3073      1025  TIP3      OH2           -27.8466662818      -17.8582451097      -10.7225231047  W2        1025            0.0000000000
      3074      1025  TIP3      H1            -27.6268362818      -17.3867051097      -11.5259831047  W2        1025            0.0000000000
      3075      1025  TIP3      H2            -27.2882662818      -17.4639851097      -10.0524631047  W2        1025            0.0000000000
      3076      1026  TIP3      OH2           -30.1780562818       -5.7277651097      -11.8597731047  W2        1026            0.0000000000
      3077      1026  TIP3      H1            -30.9944462818       -5.2307951097      -11.8073431047  W2        1026            0.0000000000
      3078      1026  TIP3      H2            -29.6484262818       -5.2524151097      -12.4998931047  W2        1026            0.0000000000
      3079      1027  TIP3      OH2           -30.6466762818      -16.1303651097       -9.8876831047  W2        1027            0.0000000000
      3080      1027  TIP3      H1            -29.8344162818      -15.6260451097       -9.8415131047  W2        1027            0.0000000000
      3081      1027  TIP3      H2            -30.8913762818      -16.2753951097       -8.9737231047  W2        1027            0.0000000000
      3082      1028  TIP3      OH2           -30.1110362818      -15.1440951097       -0.7030231047  W2        1028            0.0000000000
      3083      1028  TIP3      H1            -29.9920062818      -14.5705551097        0.0540168953  W2        1028            0.0000000000
      3084      1028  TIP3      H2            -29.4555762818      -15.8321551097       -0.5882431047  W2        1028            0.0000000000
      3085      1029  TIP3      OH2           -29.7630062818      -19.0490651097       -8.9495731047  W2        1029            0.0000000000
      3086      1029  TIP3      H1            -30.1096562818      -18.4320051097       -8.3051431047  W2        1029            0.0000000000
      3087      1029  TIP3      H2            -29.1043162818      -18.5484951097       -9.4310231047  W2        1029            0.0000000000
      3088      1030  TIP3      OH2           -32.8397462818       -4.6840451097      -11.8780831047  W2        1030            0.0000000000
      3089      1030  TIP3      H1            -32.6788762818       -3.8842951097      -12.3788231047  W2        1030            0.0000000000
      3090      1030  TIP3      H2            -33.0369662818       -4.3774451097      -10.9930231047  W2        1030            0.0000000000
      3091      1031  TIP3      OH2           -34.1053062818      -17.9861251097      -12.2623231047  W2        1031            0.0000000000
      3092      1031  TIP3      H1            -34.1888262818      -17.0978151097      -11.9156831047  W2        1031            0.0000000000
      3093      1031  TIP3      H2            -33.2152762818      -18.2514551097      -12.0306431047  W2        1031            0.0000000000
      3094      1032  TIP3      OH2           -23.9064562818      -17.2370651097        0.1319468953  W2        1032            0.0000000000
      3095      1032  TIP3      H1            -24.8228762818      -16.9748951097        0.0443168953  W2        1032            0.0000000000
      3096      1032  TIP3      H2            -23.5709562818      -17.2401651097       -0.7645231047  W2        1032            0.0000000000
      3097      1033  TIP3      OH2           -25.3043562818      -13.4869651097       -5.7723231047  W2        1033            0.0000000000
      3098      1033  TIP3      H1            -26.1019162818      -13.9019451097       -6.1008231047  W2        1033            0.0000000000
      3099      1033  TIP3      H2            -24.8592462818      -14.1775951097       -5.2812731047  W2        1033            0.0000000000
      3100      1034  TIP3      OH2           -35.8467762818       -7.5589051097      -13.2018731047  W2        1034            0.0000000000
      3101      1034  TIP3      H1            -35.2546262818       -6.8594251097      -12.9256331047  W2        1034            0.0000000000
      3102      1034  TIP3      H2            -35.3874762818       -7.9919551097      -13.9214131047  W2        1034            0.0000000000
      3103      1035  TIP3      OH2           -37.5308562818      -14.8946051097      -14.0859331047  W2        1035            0.0000000000
      3104      1035  TIP3      H1            -37.5755962818      -13.9552951097      -13.9072331047  W2        1035            0.0000000000
      3105      1035  TIP3      H2            -38.4185362818      -15.1301151097      -14.3557231047  W2        1035            0.0000000000
      3106      1036  TIP3      OH2           -24.2178962818       -4.2307151097       -4.1499731047  W2        1036            0.0000000000
      3107      1036  TIP3      H1            -24.3734662818       -3.5522751097       -4.8070431047  W2        1036            0.0000000000
      3108      1036  TIP3      H2            -23.2852562818       -4.1587851097       -3.9469131047  W2        1036            0.0000000000
      3109      1037  TIP3      OH2           -36.7226562818      -20.1129451097       -5.4128331047  W2        1037            0.0000000000
      3110      1037  TIP3      H1            -36.9516762818      -20.0536951097       -6.3403331047  W2        1037            0.0000000000
      3111      1037  TIP3      H2            -37.1653162818      -20.9043951097       -5.1064231047  W2        1037            0.0000000000
      3112      1038  TIP3      OH2           -37.7923262818       -6.1722351097       -9.2522531047  W2        1038            0.0000000000
      3113      1038  TIP3      H1            -38.6244662818       -5.6999651097       -9.2251131047  W2        1038            0.0000000000
      3114      1038  TIP3      H2            -37.2464962818       -5.6624751097       -9.8509431047  W2        1038            0.0000000000
      3115      1039  TIP3      OH2           -38.5039562818       -3.5598651097        2.0775468953  W2        1039            0.0000000000
      3116      1039  TIP3      H1            -37.9637362818       -3.7764651097        2.8374668953  W2        1039            0.0000000000
      3117      1039  TIP3      H2            -38.9851562818       -4.3652651097        1.8877968953  W2        1039            0.0000000000
      3118      1040  TIP3      OH2           -33.9066162818       -4.6404251097        3.6979668953  W2        1040            0.0000000000
      3119      1040  TIP3      H1            -33.1388962818       -5.0993451097        4.0388868953  W2        1040            0.0000000000
      3120      1040  TIP3      H2            -33.9279962818       -4.8664451097        2.7680868953  W2        1040            0.0000000000
      3121      1041  TIP3      OH2           -29.8146562818       -5.1323651097      -14.9268531047  W2        1041            0.0000000000
      3122      1041  TIP3      H1            -30.4585562818       -5.7635051097      -14.6054831047  W2        1041            0.0000000000
      3123      1041  TIP3      H2            -29.0528262818       -5.6635651097      -15.1585031047  W2        1041            0.0000000000
      3124      1042  TIP3      OH2           -27.3297462818       -6.2603151097        2.4271168953  W2        1042            0.0000000000
      3125      1042  TIP3      H1            -27.6807962818       -7.1170151097        2.6701568953  W2        1042            0.0000000000
      3126      1042  TIP3      H2            -26.6034262818       -6.1176451097        3.0340168953  W2        1042            0.0000000000
      3127      1043  TIP3      OH2           -25.2103662818       -5.3153751097      -14.6930531047  W2        1043            0.0000000000
      3128      1043  TIP3      H1            -24.9273262818       -6.1098551097      -14.2403631047  W2        1043            0.0000000000
      3129      1043  TIP3      H2            -24.4705762818       -5.0822751097      -15.2539431047  W2        1043            0.0000000000
      3130      1044  TIP3      OH2           -38.5970062818       -9.7494551097        3.0319768953  W2        1044            0.0000000000
      3131      1044  TIP3      H1            -38.4529562818      -10.6513851097        2.7456468953  W2        1044            0.0000000000
      3132      1044  TIP3      H2            -39.3692662818       -9.4632451097        2.5442068953  W2        1044            0.0000000000
      3133      1045  TIP3      OH2           -34.2556362818       -9.4058851097      -14.8355631047  W2        1045            0.0000000000
      3134      1045  TIP3      H1            -34.1912262818      -10.1999251097      -14.3049231047  W2        1045            0.0000000000
      3135      1045  TIP3      H2            -33.6027162818       -9.5246051097      -15.5253631047  W2        1045            0.0000000000
      3136      1046  TIP3      OH2           -31.9413962818       -9.7796451097        2.4646168953  W2        1046            0.0000000000
      3137      1046  TIP3      H1            -32.2700162818       -9.5088351097        1.6073568953  W2        1046            0.0000000000
      3138      1046  TIP3      H2            -31.7895762818      -10.7206651097        2.3771168953  W2        1046            0.0000000000
      3139      1047  TIP3      OH2           -28.9032962818       -8.3587151097      -15.0997631047  W2        1047            0.0000000000
      3140      1047  TIP3      H1            -29.1718862818       -8.1785051097      -14.1988731047  W2        1047            0.0000000000
      3141      1047  TIP3      H2            -29.1097362818       -9.2840951097      -15.2311831047  W2        1047            0.0000000000
      3142      1048  TIP3      OH2           -26.2068762818       -9.8639151097       -0.1521531047  W2        1048            0.0000000000
      3143      1048  TIP3      H1            -25.4613962818       -9.2755451097       -0.2717531047  W2        1048            0.0000000000
      3144      1048  TIP3      H2            -26.9641962818       -9.2819451097       -0.0888431047  W2        1048            0.0000000000
      3145      1049  TIP3      OH2           -37.7643562818      -12.5491251097        2.4519068953  W2        1049            0.0000000000
      3146      1049  TIP3      H1            -37.3562362818      -13.4064651097        2.3309668953  W2        1049            0.0000000000
      3147      1049  TIP3      H2            -38.0245962818      -12.5349951097        3.3729368953  W2        1049            0.0000000000
      3148      1050  TIP3      OH2           -33.1062562818      -11.4332651097      -12.5297631047  W2        1050            0.0000000000
      3149      1050  TIP3      H1            -33.5660562818      -11.9174351097      -11.8439131047  W2        1050            0.0000000000
      3150      1050  TIP3      H2            -32.8513862818      -12.1017251097      -13.1657131047  W2        1050            0.0000000000
      3151      1051  TIP3      OH2           -33.8173262818      -13.5405551097       -0.1738031047  W2        1051            0.0000000000
      3152      1051  TIP3      H1            -34.4357162818      -12.8658951097        0.1066668953  W2        1051            0.0000000000
      3153      1051  TIP3      H2            -33.4732062818      -13.2191651097       -1.0071831047  W2        1051            0.0000000000
      3154      1052  TIP3      OH2           -32.0352162818      -13.1900851097      -14.2674431047  W2        1052            0.0000000000
      3155      1052  TIP3      H1            -32.2157162818      -13.3449651097      -15.1946131047  W2        1052            0.0000000000
      3156      1052  TIP3      H2            -31.0851662818      -13.0822151097      -14.2226531047  W2        1052            0.0000000000
      3157      1053  TIP3      OH2           -28.7975062818      -11.0690251097        3.1036768953  W2        1053            0.0000000000
      3158      1053  TIP3      H1            -27.8443862818      -10.9851151097        3.0762768953  W2        1053            0.0000000000
      3159      1053  TIP3      H2            -28.9580462818      -11.7808451097        3.7231668953  W2        1053            0.0000000000
      3160      1054  TIP3      OH2           -22.6453862818      -10.8356651097      -14.8216331047  W2        1054            0.0000000000
      3161      1054  TIP3      H1            -22.9189062818      -11.2601151097      -15.6348031047  W2        1054            0.0000000000
      3162      1054  TIP3      H2            -22.6059762818       -9.9042151097      -15.0385931047  W2        1054            0.0000000000
      3163      1055  TIP3      OH2           -33.4779562818      -16.1854751097        0.9085068953  W2        1055            0.0000000000
      3164      1055  TIP3      H1            -33.3278662818      -16.9143451097        0.3064768953  W2        1055            0.0000000000
      3165      1055  TIP3      H2            -33.4757162818      -15.4083051097        0.3497268953  W2        1055            0.0000000000
      3166      1056  TIP3      OH2           -33.0653862818      -17.8158951097       -1.5987531047  W2        1056            0.0000000000
      3167      1056  TIP3      H1            -32.5296362818      -17.3642251097       -2.2508231047  W2        1056            0.0000000000
      3168      1056  TIP3      H2            -33.9174262818      -17.9239151097       -2.0213431047  W2        1056            0.0000000000
      3169      1057  TIP3      OH2           -31.4835462818      -12.3762751097       -1.3592331047  W2        1057            0.0000000000
      3170      1057  TIP3      H1            -30.7330662818      -12.5325251097       -1.9324531047  W2        1057            0.0000000000
      3171      1057  TIP3      H2            -31.8227162818      -11.5246151097       -1.6346831047  W2        1057            0.0000000000
      3172      1058  TIP3      OH2           -27.0679262818      -14.5610951097        3.6692968953  W2        1058            0.0000000000
      3173      1058  TIP3      H1            -26.8757962818      -15.4921551097        3.5577468953  W2        1058            0.0000000000
      3174      1058  TIP3      H2            -26.2102962818      -14.1361451097        3.6588368953  W2        1058            0.0000000000
      3175      1059  TIP3      OH2           -25.7512062818      -11.7725751097        1.7465668953  W2        1059            0.0000000000
      3176      1059  TIP3      H1            -26.0327062818      -11.0631151097        1.1689468953  W2        1059            0.0000000000
      3177      1059  TIP3      H2            -24.8087762818      -11.8452751097        1.5956868953  W2        1059            0.0000000000
      3178      1060  TIP3      OH2           -34.9993262818      -14.9871251097        2.8200668953  W2        1060            0.0000000000
      3179      1060  TIP3      H1            -35.7664262818      -15.5196451097        2.6098268953  W2        1060            0.0000000000
      3180      1060  TIP3      H2            -34.3204262818      -15.2970851097        2.2206968953  W2        1060            0.0000000000
      3181      1061  TIP3      OH2           -32.2598362818      -20.3593251097       -1.1673931047  W2        1061            0.0000000000
      3182      1061  TIP3      H1            -32.3578762818      -19.4130051097       -1.2727731047  W2        1061            0.0000000000
      3183      1061  TIP3      H2            -33.0022162818      -20.7319451097       -1.6430431047  W2        1061            0.0000000000
      3184      1062  TIP3      OH2           -30.9957862818      -16.0377851097        2.3964468953  W2        1062            0.0000000000
      3185      1062  TIP3      H1            -31.2312462818      -16.2571151097        3.2979368953  W2        1062            0.0000000000
      3186      1062  TIP3      H2            -31.7790962818      -16.2446651097        1.8866968953  W2        1062            0.0000000000
      3187      1063  TIP3      OH2           -28.2801262818      -16.9104351097        1.4717968953  W2        1063            0.0000000000
      3188      1063  TIP3      H1            -29.2275862818      -16.8784651097        1.6041268953  W2        1063            0.0000000000
      3189      1063  TIP3      H2            -27.9674562818      -17.5357251097        2.1256168953  W2        1063            0.0000000000
      3190      1064  TIP3      OH2           -26.6459762818      -18.2763251097        3.4769868953  W2        1064            0.0000000000
      3191      1064  TIP3      H1            -26.7427962818      -19.2285951097        3.4711768953  W2        1064            0.0000000000
      3192      1064  TIP3      H2            -26.9676662818      -18.0076451097        4.3375368953  W2        1064            0.0000000000
      3193      1065  TIP3      OH2           -36.8190462818      -17.0667451097        2.5245368953  W2        1065            0.0000000000
      3194      1065  TIP3      H1            -36.6073062818      -17.7731351097        1.9142868953  W2        1065            0.0000000000
      3195      1065  TIP3      H2            -36.9302962818      -17.5041451097        3.3686568953  W2        1065            0.0000000000
      3196      1066  TIP3      OH2           -32.0380262818      -21.0655851097        1.5038868953  W2        1066            0.0000000000
      3197      1066  TIP3      H1            -31.3261862818      -21.7053651097        1.4897968953  W2        1066            0.0000000000
      3198      1066  TIP3      H2            -32.1389862818      -20.7987551097        0.5901968953  W2        1066            0.0000000000
      3199      1067  TIP3      OH2           -31.6842762818      -19.3827451097        3.5575168953  W2        1067            0.0000000000
      3200      1067  TIP3      H1            -31.8160562818      -19.8583651097        2.7373668953  W2        1067            0.0000000000
      3201      1067  TIP3      H2            -32.2835362818      -18.6383851097        3.5022268953  W2        1067            0.0000000000
      3202      1068  TIP3      OH2           -32.1380462818       -2.4997151097      -13.2660831047  W2        1068            0.0000000000
      3203      1068  TIP3      H1            -31.2049762818       -2.3418451097      -13.1222431047  W2        1068            0.0000000000
      3204      1068  TIP3      H2            -32.4021662818       -1.8244151097      -13.8909331047  W2        1068            0.0000000000
      3205      1069  TIP3      OH2           -38.5695562818       -7.8633351097      -13.7832731047  W2        1069            0.0000000000
      3206      1069  TIP3      H1            -37.6556362818       -7.7844451097      -13.5098831047  W2        1069            0.0000000000
      3207      1069  TIP3      H2            -38.5622462818       -8.5503751097      -14.4497131047  W2        1069            0.0000000000
      3208      1070  TIP3      OH2           -39.9204962818       -2.4704851097       -8.7058831047  W2        1070            0.0000000000
      3209      1070  TIP3      H1            -40.5677862818       -2.9323151097       -9.2387631047  W2        1070            0.0000000000
      3210      1070  TIP3      H2            -39.5660362818       -3.1421551097       -8.1232631047  W2        1070            0.0000000000
      3211      1071  TIP3      OH2           -39.0505762818       -4.3897851097       -6.9012631047  W2        1071            0.0000000000
      3212      1071  TIP3      H1            -39.3848962818       -5.2700551097       -6.7292431047  W2        1071            0.0000000000
      3213      1071  TIP3      H2            -38.8283362818       -4.0442851097       -6.0367031047  W2        1071            0.0000000000
      3214      1072  TIP3      OH2           -21.5020962818       -3.5801451097       -3.9207831047  W2        1072            0.0000000000
      3215      1072  TIP3      H1            -21.5234262818       -3.3953051097       -2.9818431047  W2        1072            0.0000000000
      3216      1072  TIP3      H2            -20.8114762818       -3.0117451097       -4.2616431047  W2        1072            0.0000000000
      3217      1073  TIP3      OH2           -21.9388062818       -4.0130351097       -0.9988731047  W2        1073            0.0000000000
      3218      1073  TIP3      H1            -22.4259362818       -4.7486251097       -1.3701331047  W2        1073            0.0000000000
      3219      1073  TIP3      H2            -21.3895362818       -4.4066451097       -0.3209331047  W2        1073            0.0000000000
      3220      1074  TIP3      OH2           -23.4880762818       -8.2232251097        3.6391568953  W2        1074            0.0000000000
      3221      1074  TIP3      H1            -24.3539662818       -8.3282551097        4.0333868953  W2        1074            0.0000000000
      3222      1074  TIP3      H2            -23.1114862818       -7.4648951097        4.0856268953  W2        1074            0.0000000000
      3223      1075  TIP3      OH2           -22.1871062818       -9.9668551097      -10.8465931047  W2        1075            0.0000000000
      3224      1075  TIP3      H1            -21.3369662818       -9.5457651097      -10.7194331047  W2        1075            0.0000000000
      3225      1075  TIP3      H2            -22.1815962818      -10.7068451097      -10.2394531047  W2        1075            0.0000000000
      3226      1076  TIP3      OH2           -21.7925462818      -11.9131151097       -9.0230231047  W2        1076            0.0000000000
      3227      1076  TIP3      H1            -22.5190862818      -12.3928551097       -8.6252631047  W2        1076            0.0000000000
      3228      1076  TIP3      H2            -21.2112162818      -11.7076451097       -8.2908631047  W2        1076            0.0000000000
      3229      1077  TIP3      OH2           -22.0334262818       -9.1283651097       -4.0752631047  W2        1077            0.0000000000
      3230      1077  TIP3      H1            -21.2000062818       -9.5063651097       -4.3559031047  W2        1077            0.0000000000
      3231      1077  TIP3      H2            -21.9213962818       -8.1852451097       -4.1943531047  W2        1077            0.0000000000
      3232      1078  TIP3      OH2           -23.5471962818       -6.2506151097       -1.7684231047  W2        1078            0.0000000000
      3233      1078  TIP3      H1            -24.1946662818       -5.9254651097       -1.1429031047  W2        1078            0.0000000000
      3234      1078  TIP3      H2            -24.0647962818       -6.6908451097       -2.4425931047  W2        1078            0.0000000000
      3235      1079  TIP3      OH2           -21.5242362818      -12.0122651097      -12.6318931047  W2        1079            0.0000000000
      3236      1079  TIP3      H1            -22.0461262818      -11.6558551097      -13.3508031047  W2        1079            0.0000000000
      3237      1079  TIP3      H2            -21.5573162818      -11.3374851097      -11.9538031047  W2        1079            0.0000000000
      3238      1080  TIP3      OH2           -23.1753362818      -14.7727051097      -14.0811831047  W2        1080            0.0000000000
      3239      1080  TIP3      H1            -23.0788962818      -14.1060051097      -14.7612131047  W2        1080            0.0000000000
      3240      1080  TIP3      H2            -23.3153762818      -15.5880751097      -14.5626331047  W2        1080            0.0000000000
      3241      1081  TIP3      OH2           -24.0058662818      -13.3924651097       -8.4601531047  W2        1081            0.0000000000
      3242      1081  TIP3      H1            -24.1559862818      -14.3376051097       -8.4803731047  W2        1081            0.0000000000
      3243      1081  TIP3      H2            -24.3594162818      -13.1113251097       -7.6162431047  W2        1081            0.0000000000
      3244      1082  TIP3      OH2           -38.9706262818      -11.3142451097       -4.4497731047  W2        1082            0.0000000000
      3245      1082  TIP3      H1            -38.7863362818      -11.3960751097       -5.3854831047  W2        1082            0.0000000000
      3246      1082  TIP3      H2            -38.1213362818      -11.4385451097       -4.0261331047  W2        1082            0.0000000000
      3247      1083  TIP3      OH2           -23.1495762818      -11.4221351097        1.1786768953  W2        1083            0.0000000000
      3248      1083  TIP3      H1            -22.5668462818      -12.1569051097        1.3703968953  W2        1083            0.0000000000
      3249      1083  TIP3      H2            -22.5856462818      -10.6501051097        1.2252568953  W2        1083            0.0000000000
      3250      1084  TIP3      OH2           -21.6528662818      -13.5195551097        1.8632168953  W2        1084            0.0000000000
      3251      1084  TIP3      H1            -22.5161962818      -13.8983451097        1.6976868953  W2        1084            0.0000000000
      3252      1084  TIP3      H2            -21.0484962818      -14.2580751097        1.7887968953  W2        1084            0.0000000000
      3253      1085  TIP3      OH2           -23.9279562818      -17.3647251097      -14.9636331047  W2        1085            0.0000000000
      3254      1085  TIP3      H1            -23.3173762818      -17.7360451097      -14.3268131047  W2        1085            0.0000000000
      3255      1085  TIP3      H2            -24.7648062818      -17.7860351097      -14.7676331047  W2        1085            0.0000000000
      3256      1086  TIP3      OH2           -24.2953862818      -15.8098851097       -9.9976431047  W2        1086            0.0000000000
      3257      1086  TIP3      H1            -24.0156762818      -16.7168451097       -9.8734731047  W2        1086            0.0000000000
      3258      1086  TIP3      H2            -23.5362162818      -15.3757351097      -10.3867231047  W2        1086            0.0000000000
      3259      1087  TIP3      OH2           -23.6835562818      -15.2281451097       -4.5617531047  W2        1087            0.0000000000
      3260      1087  TIP3      H1            -22.7507562818      -15.0161551097       -4.5961531047  W2        1087            0.0000000000
      3261      1087  TIP3      H2            -23.9188062818      -15.1269351097       -3.6394531047  W2        1087            0.0000000000
      3262      1088  TIP3      OH2           -23.6543662818      -14.4916151097       -1.7858131047  W2        1088            0.0000000000
      3263      1088  TIP3      H1            -24.4972362818      -14.2235751097       -1.4198331047  W2        1088            0.0000000000
      3264      1088  TIP3      H2            -23.2119362818      -13.6694251097       -1.9967031047  W2        1088            0.0000000000
      3265      1089  TIP3      OH2           -39.3731462818      -16.0437451097        1.6911068953  W2        1089            0.0000000000
      3266      1089  TIP3      H1            -38.4536562818      -16.1659151097        1.9274168953  W2        1089            0.0000000000
      3267      1089  TIP3      H2            -39.8226962818      -16.7937751097        2.0804568953  W2        1089            0.0000000000
      3268      1090  TIP3      OH2           -21.3712062818      -20.5115951097        3.5676868953  W2        1090            0.0000000000
      3269      1090  TIP3      H1            -21.0215062818      -21.1652451097        2.9621568953  W2        1090            0.0000000000
      3270      1090  TIP3      H2            -21.2242562818      -19.6741851097        3.1279468953  W2        1090            0.0000000000
      3271      1091  TIP3      OH2           -23.6819062818      -18.5469551097       -9.9494431047  W2        1091            0.0000000000
      3272      1091  TIP3      H1            -23.4994062818      -18.9958051097       -9.1239431047  W2        1091            0.0000000000
      3273      1091  TIP3      H2            -24.2816162818      -19.1315151097      -10.4129831047  W2        1091            0.0000000000
      3274      1092  TIP3      OH2           -38.1518962818      -17.7315851097       -5.4176031047  W2        1092            0.0000000000
      3275      1092  TIP3      H1            -37.7067362818      -18.5233351097       -5.1156331047  W2        1092            0.0000000000
      3276      1092  TIP3      H2            -37.6855962818      -17.0150651097       -4.9870431047  W2        1092            0.0000000000
      3277      1093  TIP3      OH2           -39.8478662818      -14.7322851097       -4.3485831047  W2        1093            0.0000000000
      3278      1093  TIP3      H1            -39.3558862818      -14.9532351097       -5.1393831047  W2        1093            0.0000000000
      3279      1093  TIP3      H2            -39.4857762818      -13.8919451097       -4.0676331047  W2        1093            0.0000000000
      3280      1094  TIP3      OH2           -21.8514862818      -18.4021351097        1.9168168953  W2        1094            0.0000000000
      3281      1094  TIP3      H1            -22.7689162818      -18.1314251097        1.8811668953  W2        1094            0.0000000000
      3282      1094  TIP3      H2            -21.7285462818      -18.9372951097        1.1327868953  W2        1094            0.0000000000
      3283      1095  TIP3      OH2           -21.8152862818      -18.4791451097      -13.4214131047  W2        1095            0.0000000000
      3284      1095  TIP3      H1            -21.4030262818      -19.2005751097      -13.8966131047  W2        1095            0.0000000000
      3285      1095  TIP3      H2            -21.1336362818      -17.8096851097      -13.3629831047  W2        1095            0.0000000000
      3286      1096  TIP3      OH2           -39.5342162818      -18.4743751097      -10.2943431047  W2        1096            0.0000000000
      3287      1096  TIP3      H1            -40.4593762818      -18.2657151097      -10.4237931047  W2        1096            0.0000000000
      3288      1096  TIP3      H2            -39.0802262818      -17.9902951097      -10.9841131047  W2        1096            0.0000000000
      3289      1097  TIP3      OH2           -24.7634962818       -3.4902051097       -8.3486031047  W2        1097            0.0000000000
      3290      1097  TIP3      H1            -24.1112062818       -3.8379951097       -8.9566931047  W2        1097            0.0000000000
      3291      1097  TIP3      H2            -24.2531162818       -3.0018851097       -7.7026331047  W2        1097            0.0000000000
      3292      1098  TIP3      OH2           -39.5706762818      -19.7364751097       -1.9500931047  W2        1098            0.0000000000
      3293      1098  TIP3      H1            -40.2356262818      -19.9824451097       -1.3070031047  W2        1098            0.0000000000
      3294      1098  TIP3      H2            -40.0135462818      -19.1144351097       -2.5272931047  W2        1098            0.0000000000
      3295      1099  TIP3      OH2           -37.3787462818       -6.5610651097        2.1944868953  W2        1099            0.0000000000
      3296      1099  TIP3      H1            -38.1994962818       -6.3864151097        1.7339568953  W2        1099            0.0000000000
      3297      1099  TIP3      H2            -37.6309662818       -6.6345951097        3.1149268953  W2        1099            0.0000000000
      3298      1100  TIP3      OH2           -34.4244562818       -5.5869451097       -1.5471131047  W2        1100            0.0000000000
      3299      1100  TIP3      H1            -34.8493462818       -4.7770951097       -1.8296531047  W2        1100            0.0000000000
      3300      1100  TIP3      H2            -33.5201762818       -5.5015351097       -1.8491331047  W2        1100            0.0000000000
      3301      1101  TIP3      OH2           -30.1133162818       -4.1879451097        1.4122568953  W2        1101            0.0000000000
      3302      1101  TIP3      H1            -29.9285662818       -4.5213351097        2.2902868953  W2        1101            0.0000000000
      3303      1101  TIP3      H2            -29.2668662818       -3.8780851097        1.0901768953  W2        1101            0.0000000000
      3304      1102  TIP3      OH2           -27.7682762818       -2.9020551097        0.6563968953  W2        1102            0.0000000000
      3305      1102  TIP3      H1            -27.0913862818       -3.5348251097        0.4163168953  W2        1102            0.0000000000
      3306      1102  TIP3      H2            -27.4463962818       -2.5010051097        1.4637268953  W2        1102            0.0000000000
      3307      1103  TIP3      OH2           -22.8508962818      -20.3125051097       -0.2641031047  W2        1103            0.0000000000
      3308      1103  TIP3      H1            -23.6635462818      -19.9874751097       -0.6516331047  W2        1103            0.0000000000
      3309      1103  TIP3      H2            -22.6180462818      -21.0726551097       -0.7971931047  W2        1103            0.0000000000
      3310      1104  TIP3      OH2           -37.0227862818       -2.3305551097       -1.4995831047  W2        1104            0.0000000000
      3311      1104  TIP3      H1            -37.7431462818       -1.8904551097       -1.9508131047  W2        1104            0.0000000000
      3312      1104  TIP3      H2            -37.3883862818       -2.5810851097       -0.6511831047  W2        1104            0.0000000000
      3313      1105  TIP3      OH2           -34.5555262818       -2.7301651097       -2.4698631047  W2        1105            0.0000000000
      3314      1105  TIP3      H1            -35.4203062818       -2.6583151097       -2.0658531047  W2        1105            0.0000000000
      3315      1105  TIP3      H2            -34.6106262818       -2.1834351097       -3.2536131047  W2        1105            0.0000000000
      3316      1106  TIP3      OH2           -29.8449662818       -2.8422751097       -3.2942631047  W2        1106            0.0000000000
      3317      1106  TIP3      H1            -30.3015662818       -2.3133051097       -3.9484231047  W2        1106            0.0000000000
      3318      1106  TIP3      H2            -29.6821662818       -2.2391351097       -2.5690331047  W2        1106            0.0000000000
      3319      1107  TIP3      OH2           -27.5173362818       -3.9643151097       -2.3492331047  W2        1107            0.0000000000
      3320      1107  TIP3      H1            -28.4219662818       -3.7992951097       -2.6150231047  W2        1107            0.0000000000
      3321      1107  TIP3      H2            -27.0884762818       -3.1110951097       -2.4148931047  W2        1107            0.0000000000
      3322      1108  TIP3      OH2           -24.9131462818       -2.3944051097       -2.0544531047  W2        1108            0.0000000000
      3323      1108  TIP3      H1            -25.0949462818       -1.4785151097       -2.2649631047  W2        1108            0.0000000000
      3324      1108  TIP3      H2            -24.7363662818       -2.8046951097       -2.9009931047  W2        1108            0.0000000000
      3325      1109  TIP3      OH2           -37.6079762818       -3.7073051097       -4.5894031047  W2        1109            0.0000000000
      3326      1109  TIP3      H1            -37.6263762818       -4.1327951097       -3.7321731047  W2        1109            0.0000000000
      3327      1109  TIP3      H2            -36.8031862818       -4.0258051097       -4.9981831047  W2        1109            0.0000000000
      3328      1110  TIP3      OH2           -35.4666662818       -4.9974351097       -5.9344131047  W2        1110            0.0000000000
      3329      1110  TIP3      H1            -35.6855962818       -5.9136951097       -5.7648131047  W2        1110            0.0000000000
      3330      1110  TIP3      H2            -34.6424462818       -4.8573951097       -5.4682731047  W2        1110            0.0000000000
      3331      1111  TIP3      OH2           -32.9294162818       -4.5275051097       -5.0856131047  W2        1111            0.0000000000
      3332      1111  TIP3      H1            -32.7168462818       -5.4156051097       -5.3725231047  W2        1111            0.0000000000
      3333      1111  TIP3      H2            -32.8649062818       -4.5617351097       -4.1312131047  W2        1111            0.0000000000
      3334      1112  TIP3      OH2           -29.4210462818      -18.8634451097       -5.9412831047  W2        1112            0.0000000000
      3335      1112  TIP3      H1            -30.0953662818      -19.4928851097       -5.6857031047  W2        1112            0.0000000000
      3336      1112  TIP3      H2            -28.8571262818      -19.3475551097       -6.5444931047  W2        1112            0.0000000000
      3337      1113  TIP3      OH2           -24.2783262818      -20.7560451097       -5.8285731047  W2        1113            0.0000000000
      3338      1113  TIP3      H1            -23.6745662818      -20.2085051097       -6.3304731047  W2        1113            0.0000000000
      3339      1113  TIP3      H2            -25.1481262818      -20.4370051097       -6.0691631047  W2        1113            0.0000000000
      3340      1114  TIP3      OH2           -22.5512862818      -19.6171751097       -7.4954831047  W2        1114            0.0000000000
      3341      1114  TIP3      H1            -21.9395362818      -20.1316051097       -8.0221231047  W2        1114            0.0000000000
      3342      1114  TIP3      H2            -22.1689462818      -18.7399651097       -7.4720431047  W2        1114            0.0000000000
      3343      1115  TIP3      OH2           -37.0942962818      -20.2294151097       -8.1192931047  W2        1115            0.0000000000
      3344      1115  TIP3      H1            -37.8713162818      -20.4639251097       -8.6267031047  W2        1115            0.0000000000
      3345      1115  TIP3      H2            -36.5639362818      -21.0262051097       -8.1104931047  W2        1115            0.0000000000
      3346      1116  TIP3      OH2           -38.2579562818      -20.4316051097      -12.3156831047  W2        1116            0.0000000000
      3347      1116  TIP3      H1            -37.8188862818      -19.8205551097      -12.9073331047  W2        1116            0.0000000000
      3348      1116  TIP3      H2            -38.8917162818      -19.8931951097      -11.8416831047  W2        1116            0.0000000000
      3349      1117  TIP3      OH2           -32.5150362818      -20.3027051097       -8.3059831047  W2        1117            0.0000000000
      3350      1117  TIP3      H1            -31.6406962818      -19.9142751097       -8.3355531047  W2        1117            0.0000000000
      3351      1117  TIP3      H2            -32.6509562818      -20.5179251097       -7.3832631047  W2        1117            0.0000000000
      3352      1118  TIP3      OH2           -26.9581962818      -20.2727251097       -6.6568131047  W2        1118            0.0000000000
      3353      1118  TIP3      H1            -26.8820362818      -20.1775651097       -7.6062131047  W2        1118            0.0000000000
      3354      1118  TIP3      H2            -27.2332762818      -21.1804351097       -6.5279031047  W2        1118            0.0000000000
      3355      1119  TIP3      OH2           -25.6049362818      -20.2469451097      -10.9643131047  W2        1119            0.0000000000
      3356      1119  TIP3      H1            -26.3078262818      -19.6320251097      -11.1741731047  W2        1119            0.0000000000
      3357      1119  TIP3      H2            -26.0497962818      -21.0842751097      -10.8332231047  W2        1119            0.0000000000
      3358      1120  TIP3      OH2           -38.3570062818       -4.4833851097      -11.4181731047  W2        1120            0.0000000000
      3359      1120  TIP3      H1            -39.0420162818       -4.5214951097      -12.0856631047  W2        1120            0.0000000000
      3360      1120  TIP3      H2            -38.3532862818       -3.5706251097      -11.1299631047  W2        1120            0.0000000000
      3361      1121  TIP3      OH2           -36.3970462818      -18.5154551097      -13.8732731047  W2        1121            0.0000000000
      3362      1121  TIP3      H1            -35.9057062818      -19.1452151097      -14.4007231047  W2        1121            0.0000000000
      3363      1121  TIP3      H2            -35.7734162818      -18.2195151097      -13.2101531047  W2        1121            0.0000000000
      3364      1122  TIP3      OH2           -31.3710362818      -18.2223051097      -11.4162231047  W2        1122            0.0000000000
      3365      1122  TIP3      H1            -31.1929062818      -18.8689851097      -10.7333631047  W2        1122            0.0000000000
      3366      1122  TIP3      H2            -31.4244162818      -17.3885351097      -10.9491131047  W2        1122            0.0000000000
      3367      1123  TIP3      OH2           -29.4926562818       -3.2738951097      -13.0205531047  W2        1123            0.0000000000
      3368      1123  TIP3      H1            -28.6266362818       -2.9071551097      -13.1987331047  W2        1123            0.0000000000
      3369      1123  TIP3      H2            -29.7393762818       -3.7130951097      -13.8344731047  W2        1123            0.0000000000
      3370      1124  TIP3      OH2           -22.7836962818       -3.7108651097      -10.3414431047  W2        1124            0.0000000000
      3371      1124  TIP3      H1            -22.9779862818       -4.4586551097      -10.9064831047  W2        1124            0.0000000000
      3372      1124  TIP3      H2            -22.8226862818       -2.9528551097      -10.9246531047  W2        1124            0.0000000000
      3373      1125  TIP3      OH2           -37.1364962818      -19.7152251097        1.3983268953  W2        1125            0.0000000000
      3374      1125  TIP3      H1            -37.5026762818      -20.4809651097        1.8407968953  W2        1125            0.0000000000
      3375      1125  TIP3      H2            -36.2236462818      -19.6862051097        1.6848368953  W2        1125            0.0000000000
      3376      1126  TIP3      OH2           -35.1634162818      -20.3647851097        2.9340368953  W2        1126            0.0000000000
      3377      1126  TIP3      H1            -34.2650562818      -20.6387651097        2.7493768953  W2        1126            0.0000000000
      3378      1126  TIP3      H2            -35.5501062818      -21.1071851097        3.3982968953  W2        1126            0.0000000000
      3379      1127  TIP3      OH2           -36.5388862818       -3.5633051097      -14.3929631047  W2        1127            0.0000000000
      3380      1127  TIP3      H1            -36.8064262818       -3.2770151097      -13.5196531047  W2        1127            0.0000000000
      3381      1127  TIP3      H2            -35.7676262818       -4.1093851097      -14.2407131047  W2        1127            0.0000000000
      3382      1128  TIP3      OH2           -26.7421862818      -21.0322551097        3.1163168953  W2        1128            0.0000000000
      3383      1128  TIP3      H1            -26.6654662818      -21.4581851097        3.9700868953  W2        1128            0.0000000000
      3384      1128  TIP3      H2            -25.8485262818      -21.0187851097        2.7736668953  W2        1128            0.0000000000
      3385      1129  TIP3      OH2           -23.5660762818       -4.9596251097        1.8087368953  W2        1129            0.0000000000
      3386      1129  TIP3      H1            -24.3478862818       -5.1458251097        1.2887968953  W2        1129            0.0000000000
      3387      1129  TIP3      H2            -23.6380862818       -4.0301951097        2.0259868953  W2        1129            0.0000000000
      3388      1130  TIP3      OH2            -9.1600362818      -11.0731851097       -8.1605431047  W2        1130            0.0000000000
      3389      1130  TIP3      H1             -9.0709262818      -10.1293651097       -8.2928331047  W2        1130            0.0000000000
      3390      1130  TIP3      H2             -9.7982762818      -11.3485451097       -8.8186031047  W2        1130            0.0000000000
      3391      1131  TIP3      OH2           -10.2269062818      -11.8181151097       -4.7417231047  W2        1131            0.0000000000
      3392      1131  TIP3      H1            -10.2651562818      -12.4644851097       -4.0367631047  W2        1131            0.0000000000
      3393      1131  TIP3      H2            -10.5492562818      -12.2846751097       -5.5128531047  W2        1131            0.0000000000
      3394      1132  TIP3      OH2           -17.8584062818      -12.2039051097       -3.1487331047  W2        1132            0.0000000000
      3395      1132  TIP3      H1            -17.8171962818      -12.8295751097       -2.4254931047  W2        1132            0.0000000000
      3396      1132  TIP3      H2            -17.1556362818      -11.5800451097       -2.9666931047  W2        1132            0.0000000000
      3397      1133  TIP3      OH2            -6.5208862818       -8.8790751097       -6.4402131047  W2        1133            0.0000000000
      3398      1133  TIP3      H1             -6.9616162818       -9.5994751097       -5.9896531047  W2        1133            0.0000000000
      3399      1133  TIP3      H2             -6.5339162818       -8.1583551097       -5.8104431047  W2        1133            0.0000000000
      3400      1134  TIP3      OH2           -16.9350962818       -7.7540151097       -4.6138231047  W2        1134            0.0000000000
      3401      1134  TIP3      H1            -17.3045762818       -8.5559651097       -4.9833931047  W2        1134            0.0000000000
      3402      1134  TIP3      H2            -15.9939862818       -7.9225251097       -4.5674831047  W2        1134            0.0000000000
      3403      1135  TIP3      OH2           -20.3250462818      -14.0937551097       -9.2209431047  W2        1135            0.0000000000
      3404      1135  TIP3      H1            -20.7727062818      -13.2478851097       -9.2392931047  W2        1135            0.0000000000
      3405      1135  TIP3      H2            -20.8859262818      -14.6733351097       -9.7364331047  W2        1135            0.0000000000
      3406      1136  TIP3      OH2           -19.6144362818      -11.9317951097       -7.0951431047  W2        1136            0.0000000000
      3407      1136  TIP3      H1            -19.4010862818      -12.7016351097       -6.5678431047  W2        1136            0.0000000000
      3408      1136  TIP3      H2            -18.8766762818      -11.8421251097       -7.6983831047  W2        1136            0.0000000000
      3409      1137  TIP3      OH2            -9.4093362818       -3.7749051097       -6.2281731047  W2        1137            0.0000000000
      3410      1137  TIP3      H1             -8.7896962818       -4.4514351097       -6.5012531047  W2        1137            0.0000000000
      3411      1137  TIP3      H2             -9.6175962818       -3.9928251097       -5.3196831047  W2        1137            0.0000000000
      3412      1138  TIP3      OH2           -11.8374662818       -9.3859751097       -4.3356231047  W2        1138            0.0000000000
      3413      1138  TIP3      H1            -11.5336762818      -10.0718351097       -4.9302131047  W2        1138            0.0000000000
      3414      1138  TIP3      H2            -11.1160662818       -9.2671051097       -3.7178231047  W2        1138            0.0000000000
      3415      1139  TIP3      OH2            -3.1744862818      -17.7844451097       -3.4750031047  W2        1139            0.0000000000
      3416      1139  TIP3      H1             -3.1252662818      -17.1743251097       -2.7390931047  W2        1139            0.0000000000
      3417      1139  TIP3      H2             -2.7489762818      -17.3233551097       -4.1978931047  W2        1139            0.0000000000
      3418      1140  TIP3      OH2            -8.6967662818      -14.9917351097       -4.0081431047  W2        1140            0.0000000000
      3419      1140  TIP3      H1             -8.5541762818      -15.9380351097       -3.9879831047  W2        1140            0.0000000000
      3420      1140  TIP3      H2             -8.8028662818      -14.7847551097       -4.9366531047  W2        1140            0.0000000000
      3421      1141  TIP3      OH2           -15.5419362818      -16.8900951097       -6.7356631047  W2        1141            0.0000000000
      3422      1141  TIP3      H1            -15.4988262818      -16.0302451097       -7.1540331047  W2        1141            0.0000000000
      3423      1141  TIP3      H2            -15.9995262818      -17.4426251097       -7.3693431047  W2        1141            0.0000000000
      3424      1142  TIP3      OH2            -7.8196662818      -16.7595351097       -8.3348331047  W2        1142            0.0000000000
      3425      1142  TIP3      H1             -7.1732362818      -17.0882151097       -7.7100731047  W2        1142            0.0000000000
      3426      1142  TIP3      H2             -7.3097262818      -16.2416351097       -8.9576931047  W2        1142            0.0000000000
      3427      1143  TIP3      OH2           -18.9217862818      -14.4935151097       -5.9735231047  W2        1143            0.0000000000
      3428      1143  TIP3      H1            -18.2681262818      -15.0433451097       -5.5415131047  W2        1143            0.0000000000
      3429      1143  TIP3      H2            -18.8978562818      -14.7676151097       -6.8903231047  W2        1143            0.0000000000
      3430      1144  TIP3      OH2           -13.7653362818      -12.9433851097       -6.7583731047  W2        1144            0.0000000000
      3431      1144  TIP3      H1            -13.1492362818      -13.4698451097       -6.2489731047  W2        1144            0.0000000000
      3432      1144  TIP3      H2            -14.3514562818      -13.5835151097       -7.1620131047  W2        1144            0.0000000000
      3433      1145  TIP3      OH2            -2.7830262818      -16.3065251097       -1.2390231047  W2        1145            0.0000000000
      3434      1145  TIP3      H1             -3.4715662818      -15.6484551097       -1.3343631047  W2        1145            0.0000000000
      3435      1145  TIP3      H2             -2.7675662818      -16.5037351097       -0.3024831047  W2        1145            0.0000000000
      3436      1146  TIP3      OH2           -16.7317462818      -17.9722551097       -2.6615831047  W2        1146            0.0000000000
      3437      1146  TIP3      H1            -16.9505762818      -17.4421951097       -3.4279831047  W2        1146            0.0000000000
      3438      1146  TIP3      H2            -17.3996562818      -17.7457051097       -2.0144431047  W2        1146            0.0000000000
      3439      1147  TIP3      OH2            -9.3627662818       -8.4721451097       -9.1176731047  W2        1147            0.0000000000
      3440      1147  TIP3      H1             -9.6582562818       -8.7949151097       -9.9689831047  W2        1147            0.0000000000
      3441      1147  TIP3      H2             -9.6869862818       -7.5724751097       -9.0764131047  W2        1147            0.0000000000
      3442      1148  TIP3      OH2           -14.1626062818      -10.2966851097       -2.3742131047  W2        1148            0.0000000000
      3443      1148  TIP3      H1            -14.9026962818       -9.6985351097       -2.2706931047  W2        1148            0.0000000000
      3444      1148  TIP3      H2            -13.4486562818       -9.7427251097       -2.6898531047  W2        1148            0.0000000000
      3445      1149  TIP3      OH2            -6.0558262818      -17.4686051097       -6.3542431047  W2        1149            0.0000000000
      3446      1149  TIP3      H1             -6.2710262818      -18.2342651097       -5.8216431047  W2        1149            0.0000000000
      3447      1149  TIP3      H2             -5.4000862818      -16.9961451097       -5.8413931047  W2        1149            0.0000000000
      3448      1150  TIP3      OH2           -17.1380162818      -16.0800751097       -4.7093631047  W2        1150            0.0000000000
      3449      1150  TIP3      H1            -16.5243862818      -15.4473151097       -4.3361231047  W2        1150            0.0000000000
      3450      1150  TIP3      H2            -16.6259462818      -16.5525751097       -5.3656731047  W2        1150            0.0000000000
      3451      1151  TIP3      OH2           -15.7551762818       -8.3323851097       -1.5870631047  W2        1151            0.0000000000
      3452      1151  TIP3      H1            -15.7604162818       -7.4530351097       -1.9651331047  W2        1151            0.0000000000
      3453      1151  TIP3      H2            -16.6087662818       -8.4159751097       -1.1620731047  W2        1151            0.0000000000
      3454      1152  TIP3      OH2           -19.6340862818       -8.6615951097      -10.8051331047  W2        1152            0.0000000000
      3455      1152  TIP3      H1            -19.9059962818       -8.4324951097      -11.6938431047  W2        1152            0.0000000000
      3456      1152  TIP3      H2            -19.5885162818       -7.8237151097      -10.3446031047  W2        1152            0.0000000000
      3457      1153  TIP3      OH2            -6.0091162818       -7.0400051097       -4.0922831047  W2        1153            0.0000000000
      3458      1153  TIP3      H1             -6.9507462818       -6.9816151097       -3.9305931047  W2        1153            0.0000000000
      3459      1153  TIP3      H2             -5.7325062818       -6.1339551097       -4.2293131047  W2        1153            0.0000000000
      3460      1154  TIP3      OH2            -5.7084162818      -18.7534751097       -2.6748931047  W2        1154            0.0000000000
      3461      1154  TIP3      H1             -6.4444962818      -18.1427651097       -2.7127631047  W2        1154            0.0000000000
      3462      1154  TIP3      H2             -5.0250162818      -18.3385751097       -3.2012531047  W2        1154            0.0000000000
      3463      1155  TIP3      OH2           -12.7052762818      -20.6667451097       -5.2090931047  W2        1155            0.0000000000
      3464      1155  TIP3      H1            -12.8228562818      -21.6151451097       -5.2632631047  W2        1155            0.0000000000
      3465      1155  TIP3      H2            -13.5602662818      -20.3341351097       -4.9359831047  W2        1155            0.0000000000
      3466      1156  TIP3      OH2            -7.7569962818       -5.2586551097       -7.4671231047  W2        1156            0.0000000000
      3467      1156  TIP3      H1             -7.3317662818       -5.9658651097       -7.9521631047  W2        1156            0.0000000000
      3468      1156  TIP3      H2             -7.4399962818       -4.4573851097       -7.8839031047  W2        1156            0.0000000000
      3469      1157  TIP3      OH2            -6.5973462818       -7.3578051097       -8.9584631047  W2        1157            0.0000000000
      3470      1157  TIP3      H1             -6.8548662818       -8.0477951097       -9.5698731047  W2        1157            0.0000000000
      3471      1157  TIP3      H2             -6.5262662818       -7.8006851097       -8.1128731047  W2        1157            0.0000000000
      3472      1158  TIP3      OH2            -4.9113262818       -8.7911351097       -0.4811131047  W2        1158            0.0000000000
      3473      1158  TIP3      H1             -4.7716962818       -9.3828851097       -1.2204131047  W2        1158            0.0000000000
      3474      1158  TIP3      H2             -4.7440462818       -7.9185451097       -0.8372331047  W2        1158            0.0000000000
      3475      1159  TIP3      OH2           -10.4387862818      -11.8291851097      -10.7085131047  W2        1159            0.0000000000
      3476      1159  TIP3      H1            -11.1502362818      -11.2942151097      -11.0604631047  W2        1159            0.0000000000
      3477      1159  TIP3      H2             -9.7478262818      -11.7739751097      -11.3686231047  W2        1159            0.0000000000
      3478      1160  TIP3      OH2           -10.3848662818      -13.3717551097      -13.6700131047  W2        1160            0.0000000000
      3479      1160  TIP3      H1             -9.6838762818      -13.3490651097      -13.0186131047  W2        1160            0.0000000000
      3480      1160  TIP3      H2            -10.0825762818      -13.9997851097      -14.3260831047  W2        1160            0.0000000000
      3481      1161  TIP3      OH2            -3.0693962818      -12.4513351097       -2.4150731047  W2        1161            0.0000000000
      3482      1161  TIP3      H1             -3.7219862818      -11.7567751097       -2.3259831047  W2        1161            0.0000000000
      3483      1161  TIP3      H2             -2.6043662818      -12.2412451097       -3.2249131047  W2        1161            0.0000000000
      3484      1162  TIP3      OH2            -7.0330162818      -11.6198551097       -9.7569231047  W2        1162            0.0000000000
      3485      1162  TIP3      H1             -7.7649162818      -11.3914851097       -9.1838631047  W2        1162            0.0000000000
      3486      1162  TIP3      H2             -6.5857962818      -12.3335851097       -9.3021731047  W2        1162            0.0000000000
      3487      1163  TIP3      OH2            -7.1356662818      -13.4455951097       -0.6892231047  W2        1163            0.0000000000
      3488      1163  TIP3      H1             -7.0557562818      -12.6821551097       -0.1173731047  W2        1163            0.0000000000
      3489      1163  TIP3      H2             -7.7368962818      -13.1663551097       -1.3797131047  W2        1163            0.0000000000
      3490      1164  TIP3      OH2           -15.3876462818      -10.9892351097       -7.8744231047  W2        1164            0.0000000000
      3491      1164  TIP3      H1            -15.7181262818      -11.3598951097       -8.6927231047  W2        1164            0.0000000000
      3492      1164  TIP3      H2            -14.7992362818      -11.6598351097       -7.5275931047  W2        1164            0.0000000000
      3493      1165  TIP3      OH2           -14.0208962818       -7.5611751097       -5.1932031047  W2        1165            0.0000000000
      3494      1165  TIP3      H1            -14.1157662818       -8.1398651097       -5.9497431047  W2        1165            0.0000000000
      3495      1165  TIP3      H2            -13.2915362818       -7.9326051097       -4.6969231047  W2        1165            0.0000000000
      3496      1166  TIP3      OH2           -15.0210962818      -12.2206751097       -4.2409231047  W2        1166            0.0000000000
      3497      1166  TIP3      H1            -14.4558462818      -12.0992551097       -5.0038031047  W2        1166            0.0000000000
      3498      1166  TIP3      H2            -14.7022062818      -11.5831751097       -3.6020731047  W2        1166            0.0000000000
      3499      1167  TIP3      OH2            -8.7118762818       -6.7174851097       -3.5068731047  W2        1167            0.0000000000
      3500      1167  TIP3      H1             -8.9522162818       -6.0551751097       -2.8589531047  W2        1167            0.0000000000
      3501      1167  TIP3      H2             -8.9100562818       -7.5519651097       -3.0819131047  W2        1167            0.0000000000
      3502      1168  TIP3      OH2           -14.1410262818       -7.8214051097        0.4762668953  W2        1168            0.0000000000
      3503      1168  TIP3      H1            -14.4522762818       -7.0390851097        0.9315868953  W2        1168            0.0000000000
      3504      1168  TIP3      H2            -14.7910062818       -7.9744951097       -0.2095331047  W2        1168            0.0000000000
      3505      1169  TIP3      OH2            -8.1620662818      -12.4575651097      -12.0718031047  W2        1169            0.0000000000
      3506      1169  TIP3      H1             -7.5825162818      -12.3075351097      -11.3249131047  W2        1169            0.0000000000
      3507      1169  TIP3      H2             -7.7480662818      -11.9868251097      -12.7951631047  W2        1169            0.0000000000
      3508      1170  TIP3      OH2           -17.2210362818      -11.6232951097       -0.2951631047  W2        1170            0.0000000000
      3509      1170  TIP3      H1            -17.1507162818      -10.9726151097        0.4033368953  W2        1170            0.0000000000
      3510      1170  TIP3      H2            -18.1118162818      -11.5205451097       -0.6300731047  W2        1170            0.0000000000
      3511      1171  TIP3      OH2           -10.4355762818       -5.7207151097       -8.6364931047  W2        1171            0.0000000000
      3512      1171  TIP3      H1             -9.9618162818       -5.4250851097       -7.8590731047  W2        1171            0.0000000000
      3513      1171  TIP3      H2            -10.9986462818       -4.9825551097       -8.8695331047  W2        1171            0.0000000000
      3514      1172  TIP3      OH2           -15.9014362818       -5.7499051097        1.2396468953  W2        1172            0.0000000000
      3515      1172  TIP3      H1            -15.8939062818       -5.8859351097        0.2921968953  W2        1172            0.0000000000
      3516      1172  TIP3      H2            -16.8173962818       -5.8670951097        1.4916468953  W2        1172            0.0000000000
      3517      1173  TIP3      OH2            -4.4632262818      -20.7075251097      -12.2588331047  W2        1173            0.0000000000
      3518      1173  TIP3      H1             -5.3631562818      -20.5686251097      -11.9637731047  W2        1173            0.0000000000
      3519      1173  TIP3      H2             -4.2113862818      -19.8760651097      -12.6606631047  W2        1173            0.0000000000
      3520      1174  TIP3      OH2           -16.3973762818      -11.9198051097      -10.2851431047  W2        1174            0.0000000000
      3521      1174  TIP3      H1            -16.6892462818      -11.1516351097      -10.7760131047  W2        1174            0.0000000000
      3522      1174  TIP3      H2            -17.0718562818      -12.5791851097      -10.4480031047  W2        1174            0.0000000000
      3523      1175  TIP3      OH2            -3.2740862818       -6.3412851097      -13.8824431047  W2        1175            0.0000000000
      3524      1175  TIP3      H1             -3.2007362818       -5.4022651097      -13.7119131047  W2        1175            0.0000000000
      3525      1175  TIP3      H2             -2.3685762818       -6.6464251097      -13.9387131047  W2        1175            0.0000000000
      3526      1176  TIP3      OH2           -20.3043662818       -9.5568851097       -1.4701631047  W2        1176            0.0000000000
      3527      1176  TIP3      H1            -20.8055262818       -9.5849451097       -2.2851931047  W2        1176            0.0000000000
      3528      1176  TIP3      H2            -20.2989962818      -10.4625651097       -1.1604331047  W2        1176            0.0000000000
      3529      1177  TIP3      OH2           -20.5540962818       -6.7765051097       -4.5861431047  W2        1177            0.0000000000
      3530      1177  TIP3      H1            -19.6080362818       -6.9208051097       -4.6051931047  W2        1177            0.0000000000
      3531      1177  TIP3      H2            -20.6664662818       -5.9922251097       -4.0490231047  W2        1177            0.0000000000
      3532      1178  TIP3      OH2            -2.3562462818       -6.1105351097        1.0962268953  W2        1178            0.0000000000
      3533      1178  TIP3      H1             -2.4055662818       -7.0657251097        1.0589868953  W2        1178            0.0000000000
      3534      1178  TIP3      H2             -3.1830162818       -5.8430051097        1.4976068953  W2        1178            0.0000000000
      3535      1179  TIP3      OH2           -11.3778462818       -6.5366151097       -0.0276331047  W2        1179            0.0000000000
      3536      1179  TIP3      H1            -11.2903862818       -5.7101551097        0.4472768953  W2        1179            0.0000000000
      3537      1179  TIP3      H2            -12.2413362818       -6.8662351097        0.2212968953  W2        1179            0.0000000000
      3538      1180  TIP3      OH2           -10.9632662818       -2.7642451097      -10.2215731047  W2        1180            0.0000000000
      3539      1180  TIP3      H1            -11.0386662818       -2.8855251097      -11.1680531047  W2        1180            0.0000000000
      3540      1180  TIP3      H2            -10.9303962818       -1.8149751097      -10.1031131047  W2        1180            0.0000000000
      3541      1181  TIP3      OH2           -17.3098862818       -3.9755451097       -8.4406731047  W2        1181            0.0000000000
      3542      1181  TIP3      H1            -17.1578462818       -4.3235051097       -7.5620231047  W2        1181            0.0000000000
      3543      1181  TIP3      H2            -18.1608462818       -4.3318151097       -8.6959531047  W2        1181            0.0000000000
      3544      1182  TIP3      OH2            -7.8616662818       -3.6102251097      -13.2193331047  W2        1182            0.0000000000
      3545      1182  TIP3      H1             -7.4868262818       -4.3546151097      -13.6900731047  W2        1182            0.0000000000
      3546      1182  TIP3      H2             -7.8572962818       -3.8801651097      -12.3010031047  W2        1182            0.0000000000
      3547      1183  TIP3      OH2            -8.1928562818       -3.6845151097      -10.4701131047  W2        1183            0.0000000000
      3548      1183  TIP3      H1             -9.1278762818       -3.5843251097      -10.2914131047  W2        1183            0.0000000000
      3549      1183  TIP3      H2             -7.9126662818       -4.3939151097       -9.8917931047  W2        1183            0.0000000000
      3550      1184  TIP3      OH2            -5.2042662818      -14.6172851097        1.5764468953  W2        1184            0.0000000000
      3551      1184  TIP3      H1             -5.6115862818      -14.1367251097        0.8557768953  W2        1184            0.0000000000
      3552      1184  TIP3      H2             -5.1636962818      -15.5226851097        1.2685268953  W2        1184            0.0000000000
      3553      1185  TIP3      OH2           -18.0553162818       -8.2333451097       -0.4268831047  W2        1185            0.0000000000
      3554      1185  TIP3      H1            -17.8391862818       -8.5947851097        0.4326968953  W2        1185            0.0000000000
      3555      1185  TIP3      H2            -18.9108462818       -8.6079651097       -0.6365331047  W2        1185            0.0000000000
      3556      1186  TIP3      OH2           -15.4365162818      -19.7632951097       -4.4314631047  W2        1186            0.0000000000
      3557      1186  TIP3      H1            -16.2981462818      -19.8504751097       -4.8391731047  W2        1186            0.0000000000
      3558      1186  TIP3      H2            -15.4589462818      -18.9072851097       -4.0037031047  W2        1186            0.0000000000
      3559      1187  TIP3      OH2           -10.7737362818      -20.0412551097       -1.0567631047  W2        1187            0.0000000000
      3560      1187  TIP3      H1            -10.3534262818      -20.4565451097       -0.3037031047  W2        1187            0.0000000000
      3561      1187  TIP3      H2            -11.7067762818      -20.2199251097       -0.9395631047  W2        1187            0.0000000000
      3562      1188  TIP3      OH2            -7.4472462818      -16.2857351097       -0.2033131047  W2        1188            0.0000000000
      3563      1188  TIP3      H1             -7.9612962818      -16.4115151097        0.5942868953  W2        1188            0.0000000000
      3564      1188  TIP3      H2             -7.6027762818      -15.3734251097       -0.4476931047  W2        1188            0.0000000000
      3565      1189  TIP3      OH2            -6.6847562818      -11.4247351097      -14.4420131047  W2        1189            0.0000000000
      3566      1189  TIP3      H1             -6.6426762818      -11.6473451097      -15.3720131047  W2        1189            0.0000000000
      3567      1189  TIP3      H2             -5.8355462818      -11.0260251097      -14.2520231047  W2        1189            0.0000000000
      3568      1190  TIP3      OH2           -11.1120062818      -17.5489151097      -13.7716831047  W2        1190            0.0000000000
      3569      1190  TIP3      H1            -11.3655262818      -17.5297551097      -12.8488731047  W2        1190            0.0000000000
      3570      1190  TIP3      H2            -11.3687962818      -18.4203751097      -14.0730631047  W2        1190            0.0000000000
      3571      1191  TIP3      OH2           -15.3455062818      -14.7978451097       -3.3364431047  W2        1191            0.0000000000
      3572      1191  TIP3      H1            -15.9872962818      -14.8381151097       -2.6274331047  W2        1191            0.0000000000
      3573      1191  TIP3      H2            -15.3083062818      -13.8713751097       -3.5741431047  W2        1191            0.0000000000
      3574      1192  TIP3      OH2           -15.3485962818      -14.5768351097       -8.4244431047  W2        1192            0.0000000000
      3575      1192  TIP3      H1            -16.2413062818      -14.9172251097       -8.4830631047  W2        1192            0.0000000000
      3576      1192  TIP3      H2            -14.8979362818      -14.9537451097       -9.1801231047  W2        1192            0.0000000000
      3577      1193  TIP3      OH2            -9.8130462818      -14.1608051097       -9.6073631047  W2        1193            0.0000000000
      3578      1193  TIP3      H1            -10.2220162818      -13.3459451097       -9.8988831047  W2        1193            0.0000000000
      3579      1193  TIP3      H2             -9.0924262818      -14.3007951097      -10.2216531047  W2        1193            0.0000000000
      3580      1194  TIP3      OH2           -10.7108862818      -13.9851651097        1.8807068953  W2        1194            0.0000000000
      3581      1194  TIP3      H1            -11.2735062818      -14.6900051097        2.2014868953  W2        1194            0.0000000000
      3582      1194  TIP3      H2             -9.8845462818      -14.1059751097        2.3484668953  W2        1194            0.0000000000
      3583      1195  TIP3      OH2            -8.8082762818      -14.7147651097       -6.7933931047  W2        1195            0.0000000000
      3584      1195  TIP3      H1             -9.0038262818      -14.1090851097       -7.5083331047  W2        1195            0.0000000000
      3585      1195  TIP3      H2             -8.6270162818      -15.5482451097       -7.2277631047  W2        1195            0.0000000000
      3586      1196  TIP3      OH2           -17.5954562818      -14.4774951097       -1.4692431047  W2        1196            0.0000000000
      3587      1196  TIP3      H1            -17.6335162818      -14.0773351097       -0.6005331047  W2        1196            0.0000000000
      3588      1196  TIP3      H2            -18.0863462818      -15.2942551097       -1.3789531047  W2        1196            0.0000000000
      3589      1197  TIP3      OH2           -14.2297162818      -17.1032651097      -14.6706431047  W2        1197            0.0000000000
      3590      1197  TIP3      H1            -14.6606462818      -17.5482551097      -13.9409031047  W2        1197            0.0000000000
      3591      1197  TIP3      H2            -14.9478462818      -16.7316351097      -15.1828931047  W2        1197            0.0000000000
      3592      1198  TIP3      OH2           -20.9873762818      -17.3613151097       -7.6187731047  W2        1198            0.0000000000
      3593      1198  TIP3      H1            -20.3566062818      -17.3901051097       -6.8993831047  W2        1198            0.0000000000
      3594      1198  TIP3      H2            -20.5379462818      -17.7864451097       -8.3491831047  W2        1198            0.0000000000
      3595      1199  TIP3      OH2           -19.7131662818      -16.6151151097      -12.1947331047  W2        1199            0.0000000000
      3596      1199  TIP3      H1            -19.2389962818      -16.0241251097      -12.7796431047  W2        1199            0.0000000000
      3597      1199  TIP3      H2            -20.4305262818      -16.0848251097      -11.8477231047  W2        1199            0.0000000000
      3598      1200  TIP3      OH2            -9.5443562818      -13.0766351097       -2.1221531047  W2        1200            0.0000000000
      3599      1200  TIP3      H1             -9.2208762818      -13.7076651097       -2.7651031047  W2        1200            0.0000000000
      3600      1200  TIP3      H2             -9.9844262818      -13.6114151097       -1.4614131047  W2        1200            0.0000000000
      3601      1201  TIP3      OH2           -12.7670662818      -17.1490851097       -7.3380331047  W2        1201            0.0000000000
      3602      1201  TIP3      H1            -13.6779562818      -17.0924051097       -7.0494331047  W2        1201            0.0000000000
      3603      1201  TIP3      H2            -12.2617762818      -17.2095351097       -6.5273131047  W2        1201            0.0000000000
      3604      1202  TIP3      OH2           -17.9387262818      -15.5204551097       -8.5112731047  W2        1202            0.0000000000
      3605      1202  TIP3      H1            -18.8279262818      -15.4209051097       -8.8513131047  W2        1202            0.0000000000
      3606      1202  TIP3      H2            -17.6422362818      -16.3621551097       -8.8574831047  W2        1202            0.0000000000
      3607      1203  TIP3      OH2           -14.2855462818      -15.5201951097      -10.8548131047  W2        1203            0.0000000000
      3608      1203  TIP3      H1            -13.3539962818      -15.3911951097      -10.6765031047  W2        1203            0.0000000000
      3609      1203  TIP3      H2            -14.5005162818      -14.8507651097      -11.5043431047  W2        1203            0.0000000000
      3610      1204  TIP3      OH2            -8.3618762818      -17.9144551097       -4.0738531047  W2        1204            0.0000000000
      3611      1204  TIP3      H1             -9.0387162818      -17.7831451097       -3.4098831047  W2        1204            0.0000000000
      3612      1204  TIP3      H2             -8.8473862818      -18.0695051097       -4.8840831047  W2        1204            0.0000000000
      3613      1205  TIP3      OH2           -15.6115262818      -14.3259751097      -13.2882031047  W2        1205            0.0000000000
      3614      1205  TIP3      H1            -16.1540162818      -14.7055951097      -13.9794431047  W2        1205            0.0000000000
      3615      1205  TIP3      H2            -14.7780362818      -14.1315051097      -13.7167931047  W2        1205            0.0000000000
      3616      1206  TIP3      OH2            -5.0743662818       -2.2429151097        2.2029068953  W2        1206            0.0000000000
      3617      1206  TIP3      H1             -4.8744962818       -1.8187251097        1.3684368953  W2        1206            0.0000000000
      3618      1206  TIP3      H2             -4.4189962818       -1.8990951097        2.8099468953  W2        1206            0.0000000000
      3619      1207  TIP3      OH2           -17.4763862818       -9.7687851097        1.8109568953  W2        1207            0.0000000000
      3620      1207  TIP3      H1            -16.7441462818       -9.5141951097        2.3724068953  W2        1207            0.0000000000
      3621      1207  TIP3      H2            -18.2565162818       -9.5642451097        2.3264968953  W2        1207            0.0000000000
      3622      1208  TIP3      OH2           -11.4470962818      -14.3617851097       -5.4510731047  W2        1208            0.0000000000
      3623      1208  TIP3      H1            -10.8827562818      -14.9081251097       -5.9981131047  W2        1208            0.0000000000
      3624      1208  TIP3      H2            -11.5947562818      -14.8835951097       -4.6623131047  W2        1208            0.0000000000
      3625      1209  TIP3      OH2           -16.4451262818      -18.2251751097       -9.0325931047  W2        1209            0.0000000000
      3626      1209  TIP3      H1            -16.7621762818      -19.1276451097       -9.0680531047  W2        1209            0.0000000000
      3627      1209  TIP3      H2            -15.6637162818      -18.2234351097       -9.5854331047  W2        1209            0.0000000000
      3628      1210  TIP3      OH2           -12.8205062818      -15.9731751097       -3.0370331047  W2        1210            0.0000000000
      3629      1210  TIP3      H1            -13.6559762818      -15.5192251097       -2.9267931047  W2        1210            0.0000000000
      3630      1210  TIP3      H2            -12.2964462818      -15.6973251097       -2.2850431047  W2        1210            0.0000000000
      3631      1211  TIP3      OH2           -12.2762462818       -9.7604051097      -11.3523931047  W2        1211            0.0000000000
      3632      1211  TIP3      H1            -13.0211462818      -10.2678751097      -11.6746031047  W2        1211            0.0000000000
      3633      1211  TIP3      H2            -12.4105262818       -9.7116051097      -10.4059131047  W2        1211            0.0000000000
      3634      1212  TIP3      OH2            -5.1263562818      -10.6275851097       -2.5656331047  W2        1212            0.0000000000
      3635      1212  TIP3      H1             -4.4844762818      -10.1709551097       -3.1094131047  W2        1212            0.0000000000
      3636      1212  TIP3      H2             -5.9566662818      -10.5143451097       -3.0282231047  W2        1212            0.0000000000
      3637      1213  TIP3      OH2            -8.3785662818      -16.9464151097      -13.1531331047  W2        1213            0.0000000000
      3638      1213  TIP3      H1             -9.3171462818      -16.8348551097      -13.3042531047  W2        1213            0.0000000000
      3639      1213  TIP3      H2             -8.0813562818      -16.0897251097      -12.8465631047  W2        1213            0.0000000000
      3640      1214  TIP3      OH2           -10.7570362818       -9.5760751097       -0.1154831047  W2        1214            0.0000000000
      3641      1214  TIP3      H1            -11.1024262818       -9.9578351097        0.6914768953  W2        1214            0.0000000000
      3642      1214  TIP3      H2            -10.9570262818       -8.6427151097       -0.0441931047  W2        1214            0.0000000000
      3643      1215  TIP3      OH2            -7.6602162818      -15.0791451097      -11.4923931047  W2        1215            0.0000000000
      3644      1215  TIP3      H1             -6.7683162818      -15.2166451097      -11.1732731047  W2        1215            0.0000000000
      3645      1215  TIP3      H2             -7.6038562818      -14.2885351097      -12.0290431047  W2        1215            0.0000000000
      3646      1216  TIP3      OH2           -17.1514162818      -10.4654051097       -5.5826031047  W2        1216            0.0000000000
      3647      1216  TIP3      H1            -16.4066962818      -10.4678351097       -6.1839531047  W2        1216            0.0000000000
      3648      1216  TIP3      H2            -17.0737562818      -11.2890251097       -5.1010931047  W2        1216            0.0000000000
      3649      1217  TIP3      OH2           -10.1508362818       -8.3019751097      -12.3269331047  W2        1217            0.0000000000
      3650      1217  TIP3      H1            -10.4459962818       -7.4751851097      -11.9454531047  W2        1217            0.0000000000
      3651      1217  TIP3      H2            -10.8538362818       -8.9212851097      -12.1307931047  W2        1217            0.0000000000
      3652      1218  TIP3      OH2           -20.1434462818      -12.0047151097       -0.2677531047  W2        1218            0.0000000000
      3653      1218  TIP3      H1            -19.9205862818      -12.4227551097        0.5639968953  W2        1218            0.0000000000
      3654      1218  TIP3      H2            -20.7454362818      -12.6172151097       -0.6904731047  W2        1218            0.0000000000
      3655      1219  TIP3      OH2           -13.1269562818      -12.4877251097        1.9452168953  W2        1219            0.0000000000
      3656      1219  TIP3      H1            -13.4228762818      -12.6534251097        1.0501268953  W2        1219            0.0000000000
      3657      1219  TIP3      H2            -12.1954362818      -12.7076951097        1.9346068953  W2        1219            0.0000000000
      3658      1220  TIP3      OH2            -8.5066762818       -7.1145251097       -0.1649831047  W2        1220            0.0000000000
      3659      1220  TIP3      H1             -9.4072462818       -6.9312651097       -0.4325931047  W2        1220            0.0000000000
      3660      1220  TIP3      H2             -8.4725662818       -6.8555951097        0.7558968953  W2        1220            0.0000000000
      3661      1221  TIP3      OH2            -2.7753462818      -14.8697351097      -11.7977231047  W2        1221            0.0000000000
      3662      1221  TIP3      H1             -3.3297162818      -15.2659351097      -12.4699731047  W2        1221            0.0000000000
      3663      1221  TIP3      H2             -2.6749862818      -13.9592151097      -12.0753931047  W2        1221            0.0000000000
      3664      1222  TIP3      OH2            -2.8121462818       -9.0695651097        1.0394268953  W2        1222            0.0000000000
      3665      1222  TIP3      H1             -3.6632962818       -8.8311851097        0.6720668953  W2        1222            0.0000000000
      3666      1222  TIP3      H2             -2.2218062818       -9.0862451097        0.2861368953  W2        1222            0.0000000000
      3667      1223  TIP3      OH2            -4.4801762818       -6.0836951097      -11.3325131047  W2        1223            0.0000000000
      3668      1223  TIP3      H1             -4.8530662818       -6.9093151097      -11.0234531047  W2        1223            0.0000000000
      3669      1223  TIP3      H2             -4.2028262818       -6.2667551097      -12.2301731047  W2        1223            0.0000000000
      3670      1224  TIP3      OH2            -7.3197862818      -11.2757451097       -4.3113231047  W2        1224            0.0000000000
      3671      1224  TIP3      H1             -8.2480962818      -11.5075551097       -4.3383931047  W2        1224            0.0000000000
      3672      1224  TIP3      H2             -6.8686762818      -12.0527651097       -4.6414431047  W2        1224            0.0000000000
      3673      1225  TIP3      OH2           -14.7764762818       -6.9475851097       -8.1784531047  W2        1225            0.0000000000
      3674      1225  TIP3      H1            -14.2492562818       -6.1741451097       -8.3785731047  W2        1225            0.0000000000
      3675      1225  TIP3      H2            -15.6566262818       -6.7226651097       -8.4800531047  W2        1225            0.0000000000
      3676      1226  TIP3      OH2           -19.0217062818      -12.0851751097      -13.5912131047  W2        1226            0.0000000000
      3677      1226  TIP3      H1            -18.4057162818      -11.4584551097      -13.2117331047  W2        1226            0.0000000000
      3678      1226  TIP3      H2            -19.8834462818      -11.7691951097      -13.3195631047  W2        1226            0.0000000000
      3679      1227  TIP3      OH2           -13.3492462818       -9.2845951097       -8.6020231047  W2        1227            0.0000000000
      3680      1227  TIP3      H1            -13.5902462818       -8.3591551097       -8.5604931047  W2        1227            0.0000000000
      3681      1227  TIP3      H2            -14.0898862818       -9.7434651097       -8.2056331047  W2        1227            0.0000000000
      3682      1228  TIP3      OH2           -12.8345862818       -5.1352351097       -2.2869131047  W2        1228            0.0000000000
      3683      1228  TIP3      H1            -12.4721162818       -4.2806751097       -2.5204731047  W2        1228            0.0000000000
      3684      1228  TIP3      H2            -12.3030662818       -5.4270751097       -1.5462831047  W2        1228            0.0000000000
      3685      1229  TIP3      OH2           -14.6661662818       -4.2628351097       -9.0568031047  W2        1229            0.0000000000
      3686      1229  TIP3      H1            -15.6161162818       -4.1570951097       -9.0054731047  W2        1229            0.0000000000
      3687      1229  TIP3      H2            -14.3143562818       -3.4420951097       -8.7120531047  W2        1229            0.0000000000
      3688      1230  TIP3      OH2            -9.2905062818       -9.0361651097       -2.5863531047  W2        1230            0.0000000000
      3689      1230  TIP3      H1             -9.7163762818       -9.2639951097       -1.7599531047  W2        1230            0.0000000000
      3690      1230  TIP3      H2             -8.7099262818       -9.7749851097       -2.7688231047  W2        1230            0.0000000000
      3691      1231  TIP3      OH2            -7.0876162818       -8.1071151097      -13.5124531047  W2        1231            0.0000000000
      3692      1231  TIP3      H1             -6.7343062818       -8.4871351097      -12.7081031047  W2        1231            0.0000000000
      3693      1231  TIP3      H2             -8.0362662818       -8.2006351097      -13.4255231047  W2        1231            0.0000000000
      3694      1232  TIP3      OH2            -6.6320862818       -4.4842151097       -0.1168731047  W2        1232            0.0000000000
      3695      1232  TIP3      H1             -7.2337662818       -5.0399251097       -0.6122431047  W2        1232            0.0000000000
      3696      1232  TIP3      H2             -6.3507162818       -3.8172351097       -0.7431331047  W2        1232            0.0000000000
      3697      1233  TIP3      OH2            -2.5841762818       -3.6278651097      -13.3114331047  W2        1233            0.0000000000
      3698      1233  TIP3      H1             -1.8403862818       -3.0418151097      -13.4512731047  W2        1233            0.0000000000
      3699      1233  TIP3      H2             -3.2783662818       -3.0592851097      -12.9781931047  W2        1233            0.0000000000
      3700      1234  TIP3      OH2           -18.5094962818      -17.2514451097       -0.7096131047  W2        1234            0.0000000000
      3701      1234  TIP3      H1            -19.4022662818      -16.9129051097       -0.7772131047  W2        1234            0.0000000000
      3702      1234  TIP3      H2            -18.6082162818      -18.1068351097       -0.2915331047  W2        1234            0.0000000000
      3703      1235  TIP3      OH2            -6.2216862818       -9.4349151097      -11.2856631047  W2        1235            0.0000000000
      3704      1235  TIP3      H1             -6.4989262818      -10.1629851097      -10.7295531047  W2        1235            0.0000000000
      3705      1235  TIP3      H2             -5.2943862818       -9.3157151097      -11.0804031047  W2        1235            0.0000000000
      3706      1236  TIP3      OH2           -18.8582962818       -5.4470051097       -2.2746731047  W2        1236            0.0000000000
      3707      1236  TIP3      H1            -18.6412662818       -6.3787651097       -2.3057031047  W2        1236            0.0000000000
      3708      1236  TIP3      H2            -18.6119462818       -5.1725051097       -1.3913931047  W2        1236            0.0000000000
      3709      1237  TIP3      OH2           -12.9968362818       -6.9955051097      -15.0654531047  W2        1237            0.0000000000
      3710      1237  TIP3      H1            -12.7578562818       -7.7436951097      -15.6125631047  W2        1237            0.0000000000
      3711      1237  TIP3      H2            -13.2657062818       -7.3833351097      -14.2326731047  W2        1237            0.0000000000
      3712      1238  TIP3      OH2           -14.0597762818       -7.4251251097      -12.6091931047  W2        1238            0.0000000000
      3713      1238  TIP3      H1            -13.9129762818       -7.9451451097      -11.8191031047  W2        1238            0.0000000000
      3714      1238  TIP3      H2            -14.0626062818       -6.5183651097      -12.3026031047  W2        1238            0.0000000000
      3715      1239  TIP3      OH2           -17.6066662818      -10.1727951097      -12.0986531047  W2        1239            0.0000000000
      3716      1239  TIP3      H1            -18.2927362818       -9.8205451097      -11.5316831047  W2        1239            0.0000000000
      3717      1239  TIP3      H2            -17.0838762818       -9.4098351097      -12.3452231047  W2        1239            0.0000000000
      3718      1240  TIP3      OH2            -9.7751562818      -17.5104151097       -1.8197531047  W2        1240            0.0000000000
      3719      1240  TIP3      H1             -9.0763662818      -17.4365451097       -1.1697831047  W2        1240            0.0000000000
      3720      1240  TIP3      H2            -10.1560162818      -18.3749151097       -1.6654631047  W2        1240            0.0000000000
      3721      1241  TIP3      OH2            -8.9906662818      -17.8582451097      -10.7225231047  W2        1241            0.0000000000
      3722      1241  TIP3      H1             -8.7708362818      -17.3867051097      -11.5259831047  W2        1241            0.0000000000
      3723      1241  TIP3      H2             -8.4322662818      -17.4639851097      -10.0524631047  W2        1241            0.0000000000
      3724      1242  TIP3      OH2           -11.3220562818       -5.7277651097      -11.8597731047  W2        1242            0.0000000000
      3725      1242  TIP3      H1            -12.1384462818       -5.2307951097      -11.8073431047  W2        1242            0.0000000000
      3726      1242  TIP3      H2            -10.7924262818       -5.2524151097      -12.4998931047  W2        1242            0.0000000000
      3727      1243  TIP3      OH2           -11.7906762818      -16.1303651097       -9.8876831047  W2        1243            0.0000000000
      3728      1243  TIP3      H1            -10.9784162818      -15.6260451097       -9.8415131047  W2        1243            0.0000000000
      3729      1243  TIP3      H2            -12.0353762818      -16.2753951097       -8.9737231047  W2        1243            0.0000000000
      3730      1244  TIP3      OH2           -11.2550362818      -15.1440951097       -0.7030231047  W2        1244            0.0000000000
      3731      1244  TIP3      H1            -11.1360062818      -14.5705551097        0.0540168953  W2        1244            0.0000000000
      3732      1244  TIP3      H2            -10.5995762818      -15.8321551097       -0.5882431047  W2        1244            0.0000000000
      3733      1245  TIP3      OH2           -10.9070062818      -19.0490651097       -8.9495731047  W2        1245            0.0000000000
      3734      1245  TIP3      H1            -11.2536562818      -18.4320051097       -8.3051431047  W2        1245            0.0000000000
      3735      1245  TIP3      H2            -10.2483162818      -18.5484951097       -9.4310231047  W2        1245            0.0000000000
      3736      1246  TIP3      OH2           -13.9837462818       -4.6840451097      -11.8780831047  W2        1246            0.0000000000
      3737      1246  TIP3      H1            -13.8228762818       -3.8842951097      -12.3788231047  W2        1246            0.0000000000
      3738      1246  TIP3      H2            -14.1809662818       -4.3774451097      -10.9930231047  W2        1246            0.0000000000
      3739      1247  TIP3      OH2           -15.2493062818      -17.9861251097      -12.2623231047  W2        1247            0.0000000000
      3740      1247  TIP3      H1            -15.3328262818      -17.0978151097      -11.9156831047  W2        1247            0.0000000000
      3741      1247  TIP3      H2            -14.3592762818      -18.2514551097      -12.0306431047  W2        1247            0.0000000000
      3742      1248  TIP3      OH2            -5.0504562818      -17.2370651097        0.1319468953  W2        1248            0.0000000000
      3743      1248  TIP3      H1             -5.9668762818      -16.9748951097        0.0443168953  W2        1248            0.0000000000
      3744      1248  TIP3      H2             -4.7149562818      -17.2401651097       -0.7645231047  W2        1248            0.0000000000
      3745      1249  TIP3      OH2            -6.4483562818      -13.4869651097       -5.7723231047  W2        1249            0.0000000000
      3746      1249  TIP3      H1             -7.2459162818      -13.9019451097       -6.1008231047  W2        1249            0.0000000000
      3747      1249  TIP3      H2             -6.0032462818      -14.1775951097       -5.2812731047  W2        1249            0.0000000000
      3748      1250  TIP3      OH2           -16.9907762818       -7.5589051097      -13.2018731047  W2        1250            0.0000000000
      3749      1250  TIP3      H1            -16.3986262818       -6.8594251097      -12.9256331047  W2        1250            0.0000000000
      3750      1250  TIP3      H2            -16.5314762818       -7.9919551097      -13.9214131047  W2        1250            0.0000000000
      3751      1251  TIP3      OH2           -18.6748562818      -14.8946051097      -14.0859331047  W2        1251            0.0000000000
      3752      1251  TIP3      H1            -18.7195962818      -13.9552951097      -13.9072331047  W2        1251            0.0000000000
      3753      1251  TIP3      H2            -19.5625362818      -15.1301151097      -14.3557231047  W2        1251            0.0000000000
      3754      1252  TIP3      OH2            -5.3618962818       -4.2307151097       -4.1499731047  W2        1252            0.0000000000
      3755      1252  TIP3      H1             -5.5174662818       -3.5522751097       -4.8070431047  W2        1252            0.0000000000
      3756      1252  TIP3      H2             -4.4292562818       -4.1587851097       -3.9469131047  W2        1252            0.0000000000
      3757      1253  TIP3      OH2           -17.8666562818      -20.1129451097       -5.4128331047  W2        1253            0.0000000000
      3758      1253  TIP3      H1            -18.0956762818      -20.0536951097       -6.3403331047  W2        1253            0.0000000000
      3759      1253  TIP3      H2            -18.3093162818      -20.9043951097       -5.1064231047  W2        1253            0.0000000000
      3760      1254  TIP3      OH2           -18.9363262818       -6.1722351097       -9.2522531047  W2        1254            0.0000000000
      3761      1254  TIP3      H1            -19.7684662818       -5.6999651097       -9.2251131047  W2        1254            0.0000000000
      3762      1254  TIP3      H2            -18.3904962818       -5.6624751097       -9.8509431047  W2        1254            0.0000000000
      3763      1255  TIP3      OH2           -19.6479562818       -3.5598651097        2.0775468953  W2        1255            0.0000000000
      3764      1255  TIP3      H1            -19.1077362818       -3.7764651097        2.8374668953  W2        1255            0.0000000000
      3765      1255  TIP3      H2            -20.1291562818       -4.3652651097        1.8877968953  W2        1255            0.0000000000
      3766      1256  TIP3      OH2           -15.0506162818       -4.6404251097        3.6979668953  W2        1256            0.0000000000
      3767      1256  TIP3      H1            -14.2828962818       -5.0993451097        4.0388868953  W2        1256            0.0000000000
      3768      1256  TIP3      H2            -15.0719962818       -4.8664451097        2.7680868953  W2        1256            0.0000000000
      3769      1257  TIP3      OH2           -10.9586562818       -5.1323651097      -14.9268531047  W2        1257            0.0000000000
      3770      1257  TIP3      H1            -11.6025562818       -5.7635051097      -14.6054831047  W2        1257            0.0000000000
      3771      1257  TIP3      H2            -10.1968262818       -5.6635651097      -15.1585031047  W2        1257            0.0000000000
      3772      1258  TIP3      OH2            -8.4737462818       -6.2603151097        2.4271168953  W2        1258            0.0000000000
      3773      1258  TIP3      H1             -8.8247962818       -7.1170151097        2.6701568953  W2        1258            0.0000000000
      3774      1258  TIP3      H2             -7.7474262818       -6.1176451097        3.0340168953  W2        1258            0.0000000000
      3775      1259  TIP3      OH2            -6.3543662818       -5.3153751097      -14.6930531047  W2        1259            0.0000000000
      3776      1259  TIP3      H1             -6.0713262818       -6.1098551097      -14.2403631047  W2        1259            0.0000000000
      3777      1259  TIP3      H2             -5.6145762818       -5.0822751097      -15.2539431047  W2        1259            0.0000000000
      3778      1260  TIP3      OH2           -19.7410062818       -9.7494551097        3.0319768953  W2        1260            0.0000000000
      3779      1260  TIP3      H1            -19.5969562818      -10.6513851097        2.7456468953  W2        1260            0.0000000000
      3780      1260  TIP3      H2            -20.5132662818       -9.4632451097        2.5442068953  W2        1260            0.0000000000
      3781      1261  TIP3      OH2           -15.3996362818       -9.4058851097      -14.8355631047  W2        1261            0.0000000000
      3782      1261  TIP3      H1            -15.3352262818      -10.1999251097      -14.3049231047  W2        1261            0.0000000000
      3783      1261  TIP3      H2            -14.7467162818       -9.5246051097      -15.5253631047  W2        1261            0.0000000000
      3784      1262  TIP3      OH2           -13.0853962818       -9.7796451097        2.4646168953  W2        1262            0.0000000000
      3785      1262  TIP3      H1            -13.4140162818       -9.5088351097        1.6073568953  W2        1262            0.0000000000
      3786      1262  TIP3      H2            -12.9335762818      -10.7206651097        2.3771168953  W2        1262            0.0000000000
      3787      1263  TIP3      OH2           -10.0472962818       -8.3587151097      -15.0997631047  W2        1263            0.0000000000
      3788      1263  TIP3      H1            -10.3158862818       -8.1785051097      -14.1988731047  W2        1263            0.0000000000
      3789      1263  TIP3      H2            -10.2537362818       -9.2840951097      -15.2311831047  W2        1263            0.0000000000
      3790      1264  TIP3      OH2            -7.3508762818       -9.8639151097       -0.1521531047  W2        1264            0.0000000000
      3791      1264  TIP3      H1             -6.6053962818       -9.2755451097       -0.2717531047  W2        1264            0.0000000000
      3792      1264  TIP3      H2             -8.1081962818       -9.2819451097       -0.0888431047  W2        1264            0.0000000000
      3793      1265  TIP3      OH2           -18.9083562818      -12.5491251097        2.4519068953  W2        1265            0.0000000000
      3794      1265  TIP3      H1            -18.5002362818      -13.4064651097        2.3309668953  W2        1265            0.0000000000
      3795      1265  TIP3      H2            -19.1685962818      -12.5349951097        3.3729368953  W2        1265            0.0000000000
      3796      1266  TIP3      OH2           -14.2502562818      -11.4332651097      -12.5297631047  W2        1266            0.0000000000
      3797      1266  TIP3      H1            -14.7100562818      -11.9174351097      -11.8439131047  W2        1266            0.0000000000
      3798      1266  TIP3      H2            -13.9953862818      -12.1017251097      -13.1657131047  W2        1266            0.0000000000
      3799      1267  TIP3      OH2           -14.9613262818      -13.5405551097       -0.1738031047  W2        1267            0.0000000000
      3800      1267  TIP3      H1            -15.5797162818      -12.8658951097        0.1066668953  W2        1267            0.0000000000
      3801      1267  TIP3      H2            -14.6172062818      -13.2191651097       -1.0071831047  W2        1267            0.0000000000
      3802      1268  TIP3      OH2           -13.1792162818      -13.1900851097      -14.2674431047  W2        1268            0.0000000000
      3803      1268  TIP3      H1            -13.3597162818      -13.3449651097      -15.1946131047  W2        1268            0.0000000000
      3804      1268  TIP3      H2            -12.2291662818      -13.0822151097      -14.2226531047  W2        1268            0.0000000000
      3805      1269  TIP3      OH2            -9.9415062818      -11.0690251097        3.1036768953  W2        1269            0.0000000000
      3806      1269  TIP3      H1             -8.9883862818      -10.9851151097        3.0762768953  W2        1269            0.0000000000
      3807      1269  TIP3      H2            -10.1020462818      -11.7808451097        3.7231668953  W2        1269            0.0000000000
      3808      1270  TIP3      OH2            -3.7893862818      -10.8356651097      -14.8216331047  W2        1270            0.0000000000
      3809      1270  TIP3      H1             -4.0629062818      -11.2601151097      -15.6348031047  W2        1270            0.0000000000
      3810      1270  TIP3      H2             -3.7499762818       -9.9042151097      -15.0385931047  W2        1270            0.0000000000
      3811      1271  TIP3      OH2           -14.6219562818      -16.1854751097        0.9085068953  W2        1271            0.0000000000
      3812      1271  TIP3      H1            -14.4718662818      -16.9143451097        0.3064768953  W2        1271            0.0000000000
      3813      1271  TIP3      H2            -14.6197162818      -15.4083051097        0.3497268953  W2        1271            0.0000000000
      3814      1272  TIP3      OH2           -14.2093862818      -17.8158951097       -1.5987531047  W2        1272            0.0000000000
      3815      1272  TIP3      H1            -13.6736362818      -17.3642251097       -2.2508231047  W2        1272            0.0000000000
      3816      1272  TIP3      H2            -15.0614262818      -17.9239151097       -2.0213431047  W2        1272            0.0000000000
      3817      1273  TIP3      OH2           -12.6275462818      -12.3762751097       -1.3592331047  W2        1273            0.0000000000
      3818      1273  TIP3      H1            -11.8770662818      -12.5325251097       -1.9324531047  W2        1273            0.0000000000
      3819      1273  TIP3      H2            -12.9667162818      -11.5246151097       -1.6346831047  W2        1273            0.0000000000
      3820      1274  TIP3      OH2            -8.2119262818      -14.5610951097        3.6692968953  W2        1274            0.0000000000
      3821      1274  TIP3      H1             -8.0197962818      -15.4921551097        3.5577468953  W2        1274            0.0000000000
      3822      1274  TIP3      H2             -7.3542962818      -14.1361451097        3.6588368953  W2        1274            0.0000000000
      3823      1275  TIP3      OH2            -6.8952062818      -11.7725751097        1.7465668953  W2        1275            0.0000000000
      3824      1275  TIP3      H1             -7.1767062818      -11.0631151097        1.1689468953  W2        1275            0.0000000000
      3825      1275  TIP3      H2             -5.9527762818      -11.8452751097        1.5956868953  W2        1275            0.0000000000
      3826      1276  TIP3      OH2           -16.1433262818      -14.9871251097        2.8200668953  W2        1276            0.0000000000
      3827      1276  TIP3      H1            -16.9104262818      -15.5196451097        2.6098268953  W2        1276            0.0000000000
      3828      1276  TIP3      H2            -15.4644262818      -15.2970851097        2.2206968953  W2        1276            0.0000000000
      3829      1277  TIP3      OH2           -13.4038362818      -20.3593251097       -1.1673931047  W2        1277            0.0000000000
      3830      1277  TIP3      H1            -13.5018762818      -19.4130051097       -1.2727731047  W2        1277            0.0000000000
      3831      1277  TIP3      H2            -14.1462162818      -20.7319451097       -1.6430431047  W2        1277            0.0000000000
      3832      1278  TIP3      OH2           -12.1397862818      -16.0377851097        2.3964468953  W2        1278            0.0000000000
      3833      1278  TIP3      H1            -12.3752462818      -16.2571151097        3.2979368953  W2        1278            0.0000000000
      3834      1278  TIP3      H2            -12.9230962818      -16.2446651097        1.8866968953  W2        1278            0.0000000000
      3835      1279  TIP3      OH2            -9.4241262818      -16.9104351097        1.4717968953  W2        1279            0.0000000000
      3836      1279  TIP3      H1            -10.3715862818      -16.8784651097        1.6041268953  W2        1279            0.0000000000
      3837      1279  TIP3      H2             -9.1114562818      -17.5357251097        2.1256168953  W2        1279            0.0000000000
      3838      1280  TIP3      OH2            -7.7899762818      -18.2763251097        3.4769868953  W2        1280            0.0000000000
      3839      1280  TIP3      H1             -7.8867962818      -19.2285951097        3.4711768953  W2        1280            0.0000000000
      3840      1280  TIP3      H2             -8.1116662818      -18.0076451097        4.3375368953  W2        1280            0.0000000000
      3841      1281  TIP3      OH2           -17.9630462818      -17.0667451097        2.5245368953  W2        1281            0.0000000000
      3842      1281  TIP3      H1            -17.7513062818      -17.7731351097        1.9142868953  W2        1281            0.0000000000
      3843      1281  TIP3      H2            -18.0742962818      -17.5041451097        3.3686568953  W2        1281            0.0000000000
      3844      1282  TIP3      OH2           -13.1820262818      -21.0655851097        1.5038868953  W2        1282            0.0000000000
      3845      1282  TIP3      H1            -12.4701862818      -21.7053651097        1.4897968953  W2        1282            0.0000000000
      3846      1282  TIP3      H2            -13.2829862818      -20.7987551097        0.5901968953  W2        1282            0.0000000000
      3847      1283  TIP3      OH2           -12.8282762818      -19.3827451097        3.5575168953  W2        1283            0.0000000000
      3848      1283  TIP3      H1            -12.9600562818      -19.8583651097        2.7373668953  W2        1283            0.0000000000
      3849      1283  TIP3      H2            -13.4275362818      -18.6383851097        3.5022268953  W2        1283            0.0000000000
      3850      1284  TIP3      OH2           -13.2820462818       -2.4997151097      -13.2660831047  W2        1284            0.0000000000
      3851      1284  TIP3      H1            -12.3489762818       -2.3418451097      -13.1222431047  W2        1284            0.0000000000
      3852      1284  TIP3      H2            -13.5461662818       -1.8244151097      -13.8909331047  W2        1284            0.0000000000
      3853      1285  TIP3      OH2           -19.7135562818       -7.8633351097      -13.7832731047  W2        1285            0.0000000000
      3854      1285  TIP3      H1            -18.7996362818       -7.7844451097      -13.5098831047  W2        1285            0.0000000000
      3855      1285  TIP3      H2            -19.7062462818       -8.5503751097      -14.4497131047  W2        1285            0.0000000000
      3856      1286  TIP3      OH2           -21.0644962818       -2.4704851097       -8.7058831047  W2        1286            0.0000000000
      3857      1286  TIP3      H1            -21.7117862818       -2.9323151097       -9.2387631047  W2        1286            0.0000000000
      3858      1286  TIP3      H2            -20.7100362818       -3.1421551097       -8.1232631047  W2        1286            0.0000000000
      3859      1287  TIP3      OH2           -20.1945762818       -4.3897851097       -6.9012631047  W2        1287            0.0000000000
      3860      1287  TIP3      H1            -20.5288962818       -5.2700551097       -6.7292431047  W2        1287            0.0000000000
      3861      1287  TIP3      H2            -19.9723362818       -4.0442851097       -6.0367031047  W2        1287            0.0000000000
      3862      1288  TIP3      OH2            -2.6460962818       -3.5801451097       -3.9207831047  W2        1288            0.0000000000
      3863      1288  TIP3      H1             -2.6674262818       -3.3953051097       -2.9818431047  W2        1288            0.0000000000
      3864      1288  TIP3      H2             -1.9554762818       -3.0117451097       -4.2616431047  W2        1288            0.0000000000
      3865      1289  TIP3      OH2            -3.0828062818       -4.0130351097       -0.9988731047  W2        1289            0.0000000000
      3866      1289  TIP3      H1             -3.5699362818       -4.7486251097       -1.3701331047  W2        1289            0.0000000000
      3867      1289  TIP3      H2             -2.5335362818       -4.4066451097       -0.3209331047  W2        1289            0.0000000000
      3868      1290  TIP3      OH2            -4.6320762818       -8.2232251097        3.6391568953  W2        1290            0.0000000000
      3869      1290  TIP3      H1             -5.4979662818       -8.3282551097        4.0333868953  W2        1290            0.0000000000
      3870      1290  TIP3      H2             -4.2554862818       -7.4648951097        4.0856268953  W2        1290            0.0000000000
      3871      1291  TIP3      OH2            -3.3311062818       -9.9668551097      -10.8465931047  W2        1291            0.0000000000
      3872      1291  TIP3      H1             -2.4809662818       -9.5457651097      -10.7194331047  W2        1291            0.0000000000
      3873      1291  TIP3      H2             -3.3255962818      -10.7068451097      -10.2394531047  W2        1291            0.0000000000
      3874      1292  TIP3      OH2            -2.9365462818      -11.9131151097       -9.0230231047  W2        1292            0.0000000000
      3875      1292  TIP3      H1             -3.6630862818      -12.3928551097       -8.6252631047  W2        1292            0.0000000000
      3876      1292  TIP3      H2             -2.3552162818      -11.7076451097       -8.2908631047  W2        1292            0.0000000000
      3877      1293  TIP3      OH2            -3.1774262818       -9.1283651097       -4.0752631047  W2        1293            0.0000000000
      3878      1293  TIP3      H1             -2.3440062818       -9.5063651097       -4.3559031047  W2        1293            0.0000000000
      3879      1293  TIP3      H2             -3.0653962818       -8.1852451097       -4.1943531047  W2        1293            0.0000000000
      3880      1294  TIP3      OH2            -4.6911962818       -6.2506151097       -1.7684231047  W2        1294            0.0000000000
      3881      1294  TIP3      H1             -5.3386662818       -5.9254651097       -1.1429031047  W2        1294            0.0000000000
      3882      1294  TIP3      H2             -5.2087962818       -6.6908451097       -2.4425931047  W2        1294            0.0000000000
      3883      1295  TIP3      OH2            -2.6682362818      -12.0122651097      -12.6318931047  W2        1295            0.0000000000
      3884      1295  TIP3      H1             -3.1901262818      -11.6558551097      -13.3508031047  W2        1295            0.0000000000
      3885      1295  TIP3      H2             -2.7013162818      -11.3374851097      -11.9538031047  W2        1295            0.0000000000
      3886      1296  TIP3      OH2            -4.3193362818      -14.7727051097      -14.0811831047  W2        1296            0.0000000000
      3887      1296  TIP3      H1             -4.2228962818      -14.1060051097      -14.7612131047  W2        1296            0.0000000000
      3888      1296  TIP3      H2             -4.4593762818      -15.5880751097      -14.5626331047  W2        1296            0.0000000000
      3889      1297  TIP3      OH2            -5.1498662818      -13.3924651097       -8.4601531047  W2        1297            0.0000000000
      3890      1297  TIP3      H1             -5.2999862818      -14.3376051097       -8.4803731047  W2        1297            0.0000000000
      3891      1297  TIP3      H2             -5.5034162818      -13.1113251097       -7.6162431047  W2        1297            0.0000000000
      3892      1298  TIP3      OH2           -20.1146262818      -11.3142451097       -4.4497731047  W2        1298            0.0000000000
      3893      1298  TIP3      H1            -19.9303362818      -11.3960751097       -5.3854831047  W2        1298            0.0000000000
      3894      1298  TIP3      H2            -19.2653362818      -11.4385451097       -4.0261331047  W2        1298            0.0000000000
      3895      1299  TIP3      OH2            -4.2935762818      -11.4221351097        1.1786768953  W2        1299            0.0000000000
      3896      1299  TIP3      H1             -3.7108462818      -12.1569051097        1.3703968953  W2        1299            0.0000000000
      3897      1299  TIP3      H2             -3.7296462818      -10.6501051097        1.2252568953  W2        1299            0.0000000000
      3898      1300  TIP3      OH2            -2.7968662818      -13.5195551097        1.8632168953  W2        1300            0.0000000000
      3899      1300  TIP3      H1             -3.6601962818      -13.8983451097        1.6976868953  W2        1300            0.0000000000
      3900      1300  TIP3      H2             -2.1924962818      -14.2580751097        1.7887968953  W2        1300            0.0000000000
      3901      1301  TIP3      OH2            -5.0719562818      -17.3647251097      -14.9636331047  W2        1301            0.0000000000
      3902      1301  TIP3      H1             -4.4613762818      -17.7360451097      -14.3268131047  W2        1301            0.0000000000
      3903      1301  TIP3      H2             -5.9088062818      -17.7860351097      -14.7676331047  W2        1301            0.0000000000
      3904      1302  TIP3      OH2            -5.4393862818      -15.8098851097       -9.9976431047  W2        1302            0.0000000000
      3905      1302  TIP3      H1             -5.1596762818      -16.7168451097       -9.8734731047  W2        1302            0.0000000000
      3906      1302  TIP3      H2             -4.6802162818      -15.3757351097      -10.3867231047  W2        1302            0.0000000000
      3907      1303  TIP3      OH2            -4.8275562818      -15.2281451097       -4.5617531047  W2        1303            0.0000000000
      3908      1303  TIP3      H1             -3.8947562818      -15.0161551097       -4.5961531047  W2        1303            0.0000000000
      3909      1303  TIP3      H2             -5.0628062818      -15.1269351097       -3.6394531047  W2        1303            0.0000000000
      3910      1304  TIP3      OH2            -4.7983662818      -14.4916151097       -1.7858131047  W2        1304            0.0000000000
      3911      1304  TIP3      H1             -5.6412362818      -14.2235751097       -1.4198331047  W2        1304            0.0000000000
      3912      1304  TIP3      H2             -4.3559362818      -13.6694251097       -1.9967031047  W2        1304            0.0000000000
      3913      1305  TIP3      OH2           -20.5171462818      -16.0437451097        1.6911068953  W2        1305            0.0000000000
      3914      1305  TIP3      H1            -19.5976562818      -16.1659151097        1.9274168953  W2        1305            0.0000000000
      3915      1305  TIP3      H2            -20.9666962818      -16.7937751097        2.0804568953  W2        1305            0.0000000000
      3916      1306  TIP3      OH2            -2.5152062818      -20.5115951097        3.5676868953  W2        1306            0.0000000000
      3917      1306  TIP3      H1             -2.1655062818      -21.1652451097        2.9621568953  W2        1306            0.0000000000
      3918      1306  TIP3      H2             -2.3682562818      -19.6741851097        3.1279468953  W2        1306            0.0000000000
      3919      1307  TIP3      OH2            -4.8259062818      -18.5469551097       -9.9494431047  W2        1307            0.0000000000
      3920      1307  TIP3      H1             -4.6434062818      -18.9958051097       -9.1239431047  W2        1307            0.0000000000
      3921      1307  TIP3      H2             -5.4256162818      -19.1315151097      -10.4129831047  W2        1307            0.0000000000
      3922      1308  TIP3      OH2           -19.2958962818      -17.7315851097       -5.4176031047  W2        1308            0.0000000000
      3923      1308  TIP3      H1            -18.8507362818      -18.5233351097       -5.1156331047  W2        1308            0.0000000000
      3924      1308  TIP3      H2            -18.8295962818      -17.0150651097       -4.9870431047  W2        1308            0.0000000000
      3925      1309  TIP3      OH2           -20.9918662818      -14.7322851097       -4.3485831047  W2        1309            0.0000000000
      3926      1309  TIP3      H1            -20.4998862818      -14.9532351097       -5.1393831047  W2        1309            0.0000000000
      3927      1309  TIP3      H2            -20.6297762818      -13.8919451097       -4.0676331047  W2        1309            0.0000000000
      3928      1310  TIP3      OH2            -2.9954862818      -18.4021351097        1.9168168953  W2        1310            0.0000000000
      3929      1310  TIP3      H1             -3.9129162818      -18.1314251097        1.8811668953  W2        1310            0.0000000000
      3930      1310  TIP3      H2             -2.8725462818      -18.9372951097        1.1327868953  W2        1310            0.0000000000
      3931      1311  TIP3      OH2            -2.9592862818      -18.4791451097      -13.4214131047  W2        1311            0.0000000000
      3932      1311  TIP3      H1             -2.5470262818      -19.2005751097      -13.8966131047  W2        1311            0.0000000000
      3933      1311  TIP3      H2             -2.2776362818      -17.8096851097      -13.3629831047  W2        1311            0.0000000000
      3934      1312  TIP3      OH2           -20.6782162818      -18.4743751097      -10.2943431047  W2        1312            0.0000000000
      3935      1312  TIP3      H1            -21.6033762818      -18.2657151097      -10.4237931047  W2        1312            0.0000000000
      3936      1312  TIP3      H2            -20.2242262818      -17.9902951097      -10.9841131047  W2        1312            0.0000000000
      3937      1313  TIP3      OH2            -5.9074962818       -3.4902051097       -8.3486031047  W2        1313            0.0000000000
      3938      1313  TIP3      H1             -5.2552062818       -3.8379951097       -8.9566931047  W2        1313            0.0000000000
      3939      1313  TIP3      H2             -5.3971162818       -3.0018851097       -7.7026331047  W2        1313            0.0000000000
      3940      1314  TIP3      OH2           -20.7146762818      -19.7364751097       -1.9500931047  W2        1314            0.0000000000
      3941      1314  TIP3      H1            -21.3796262818      -19.9824451097       -1.3070031047  W2        1314            0.0000000000
      3942      1314  TIP3      H2            -21.1575462818      -19.1144351097       -2.5272931047  W2        1314            0.0000000000
      3943      1315  TIP3      OH2           -18.5227462818       -6.5610651097        2.1944868953  W2        1315            0.0000000000
      3944      1315  TIP3      H1            -19.3434962818       -6.3864151097        1.7339568953  W2        1315            0.0000000000
      3945      1315  TIP3      H2            -18.7749662818       -6.6345951097        3.1149268953  W2        1315            0.0000000000
      3946      1316  TIP3      OH2           -15.5684562818       -5.5869451097       -1.5471131047  W2        1316            0.0000000000
      3947      1316  TIP3      H1            -15.9933462818       -4.7770951097       -1.8296531047  W2        1316            0.0000000000
      3948      1316  TIP3      H2            -14.6641762818       -5.5015351097       -1.8491331047  W2        1316            0.0000000000
      3949      1317  TIP3      OH2           -11.2573162818       -4.1879451097        1.4122568953  W2        1317            0.0000000000
      3950      1317  TIP3      H1            -11.0725662818       -4.5213351097        2.2902868953  W2        1317            0.0000000000
      3951      1317  TIP3      H2            -10.4108662818       -3.8780851097        1.0901768953  W2        1317            0.0000000000
      3952      1318  TIP3      OH2            -8.9122762818       -2.9020551097        0.6563968953  W2        1318            0.0000000000
      3953      1318  TIP3      H1             -8.2353862818       -3.5348251097        0.4163168953  W2        1318            0.0000000000
      3954      1318  TIP3      H2             -8.5903962818       -2.5010051097        1.4637268953  W2        1318            0.0000000000
      3955      1319  TIP3      OH2            -3.9948962818      -20.3125051097       -0.2641031047  W2        1319            0.0000000000
      3956      1319  TIP3      H1             -4.8075462818      -19.9874751097       -0.6516331047  W2        1319            0.0000000000
      3957      1319  TIP3      H2             -3.7620462818      -21.0726551097       -0.7971931047  W2        1319            0.0000000000
      3958      1320  TIP3      OH2           -18.1667862818       -2.3305551097       -1.4995831047  W2        1320            0.0000000000
      3959      1320  TIP3      H1            -18.8871462818       -1.8904551097       -1.9508131047  W2        1320            0.0000000000
      3960      1320  TIP3      H2            -18.5323862818       -2.5810851097       -0.6511831047  W2        1320            0.0000000000
      3961      1321  TIP3      OH2           -15.6995262818       -2.7301651097       -2.4698631047  W2        1321            0.0000000000
      3962      1321  TIP3      H1            -16.5643062818       -2.6583151097       -2.0658531047  W2        1321            0.0000000000
      3963      1321  TIP3      H2            -15.7546262818       -2.1834351097       -3.2536131047  W2        1321            0.0000000000
      3964      1322  TIP3      OH2           -10.9889662818       -2.8422751097       -3.2942631047  W2        1322            0.0000000000
      3965      1322  TIP3      H1            -11.4455662818       -2.3133051097       -3.9484231047  W2        1322            0.0000000000
      3966      1322  TIP3      H2            -10.8261662818       -2.2391351097       -2.5690331047  W2        1322            0.0000000000
      3967      1323  TIP3      OH2            -8.6613362818       -3.9643151097       -2.3492331047  W2        1323            0.0000000000
      3968      1323  TIP3      H1             -9.5659662818       -3.7992951097       -2.6150231047  W2        1323            0.0000000000
      3969      1323  TIP3      H2             -8.2324762818       -3.1110951097       -2.4148931047  W2        1323            0.0000000000
      3970      1324  TIP3      OH2            -6.0571462818       -2.3944051097       -2.0544531047  W2        1324            0.0000000000
      3971      1324  TIP3      H1             -6.2389462818       -1.4785151097       -2.2649631047  W2        1324            0.0000000000
      3972      1324  TIP3      H2             -5.8803662818       -2.8046951097       -2.9009931047  W2        1324            0.0000000000
      3973      1325  TIP3      OH2           -18.7519762818       -3.7073051097       -4.5894031047  W2        1325            0.0000000000
      3974      1325  TIP3      H1            -18.7703762818       -4.1327951097       -3.7321731047  W2        1325            0.0000000000
      3975      1325  TIP3      H2            -17.9471862818       -4.0258051097       -4.9981831047  W2        1325            0.0000000000
      3976      1326  TIP3      OH2           -16.6106662818       -4.9974351097       -5.9344131047  W2        1326            0.0000000000
      3977      1326  TIP3      H1            -16.8295962818       -5.9136951097       -5.7648131047  W2        1326            0.0000000000
      3978      1326  TIP3      H2            -15.7864462818       -4.8573951097       -5.4682731047  W2        1326            0.0000000000
      3979      1327  TIP3      OH2           -14.0734162818       -4.5275051097       -5.0856131047  W2        1327            0.0000000000
      3980      1327  TIP3      H1            -13.8608462818       -5.4156051097       -5.3725231047  W2        1327            0.0000000000
      3981      1327  TIP3      H2            -14.0089062818       -4.5617351097       -4.1312131047  W2        1327            0.0000000000
      3982      1328  TIP3      OH2           -10.5650462818      -18.8634451097       -5.9412831047  W2        1328            0.0000000000
      3983      1328  TIP3      H1            -11.2393662818      -19.4928851097       -5.6857031047  W2        1328            0.0000000000
      3984      1328  TIP3      H2            -10.0011262818      -19.3475551097       -6.5444931047  W2        1328            0.0000000000
      3985      1329  TIP3      OH2            -5.4223262818      -20.7560451097       -5.8285731047  W2        1329            0.0000000000
      3986      1329  TIP3      H1             -4.8185662818      -20.2085051097       -6.3304731047  W2        1329            0.0000000000
      3987      1329  TIP3      H2             -6.2921262818      -20.4370051097       -6.0691631047  W2        1329            0.0000000000
      3988      1330  TIP3      OH2            -3.6952862818      -19.6171751097       -7.4954831047  W2        1330            0.0000000000
      3989      1330  TIP3      H1             -3.0835362818      -20.1316051097       -8.0221231047  W2        1330            0.0000000000
      3990      1330  TIP3      H2             -3.3129462818      -18.7399651097       -7.4720431047  W2        1330            0.0000000000
      3991      1331  TIP3      OH2           -18.2382962818      -20.2294151097       -8.1192931047  W2        1331            0.0000000000
      3992      1331  TIP3      H1            -19.0153162818      -20.4639251097       -8.6267031047  W2        1331            0.0000000000
      3993      1331  TIP3      H2            -17.7079362818      -21.0262051097       -8.1104931047  W2        1331            0.0000000000
      3994      1332  TIP3      OH2           -19.4019562818      -20.4316051097      -12.3156831047  W2        1332            0.0000000000
      3995      1332  TIP3      H1            -18.9628862818      -19.8205551097      -12.9073331047  W2        1332            0.0000000000
      3996      1332  TIP3      H2            -20.0357162818      -19.8931951097      -11.8416831047  W2        1332            0.0000000000
      3997      1333  TIP3      OH2           -13.6590362818      -20.3027051097       -8.3059831047  W2        1333            0.0000000000
      3998      1333  TIP3      H1            -12.7846962818      -19.9142751097       -8.3355531047  W2        1333            0.0000000000
      3999      1333  TIP3      H2            -13.7949562818      -20.5179251097       -7.3832631047  W2        1333            0.0000000000
      4000      1334  TIP3      OH2            -8.1021962818      -20.2727251097       -6.6568131047  W2        1334            0.0000000000
      4001      1334  TIP3      H1             -8.0260362818      -20.1775651097       -7.6062131047  W2        1334            0.0000000000
      4002      1334  TIP3      H2             -8.3772762818      -21.1804351097       -6.5279031047  W2        1334            0.0000000000
      4003      1335  TIP3      OH2            -6.7489362818      -20.2469451097      -10.9643131047  W2        1335            0.0000000000
      4004      1335  TIP3      H1             -7.4518262818      -19.6320251097      -11.1741731047  W2        1335            0.0000000000
      4005      1335  TIP3      H2             -7.1937962818      -21.0842751097      -10.8332231047  W2        1335            0.0000000000
      4006      1336  TIP3      OH2           -19.5010062818       -4.4833851097      -11.4181731047  W2        1336            0.0000000000
      4007      1336  TIP3      H1            -20.1860162818       -4.5214951097      -12.0856631047  W2        1336            0.0000000000
      4008      1336  TIP3      H2            -19.4972862818       -3.5706251097      -11.1299631047  W2        1336            0.0000000000
      4009      1337  TIP3      OH2           -17.5410462818      -18.5154551097      -13.8732731047  W2        1337            0.0000000000
      4010      1337  TIP3      H1            -17.0497062818      -19.1452151097      -14.4007231047  W2        1337            0.0000000000
      4011      1337  TIP3      H2            -16.9174162818      -18.2195151097      -13.2101531047  W2        1337            0.0000000000
      4012      1338  TIP3      OH2           -12.5150362818      -18.2223051097      -11.4162231047  W2        1338            0.0000000000
      4013      1338  TIP3      H1            -12.3369062818      -18.8689851097      -10.7333631047  W2        1338            0.0000000000
      4014      1338  TIP3      H2            -12.5684162818      -17.3885351097      -10.9491131047  W2        1338            0.0000000000
      4015      1339  TIP3      OH2           -10.6366562818       -3.2738951097      -13.0205531047  W2        1339            0.0000000000
      4016      1339  TIP3      H1             -9.7706362818       -2.9071551097      -13.1987331047  W2        1339            0.0000000000
      4017      1339  TIP3      H2            -10.8833762818       -3.7130951097      -13.8344731047  W2        1339            0.0000000000
      4018      1340  TIP3      OH2            -3.9276962818       -3.7108651097      -10.3414431047  W2        1340            0.0000000000
      4019      1340  TIP3      H1             -4.1219862818       -4.4586551097      -10.9064831047  W2        1340            0.0000000000
      4020      1340  TIP3      H2             -3.9666862818       -2.9528551097      -10.9246531047  W2        1340            0.0000000000
      4021      1341  TIP3      OH2           -18.2804962818      -19.7152251097        1.3983268953  W2        1341            0.0000000000
      4022      1341  TIP3      H1            -18.6466762818      -20.4809651097        1.8407968953  W2        1341            0.0000000000
      4023      1341  TIP3      H2            -17.3676462818      -19.6862051097        1.6848368953  W2        1341            0.0000000000
      4024      1342  TIP3      OH2           -16.3074162818      -20.3647851097        2.9340368953  W2        1342            0.0000000000
      4025      1342  TIP3      H1            -15.4090562818      -20.6387651097        2.7493768953  W2        1342            0.0000000000
      4026      1342  TIP3      H2            -16.6941062818      -21.1071851097        3.3982968953  W2        1342            0.0000000000
      4027      1343  TIP3      OH2           -17.6828862818       -3.5633051097      -14.3929631047  W2        1343            0.0000000000
      4028      1343  TIP3      H1            -17.9504262818       -3.2770151097      -13.5196531047  W2        1343            0.0000000000
      4029      1343  TIP3      H2            -16.9116262818       -4.1093851097      -14.2407131047  W2        1343            0.0000000000
      4030      1344  TIP3      OH2            -7.8861862818      -21.0322551097        3.1163168953  W2        1344            0.0000000000
      4031      1344  TIP3      H1             -7.8094662818      -21.4581851097        3.9700868953  W2        1344            0.0000000000
      4032      1344  TIP3      H2             -6.9925262818      -21.0187851097        2.7736668953  W2        1344            0.0000000000
      4033      1345  TIP3      OH2            -4.7100762818       -4.9596251097        1.8087368953  W2        1345            0.0000000000
      4034      1345  TIP3      H1             -5.4918862818       -5.1458251097        1.2887968953  W2        1345            0.0000000000
      4035      1345  TIP3      H2             -4.7820862818       -4.0301951097        2.0259868953  W2        1345            0.0000000000
      4036      1346  TIP3      OH2             9.6959637182      -11.0731851097       -8.1605431047  W2        1346            0.0000000000
      4037      1346  TIP3      H1              9.7850737182      -10.1293651097       -8.2928331047  W2        1346            0.0000000000
      4038      1346  TIP3      H2              9.0577237182      -11.3485451097       -8.8186031047  W2        1346            0.0000000000
      4039      1347  TIP3      OH2             8.6290937182      -11.8181151097       -4.7417231047  W2        1347            0.0000000000
      4040      1347  TIP3      H1              8.5908437182      -12.4644851097       -4.0367631047  W2        1347            0.0000000000
      4041      1347  TIP3      H2              8.3067437182      -12.2846751097       -5.5128531047  W2        1347            0.0000000000
      4042      1348  TIP3      OH2             0.9975937182      -12.2039051097       -3.1487331047  W2        1348            0.0000000000
      4043      1348  TIP3      H1              1.0388037182      -12.8295751097       -2.4254931047  W2        1348            0.0000000000
      4044      1348  TIP3      H2              1.7003637182      -11.5800451097       -2.9666931047  W2        1348            0.0000000000
      4045      1349  TIP3      OH2            12.3351137182       -8.8790751097       -6.4402131047  W2        1349            0.0000000000
      4046      1349  TIP3      H1             11.8943837182       -9.5994751097       -5.9896531047  W2        1349            0.0000000000
      4047      1349  TIP3      H2             12.3220837182       -8.1583551097       -5.8104431047  W2        1349            0.0000000000
      4048      1350  TIP3      OH2             1.9209037182       -7.7540151097       -4.6138231047  W2        1350            0.0000000000
      4049      1350  TIP3      H1              1.5514237182       -8.5559651097       -4.9833931047  W2        1350            0.0000000000
      4050      1350  TIP3      H2              2.8620137182       -7.9225251097       -4.5674831047  W2        1350            0.0000000000
      4051      1351  TIP3      OH2            -1.4690462818      -14.0937551097       -9.2209431047  W2        1351            0.0000000000
      4052      1351  TIP3      H1             -1.9167062818      -13.2478851097       -9.2392931047  W2        1351            0.0000000000
      4053      1351  TIP3      H2             -2.0299262818      -14.6733351097       -9.7364331047  W2        1351            0.0000000000
      4054      1352  TIP3      OH2            -0.7584362818      -11.9317951097       -7.0951431047  W2        1352            0.0000000000
      4055      1352  TIP3      H1             -0.5450862818      -12.7016351097       -6.5678431047  W2        1352            0.0000000000
      4056      1352  TIP3      H2             -0.0206762818      -11.8421251097       -7.6983831047  W2        1352            0.0000000000
      4057      1353  TIP3      OH2             9.4466637182       -3.7749051097       -6.2281731047  W2        1353            0.0000000000
      4058      1353  TIP3      H1             10.0663037182       -4.4514351097       -6.5012531047  W2        1353            0.0000000000
      4059      1353  TIP3      H2              9.2384037182       -3.9928251097       -5.3196831047  W2        1353            0.0000000000
      4060      1354  TIP3      OH2             7.0185337182       -9.3859751097       -4.3356231047  W2        1354            0.0000000000
      4061      1354  TIP3      H1              7.3223237182      -10.0718351097       -4.9302131047  W2        1354            0.0000000000
      4062      1354  TIP3      H2              7.7399337182       -9.2671051097       -3.7178231047  W2        1354            0.0000000000
      4063      1355  TIP3      OH2            15.6815137182      -17.7844451097       -3.4750031047  W2        1355            0.0000000000
      4064      1355  TIP3      H1             15.7307337182      -17.1743251097       -2.7390931047  W2        1355            0.0000000000
      4065      1355  TIP3      H2             16.1070237182      -17.3233551097       -4.1978931047  W2        1355            0.0000000000
      4066      1356  TIP3      OH2            10.1592337182      -14.9917351097       -4.0081431047  W2        1356            0.0000000000
      4067      1356  TIP3      H1             10.3018237182      -15.9380351097       -3.9879831047  W2        1356            0.0000000000
      4068      1356  TIP3      H2             10.0531337182      -14.7847551097       -4.9366531047  W2        1356            0.0000000000
      4069      1357  TIP3      OH2             3.3140637182      -16.8900951097       -6.7356631047  W2        1357            0.0000000000
      4070      1357  TIP3      H1              3.3571737182      -16.0302451097       -7.1540331047  W2        1357            0.0000000000
      4071      1357  TIP3      H2              2.8564737182      -17.4426251097       -7.3693431047  W2        1357            0.0000000000
      4072      1358  TIP3      OH2            11.0363337182      -16.7595351097       -8.3348331047  W2        1358            0.0000000000
      4073      1358  TIP3      H1             11.6827637182      -17.0882151097       -7.7100731047  W2        1358            0.0000000000
      4074      1358  TIP3      H2             11.5462737182      -16.2416351097       -8.9576931047  W2        1358            0.0000000000
      4075      1359  TIP3      OH2            -0.0657862818      -14.4935151097       -5.9735231047  W2        1359            0.0000000000
      4076      1359  TIP3      H1              0.5878737182      -15.0433451097       -5.5415131047  W2        1359            0.0000000000
      4077      1359  TIP3      H2             -0.0418562818      -14.7676151097       -6.8903231047  W2        1359            0.0000000000
      4078      1360  TIP3      OH2             5.0906637182      -12.9433851097       -6.7583731047  W2        1360            0.0000000000
      4079      1360  TIP3      H1              5.7067637182      -13.4698451097       -6.2489731047  W2        1360            0.0000000000
      4080      1360  TIP3      H2              4.5045437182      -13.5835151097       -7.1620131047  W2        1360            0.0000000000
      4081      1361  TIP3      OH2            16.0729737182      -16.3065251097       -1.2390231047  W2        1361            0.0000000000
      4082      1361  TIP3      H1             15.3844337182      -15.6484551097       -1.3343631047  W2        1361            0.0000000000
      4083      1361  TIP3      H2             16.0884337182      -16.5037351097       -0.3024831047  W2        1361            0.0000000000
      4084      1362  TIP3      OH2             2.1242537182      -17.9722551097       -2.6615831047  W2        1362            0.0000000000
      4085      1362  TIP3      H1              1.9054237182      -17.4421951097       -3.4279831047  W2        1362            0.0000000000
      4086      1362  TIP3      H2              1.4563437182      -17.7457051097       -2.0144431047  W2        1362            0.0000000000
      4087      1363  TIP3      OH2             9.4932337182       -8.4721451097       -9.1176731047  W2        1363            0.0000000000
      4088      1363  TIP3      H1              9.1977437182       -8.7949151097       -9.9689831047  W2        1363            0.0000000000
      4089      1363  TIP3      H2              9.1690137182       -7.5724751097       -9.0764131047  W2        1363            0.0000000000
      4090      1364  TIP3      OH2             4.6933937182      -10.2966851097       -2.3742131047  W2        1364            0.0000000000
      4091      1364  TIP3      H1              3.9533037182       -9.6985351097       -2.2706931047  W2        1364            0.0000000000
      4092      1364  TIP3      H2              5.4073437182       -9.7427251097       -2.6898531047  W2        1364            0.0000000000
      4093      1365  TIP3      OH2            12.8001737182      -17.4686051097       -6.3542431047  W2        1365            0.0000000000
      4094      1365  TIP3      H1             12.5849737182      -18.2342651097       -5.8216431047  W2        1365            0.0000000000
      4095      1365  TIP3      H2             13.4559137182      -16.9961451097       -5.8413931047  W2        1365            0.0000000000
      4096      1366  TIP3      OH2             1.7179837182      -16.0800751097       -4.7093631047  W2        1366            0.0000000000
      4097      1366  TIP3      H1              2.3316137182      -15.4473151097       -4.3361231047  W2        1366            0.0000000000
      4098      1366  TIP3      H2              2.2300537182      -16.5525751097       -5.3656731047  W2        1366            0.0000000000
      4099      1367  TIP3      OH2             3.1008237182       -8.3323851097       -1.5870631047  W2        1367            0.0000000000
      4100      1367  TIP3      H1              3.0955837182       -7.4530351097       -1.9651331047  W2        1367            0.0000000000
      4101      1367  TIP3      H2              2.2472337182       -8.4159751097       -1.1620731047  W2        1367            0.0000000000
      4102      1368  TIP3      OH2            -0.7780862818       -8.6615951097      -10.8051331047  W2        1368            0.0000000000
      4103      1368  TIP3      H1             -1.0499962818       -8.4324951097      -11.6938431047  W2        1368            0.0000000000
      4104      1368  TIP3      H2             -0.7325162818       -7.8237151097      -10.3446031047  W2        1368            0.0000000000
      4105      1369  TIP3      OH2            12.8468837182       -7.0400051097       -4.0922831047  W2        1369            0.0000000000
      4106      1369  TIP3      H1             11.9052537182       -6.9816151097       -3.9305931047  W2        1369            0.0000000000
      4107      1369  TIP3      H2             13.1234937182       -6.1339551097       -4.2293131047  W2        1369            0.0000000000
      4108      1370  TIP3      OH2            13.1475837182      -18.7534751097       -2.6748931047  W2        1370            0.0000000000
      4109      1370  TIP3      H1             12.4115037182      -18.1427651097       -2.7127631047  W2        1370            0.0000000000
      4110      1370  TIP3      H2             13.8309837182      -18.3385751097       -3.2012531047  W2        1370            0.0000000000
      4111      1371  TIP3      OH2             6.1507237182      -20.6667451097       -5.2090931047  W2        1371            0.0000000000
      4112      1371  TIP3      H1              6.0331437182      -21.6151451097       -5.2632631047  W2        1371            0.0000000000
      4113      1371  TIP3      H2              5.2957337182      -20.3341351097       -4.9359831047  W2        1371            0.0000000000
      4114      1372  TIP3      OH2            11.0990037182       -5.2586551097       -7.4671231047  W2        1372            0.0000000000
      4115      1372  TIP3      H1             11.5242337182       -5.9658651097       -7.9521631047  W2        1372            0.0000000000
      4116      1372  TIP3      H2             11.4160037182       -4.4573851097       -7.8839031047  W2        1372            0.0000000000
      4117      1373  TIP3      OH2            12.2586537182       -7.3578051097       -8.9584631047  W2        1373            0.0000000000
      4118      1373  TIP3      H1             12.0011337182       -8.0477951097       -9.5698731047  W2        1373            0.0000000000
      4119      1373  TIP3      H2             12.3297337182       -7.8006851097       -8.1128731047  W2        1373            0.0000000000
      4120      1374  TIP3      OH2            13.9446737182       -8.7911351097       -0.4811131047  W2        1374            0.0000000000
      4121      1374  TIP3      H1             14.0843037182       -9.3828851097       -1.2204131047  W2        1374            0.0000000000
      4122      1374  TIP3      H2             14.1119537182       -7.9185451097       -0.8372331047  W2        1374            0.0000000000
      4123      1375  TIP3      OH2             8.4172137182      -11.8291851097      -10.7085131047  W2        1375            0.0000000000
      4124      1375  TIP3      H1              7.7057637182      -11.2942151097      -11.0604631047  W2        1375            0.0000000000
      4125      1375  TIP3      H2              9.1081737182      -11.7739751097      -11.3686231047  W2        1375            0.0000000000
      4126      1376  TIP3      OH2             8.4711337182      -13.3717551097      -13.6700131047  W2        1376            0.0000000000
      4127      1376  TIP3      H1              9.1721237182      -13.3490651097      -13.0186131047  W2        1376            0.0000000000
      4128      1376  TIP3      H2              8.7734237182      -13.9997851097      -14.3260831047  W2        1376            0.0000000000
      4129      1377  TIP3      OH2            15.7866037182      -12.4513351097       -2.4150731047  W2        1377            0.0000000000
      4130      1377  TIP3      H1             15.1340137182      -11.7567751097       -2.3259831047  W2        1377            0.0000000000
      4131      1377  TIP3      H2             16.2516337182      -12.2412451097       -3.2249131047  W2        1377            0.0000000000
      4132      1378  TIP3      OH2            11.8229837182      -11.6198551097       -9.7569231047  W2        1378            0.0000000000
      4133      1378  TIP3      H1             11.0910837182      -11.3914851097       -9.1838631047  W2        1378            0.0000000000
      4134      1378  TIP3      H2             12.2702037182      -12.3335851097       -9.3021731047  W2        1378            0.0000000000
      4135      1379  TIP3      OH2            11.7203337182      -13.4455951097       -0.6892231047  W2        1379            0.0000000000
      4136      1379  TIP3      H1             11.8002437182      -12.6821551097       -0.1173731047  W2        1379            0.0000000000
      4137      1379  TIP3      H2             11.1191037182      -13.1663551097       -1.3797131047  W2        1379            0.0000000000
      4138      1380  TIP3      OH2             3.4683537182      -10.9892351097       -7.8744231047  W2        1380            0.0000000000
      4139      1380  TIP3      H1              3.1378737182      -11.3598951097       -8.6927231047  W2        1380            0.0000000000
      4140      1380  TIP3      H2              4.0567637182      -11.6598351097       -7.5275931047  W2        1380            0.0000000000
      4141      1381  TIP3      OH2             4.8351037182       -7.5611751097       -5.1932031047  W2        1381            0.0000000000
      4142      1381  TIP3      H1              4.7402337182       -8.1398651097       -5.9497431047  W2        1381            0.0000000000
      4143      1381  TIP3      H2              5.5644637182       -7.9326051097       -4.6969231047  W2        1381            0.0000000000
      4144      1382  TIP3      OH2             3.8349037182      -12.2206751097       -4.2409231047  W2        1382            0.0000000000
      4145      1382  TIP3      H1              4.4001537182      -12.0992551097       -5.0038031047  W2        1382            0.0000000000
      4146      1382  TIP3      H2              4.1537937182      -11.5831751097       -3.6020731047  W2        1382            0.0000000000
      4147      1383  TIP3      OH2            10.1441237182       -6.7174851097       -3.5068731047  W2        1383            0.0000000000
      4148      1383  TIP3      H1              9.9037837182       -6.0551751097       -2.8589531047  W2        1383            0.0000000000
      4149      1383  TIP3      H2              9.9459437182       -7.5519651097       -3.0819131047  W2        1383            0.0000000000
      4150      1384  TIP3      OH2             4.7149737182       -7.8214051097        0.4762668953  W2        1384            0.0000000000
      4151      1384  TIP3      H1              4.4037237182       -7.0390851097        0.9315868953  W2        1384            0.0000000000
      4152      1384  TIP3      H2              4.0649937182       -7.9744951097       -0.2095331047  W2        1384            0.0000000000
      4153      1385  TIP3      OH2            10.6939337182      -12.4575651097      -12.0718031047  W2        1385            0.0000000000
      4154      1385  TIP3      H1             11.2734837182      -12.3075351097      -11.3249131047  W2        1385            0.0000000000
      4155      1385  TIP3      H2             11.1079337182      -11.9868251097      -12.7951631047  W2        1385            0.0000000000
      4156      1386  TIP3      OH2             1.6349637182      -11.6232951097       -0.2951631047  W2        1386            0.0000000000
      4157      1386  TIP3      H1              1.7052837182      -10.9726151097        0.4033368953  W2        1386            0.0000000000
      4158      1386  TIP3      H2              0.7441837182      -11.5205451097       -0.6300731047  W2        1386            0.0000000000
      4159      1387  TIP3      OH2             8.4204237182       -5.7207151097       -8.6364931047  W2        1387            0.0000000000
      4160      1387  TIP3      H1              8.8941837182       -5.4250851097       -7.8590731047  W2        1387            0.0000000000
      4161      1387  TIP3      H2              7.8573537182       -4.9825551097       -8.8695331047  W2        1387            0.0000000000
      4162      1388  TIP3      OH2             2.9545637182       -5.7499051097        1.2396468953  W2        1388            0.0000000000
      4163      1388  TIP3      H1              2.9620937182       -5.8859351097        0.2921968953  W2        1388            0.0000000000
      4164      1388  TIP3      H2              2.0386037182       -5.8670951097        1.4916468953  W2        1388            0.0000000000
      4165      1389  TIP3      OH2            14.3927737182      -20.7075251097      -12.2588331047  W2        1389            0.0000000000
      4166      1389  TIP3      H1             13.4928437182      -20.5686251097      -11.9637731047  W2        1389            0.0000000000
      4167      1389  TIP3      H2             14.6446137182      -19.8760651097      -12.6606631047  W2        1389            0.0000000000
      4168      1390  TIP3      OH2             2.4586237182      -11.9198051097      -10.2851431047  W2        1390            0.0000000000
      4169      1390  TIP3      H1              2.1667537182      -11.1516351097      -10.7760131047  W2        1390            0.0000000000
      4170      1390  TIP3      H2              1.7841437182      -12.5791851097      -10.4480031047  W2        1390            0.0000000000
      4171      1391  TIP3      OH2            15.5819137182       -6.3412851097      -13.8824431047  W2        1391            0.0000000000
      4172      1391  TIP3      H1             15.6552637182       -5.4022651097      -13.7119131047  W2        1391            0.0000000000
      4173      1391  TIP3      H2             16.4874237182       -6.6464251097      -13.9387131047  W2        1391            0.0000000000
      4174      1392  TIP3      OH2            -1.4483662818       -9.5568851097       -1.4701631047  W2        1392            0.0000000000
      4175      1392  TIP3      H1             -1.9495262818       -9.5849451097       -2.2851931047  W2        1392            0.0000000000
      4176      1392  TIP3      H2             -1.4429962818      -10.4625651097       -1.1604331047  W2        1392            0.0000000000
      4177      1393  TIP3      OH2            -1.6980962818       -6.7765051097       -4.5861431047  W2        1393            0.0000000000
      4178      1393  TIP3      H1             -0.7520362818       -6.9208051097       -4.6051931047  W2        1393            0.0000000000
      4179      1393  TIP3      H2             -1.8104662818       -5.9922251097       -4.0490231047  W2        1393            0.0000000000
      4180      1394  TIP3      OH2            16.4997537182       -6.1105351097        1.0962268953  W2        1394            0.0000000000
      4181      1394  TIP3      H1             16.4504337182       -7.0657251097        1.0589868953  W2        1394            0.0000000000
      4182      1394  TIP3      H2             15.6729837182       -5.8430051097        1.4976068953  W2        1394            0.0000000000
      4183      1395  TIP3      OH2             7.4781537182       -6.5366151097       -0.0276331047  W2        1395            0.0000000000
      4184      1395  TIP3      H1              7.5656137182       -5.7101551097        0.4472768953  W2        1395            0.0000000000
      4185      1395  TIP3      H2              6.6146637182       -6.8662351097        0.2212968953  W2        1395            0.0000000000
      4186      1396  TIP3      OH2             7.8927337182       -2.7642451097      -10.2215731047  W2        1396            0.0000000000
      4187      1396  TIP3      H1              7.8173337182       -2.8855251097      -11.1680531047  W2        1396            0.0000000000
      4188      1396  TIP3      H2              7.9256037182       -1.8149751097      -10.1031131047  W2        1396            0.0000000000
      4189      1397  TIP3      OH2             1.5461137182       -3.9755451097       -8.4406731047  W2        1397            0.0000000000
      4190      1397  TIP3      H1              1.6981537182       -4.3235051097       -7.5620231047  W2        1397            0.0000000000
      4191      1397  TIP3      H2              0.6951537182       -4.3318151097       -8.6959531047  W2        1397            0.0000000000
      4192      1398  TIP3      OH2            10.9943337182       -3.6102251097      -13.2193331047  W2        1398            0.0000000000
      4193      1398  TIP3      H1             11.3691737182       -4.3546151097      -13.6900731047  W2        1398            0.0000000000
      4194      1398  TIP3      H2             10.9987037182       -3.8801651097      -12.3010031047  W2        1398            0.0000000000
      4195      1399  TIP3      OH2            10.6631437182       -3.6845151097      -10.4701131047  W2        1399            0.0000000000
      4196      1399  TIP3      H1              9.7281237182       -3.5843251097      -10.2914131047  W2        1399            0.0000000000
      4197      1399  TIP3      H2             10.9433337182       -4.3939151097       -9.8917931047  W2        1399            0.0000000000
      4198      1400  TIP3      OH2            13.6517337182      -14.6172851097        1.5764468953  W2        1400            0.0000000000
      4199      1400  TIP3      H1             13.2444137182      -14.1367251097        0.8557768953  W2        1400            0.0000000000
      4200      1400  TIP3      H2             13.6923037182      -15.5226851097        1.2685268953  W2        1400            0.0000000000
      4201      1401  TIP3      OH2             0.8006837182       -8.2333451097       -0.4268831047  W2        1401            0.0000000000
      4202      1401  TIP3      H1              1.0168137182       -8.5947851097        0.4326968953  W2        1401            0.0000000000
      4203      1401  TIP3      H2             -0.0548462818       -8.6079651097       -0.6365331047  W2        1401            0.0000000000
      4204      1402  TIP3      OH2             3.4194837182      -19.7632951097       -4.4314631047  W2        1402            0.0000000000
      4205      1402  TIP3      H1              2.5578537182      -19.8504751097       -4.8391731047  W2        1402            0.0000000000
      4206      1402  TIP3      H2              3.3970537182      -18.9072851097       -4.0037031047  W2        1402            0.0000000000
      4207      1403  TIP3      OH2             8.0822637182      -20.0412551097       -1.0567631047  W2        1403            0.0000000000
      4208      1403  TIP3      H1              8.5025737182      -20.4565451097       -0.3037031047  W2        1403            0.0000000000
      4209      1403  TIP3      H2              7.1492237182      -20.2199251097       -0.9395631047  W2        1403            0.0000000000
      4210      1404  TIP3      OH2            11.4087537182      -16.2857351097       -0.2033131047  W2        1404            0.0000000000
      4211      1404  TIP3      H1             10.8947037182      -16.4115151097        0.5942868953  W2        1404            0.0000000000
      4212      1404  TIP3      H2             11.2532237182      -15.3734251097       -0.4476931047  W2        1404            0.0000000000
      4213      1405  TIP3      OH2            12.1712437182      -11.4247351097      -14.4420131047  W2        1405            0.0000000000
      4214      1405  TIP3      H1             12.2133237182      -11.6473451097      -15.3720131047  W2        1405            0.0000000000
      4215      1405  TIP3      H2             13.0204537182      -11.0260251097      -14.2520231047  W2        1405            0.0000000000
      4216      1406  TIP3      OH2             7.7439937182      -17.5489151097      -13.7716831047  W2        1406            0.0000000000
      4217      1406  TIP3      H1              7.4904737182      -17.5297551097      -12.8488731047  W2        1406            0.0000000000
      4218      1406  TIP3      H2              7.4872037182      -18.4203751097      -14.0730631047  W2        1406            0.0000000000
      4219      1407  TIP3      OH2             3.5104937182      -14.7978451097       -3.3364431047  W2        1407            0.0000000000
      4220      1407  TIP3      H1              2.8687037182      -14.8381151097       -2.6274331047  W2        1407            0.0000000000
      4221      1407  TIP3      H2              3.5476937182      -13.8713751097       -3.5741431047  W2        1407            0.0000000000
      4222      1408  TIP3      OH2             3.5074037182      -14.5768351097       -8.4244431047  W2        1408            0.0000000000
      4223      1408  TIP3      H1              2.6146937182      -14.9172251097       -8.4830631047  W2        1408            0.0000000000
      4224      1408  TIP3      H2              3.9580637182      -14.9537451097       -9.1801231047  W2        1408            0.0000000000
      4225      1409  TIP3      OH2             9.0429537182      -14.1608051097       -9.6073631047  W2        1409            0.0000000000
      4226      1409  TIP3      H1              8.6339837182      -13.3459451097       -9.8988831047  W2        1409            0.0000000000
      4227      1409  TIP3      H2              9.7635737182      -14.3007951097      -10.2216531047  W2        1409            0.0000000000
      4228      1410  TIP3      OH2             8.1451137182      -13.9851651097        1.8807068953  W2        1410            0.0000000000
      4229      1410  TIP3      H1              7.5824937182      -14.6900051097        2.2014868953  W2        1410            0.0000000000
      4230      1410  TIP3      H2              8.9714537182      -14.1059751097        2.3484668953  W2        1410            0.0000000000
      4231      1411  TIP3      OH2            10.0477237182      -14.7147651097       -6.7933931047  W2        1411            0.0000000000
      4232      1411  TIP3      H1              9.8521737182      -14.1090851097       -7.5083331047  W2        1411            0.0000000000
      4233      1411  TIP3      H2             10.2289837182      -15.5482451097       -7.2277631047  W2        1411            0.0000000000
      4234      1412  TIP3      OH2             1.2605437182      -14.4774951097       -1.4692431047  W2        1412            0.0000000000
      4235      1412  TIP3      H1              1.2224837182      -14.0773351097       -0.6005331047  W2        1412            0.0000000000
      4236      1412  TIP3      H2              0.7696537182      -15.2942551097       -1.3789531047  W2        1412            0.0000000000
      4237      1413  TIP3      OH2             4.6262837182      -17.1032651097      -14.6706431047  W2        1413            0.0000000000
      4238      1413  TIP3      H1              4.1953537182      -17.5482551097      -13.9409031047  W2        1413            0.0000000000
      4239      1413  TIP3      H2              3.9081537182      -16.7316351097      -15.1828931047  W2        1413            0.0000000000
      4240      1414  TIP3      OH2            -2.1313762818      -17.3613151097       -7.6187731047  W2        1414            0.0000000000
      4241      1414  TIP3      H1             -1.5006062818      -17.3901051097       -6.8993831047  W2        1414            0.0000000000
      4242      1414  TIP3      H2             -1.6819462818      -17.7864451097       -8.3491831047  W2        1414            0.0000000000
      4243      1415  TIP3      OH2            -0.8571662818      -16.6151151097      -12.1947331047  W2        1415            0.0000000000
      4244      1415  TIP3      H1             -0.3829962818      -16.0241251097      -12.7796431047  W2        1415            0.0000000000
      4245      1415  TIP3      H2             -1.5745262818      -16.0848251097      -11.8477231047  W2        1415            0.0000000000
      4246      1416  TIP3      OH2             9.3116437182      -13.0766351097       -2.1221531047  W2        1416            0.0000000000
      4247      1416  TIP3      H1              9.6351237182      -13.7076651097       -2.7651031047  W2        1416            0.0000000000
      4248      1416  TIP3      H2              8.8715737182      -13.6114151097       -1.4614131047  W2        1416            0.0000000000
      4249      1417  TIP3      OH2             6.0889337182      -17.1490851097       -7.3380331047  W2        1417            0.0000000000
      4250      1417  TIP3      H1              5.1780437182      -17.0924051097       -7.0494331047  W2        1417            0.0000000000
      4251      1417  TIP3      H2              6.5942237182      -17.2095351097       -6.5273131047  W2        1417            0.0000000000
      4252      1418  TIP3      OH2             0.9172737182      -15.5204551097       -8.5112731047  W2        1418            0.0000000000
      4253      1418  TIP3      H1              0.0280737182      -15.4209051097       -8.8513131047  W2        1418            0.0000000000
      4254      1418  TIP3      H2              1.2137637182      -16.3621551097       -8.8574831047  W2        1418            0.0000000000
      4255      1419  TIP3      OH2             4.5704537182      -15.5201951097      -10.8548131047  W2        1419            0.0000000000
      4256      1419  TIP3      H1              5.5020037182      -15.3911951097      -10.6765031047  W2        1419            0.0000000000
      4257      1419  TIP3      H2              4.3554837182      -14.8507651097      -11.5043431047  W2        1419            0.0000000000
      4258      1420  TIP3      OH2            10.4941237182      -17.9144551097       -4.0738531047  W2        1420            0.0000000000
      4259      1420  TIP3      H1              9.8172837182      -17.7831451097       -3.4098831047  W2        1420            0.0000000000
      4260      1420  TIP3      H2             10.0086137182      -18.0695051097       -4.8840831047  W2        1420            0.0000000000
      4261      1421  TIP3      OH2             3.2444737182      -14.3259751097      -13.2882031047  W2        1421            0.0000000000
      4262      1421  TIP3      H1              2.7019837182      -14.7055951097      -13.9794431047  W2        1421            0.0000000000
      4263      1421  TIP3      H2              4.0779637182      -14.1315051097      -13.7167931047  W2        1421            0.0000000000
      4264      1422  TIP3      OH2            13.7816337182       -2.2429151097        2.2029068953  W2        1422            0.0000000000
      4265      1422  TIP3      H1             13.9815037182       -1.8187251097        1.3684368953  W2        1422            0.0000000000
      4266      1422  TIP3      H2             14.4370037182       -1.8990951097        2.8099468953  W2        1422            0.0000000000
      4267      1423  TIP3      OH2             1.3796137182       -9.7687851097        1.8109568953  W2        1423            0.0000000000
      4268      1423  TIP3      H1              2.1118537182       -9.5141951097        2.3724068953  W2        1423            0.0000000000
      4269      1423  TIP3      H2              0.5994837182       -9.5642451097        2.3264968953  W2        1423            0.0000000000
      4270      1424  TIP3      OH2             7.4089037182      -14.3617851097       -5.4510731047  W2        1424            0.0000000000
      4271      1424  TIP3      H1              7.9732437182      -14.9081251097       -5.9981131047  W2        1424            0.0000000000
      4272      1424  TIP3      H2              7.2612437182      -14.8835951097       -4.6623131047  W2        1424            0.0000000000
      4273      1425  TIP3      OH2             2.4108737182      -18.2251751097       -9.0325931047  W2        1425            0.0000000000
      4274      1425  TIP3      H1              2.0938237182      -19.1276451097       -9.0680531047  W2        1425            0.0000000000
      4275      1425  TIP3      H2              3.1922837182      -18.2234351097       -9.5854331047  W2        1425            0.0000000000
      4276      1426  TIP3      OH2             6.0354937182      -15.9731751097       -3.0370331047  W2        1426            0.0000000000
      4277      1426  TIP3      H1              5.2000237182      -15.5192251097       -2.9267931047  W2        1426            0.0000000000
      4278      1426  TIP3      H2              6.5595537182      -15.6973251097       -2.2850431047  W2        1426            0.0000000000
      4279      1427  TIP3      OH2             6.5797537182       -9.7604051097      -11.3523931047  W2        1427            0.0000000000
      4280      1427  TIP3      H1              5.8348537182      -10.2678751097      -11.6746031047  W2        1427            0.0000000000
      4281      1427  TIP3      H2              6.4454737182       -9.7116051097      -10.4059131047  W2        1427            0.0000000000
      4282      1428  TIP3      OH2            13.7296437182      -10.6275851097       -2.5656331047  W2        1428            0.0000000000
      4283      1428  TIP3      H1             14.3715237182      -10.1709551097       -3.1094131047  W2        1428            0.0000000000
      4284      1428  TIP3      H2             12.8993337182      -10.5143451097       -3.0282231047  W2        1428            0.0000000000
      4285      1429  TIP3      OH2            10.4774337182      -16.9464151097      -13.1531331047  W2        1429            0.0000000000
      4286      1429  TIP3      H1              9.5388537182      -16.8348551097      -13.3042531047  W2        1429            0.0000000000
      4287      1429  TIP3      H2             10.7746437182      -16.0897251097      -12.8465631047  W2        1429            0.0000000000
      4288      1430  TIP3      OH2             8.0989637182       -9.5760751097       -0.1154831047  W2        1430            0.0000000000
      4289      1430  TIP3      H1              7.7535737182       -9.9578351097        0.6914768953  W2        1430            0.0000000000
      4290      1430  TIP3      H2              7.8989737182       -8.6427151097       -0.0441931047  W2        1430            0.0000000000
      4291      1431  TIP3      OH2            11.1957837182      -15.0791451097      -11.4923931047  W2        1431            0.0000000000
      4292      1431  TIP3      H1             12.0876837182      -15.2166451097      -11.1732731047  W2        1431            0.0000000000
      4293      1431  TIP3      H2             11.2521437182      -14.2885351097      -12.0290431047  W2        1431            0.0000000000
      4294      1432  TIP3      OH2             1.7045837182      -10.4654051097       -5.5826031047  W2        1432            0.0000000000
      4295      1432  TIP3      H1              2.4493037182      -10.4678351097       -6.1839531047  W2        1432            0.0000000000
      4296      1432  TIP3      H2              1.7822437182      -11.2890251097       -5.1010931047  W2        1432            0.0000000000
      4297      1433  TIP3      OH2             8.7051637182       -8.3019751097      -12.3269331047  W2        1433            0.0000000000
      4298      1433  TIP3      H1              8.4100037182       -7.4751851097      -11.9454531047  W2        1433            0.0000000000
      4299      1433  TIP3      H2              8.0021637182       -8.9212851097      -12.1307931047  W2        1433            0.0000000000
      4300      1434  TIP3      OH2            -1.2874462818      -12.0047151097       -0.2677531047  W2        1434            0.0000000000
      4301      1434  TIP3      H1             -1.0645862818      -12.4227551097        0.5639968953  W2        1434            0.0000000000
      4302      1434  TIP3      H2             -1.8894362818      -12.6172151097       -0.6904731047  W2        1434            0.0000000000
      4303      1435  TIP3      OH2             5.7290437182      -12.4877251097        1.9452168953  W2        1435            0.0000000000
      4304      1435  TIP3      H1              5.4331237182      -12.6534251097        1.0501268953  W2        1435            0.0000000000
      4305      1435  TIP3      H2              6.6605637182      -12.7076951097        1.9346068953  W2        1435            0.0000000000
      4306      1436  TIP3      OH2            10.3493237182       -7.1145251097       -0.1649831047  W2        1436            0.0000000000
      4307      1436  TIP3      H1              9.4487537182       -6.9312651097       -0.4325931047  W2        1436            0.0000000000
      4308      1436  TIP3      H2             10.3834337182       -6.8555951097        0.7558968953  W2        1436            0.0000000000
      4309      1437  TIP3      OH2            16.0806537182      -14.8697351097      -11.7977231047  W2        1437            0.0000000000
      4310      1437  TIP3      H1             15.5262837182      -15.2659351097      -12.4699731047  W2        1437            0.0000000000
      4311      1437  TIP3      H2             16.1810137182      -13.9592151097      -12.0753931047  W2        1437            0.0000000000
      4312      1438  TIP3      OH2            16.0438537182       -9.0695651097        1.0394268953  W2        1438            0.0000000000
      4313      1438  TIP3      H1             15.1927037182       -8.8311851097        0.6720668953  W2        1438            0.0000000000
      4314      1438  TIP3      H2             16.6341937182       -9.0862451097        0.2861368953  W2        1438            0.0000000000
      4315      1439  TIP3      OH2            14.3758237182       -6.0836951097      -11.3325131047  W2        1439            0.0000000000
      4316      1439  TIP3      H1             14.0029337182       -6.9093151097      -11.0234531047  W2        1439            0.0000000000
      4317      1439  TIP3      H2             14.6531737182       -6.2667551097      -12.2301731047  W2        1439            0.0000000000
      4318      1440  TIP3      OH2            11.5362137182      -11.2757451097       -4.3113231047  W2        1440            0.0000000000
      4319      1440  TIP3      H1             10.6079037182      -11.5075551097       -4.3383931047  W2        1440            0.0000000000
      4320      1440  TIP3      H2             11.9873237182      -12.0527651097       -4.6414431047  W2        1440            0.0000000000
      4321      1441  TIP3      OH2             4.0795237182       -6.9475851097       -8.1784531047  W2        1441            0.0000000000
      4322      1441  TIP3      H1              4.6067437182       -6.1741451097       -8.3785731047  W2        1441            0.0000000000
      4323      1441  TIP3      H2              3.1993737182       -6.7226651097       -8.4800531047  W2        1441            0.0000000000
      4324      1442  TIP3      OH2            -0.1657062818      -12.0851751097      -13.5912131047  W2        1442            0.0000000000
      4325      1442  TIP3      H1              0.4502837182      -11.4584551097      -13.2117331047  W2        1442            0.0000000000
      4326      1442  TIP3      H2             -1.0274462818      -11.7691951097      -13.3195631047  W2        1442            0.0000000000
      4327      1443  TIP3      OH2             5.5067537182       -9.2845951097       -8.6020231047  W2        1443            0.0000000000
      4328      1443  TIP3      H1              5.2657537182       -8.3591551097       -8.5604931047  W2        1443            0.0000000000
      4329      1443  TIP3      H2              4.7661137182       -9.7434651097       -8.2056331047  W2        1443            0.0000000000
      4330      1444  TIP3      OH2             6.0214137182       -5.1352351097       -2.2869131047  W2        1444            0.0000000000
      4331      1444  TIP3      H1              6.3838837182       -4.2806751097       -2.5204731047  W2        1444            0.0000000000
      4332      1444  TIP3      H2              6.5529337182       -5.4270751097       -1.5462831047  W2        1444            0.0000000000
      4333      1445  TIP3      OH2             4.1898337182       -4.2628351097       -9.0568031047  W2        1445            0.0000000000
      4334      1445  TIP3      H1              3.2398837182       -4.1570951097       -9.0054731047  W2        1445            0.0000000000
      4335      1445  TIP3      H2              4.5416437182       -3.4420951097       -8.7120531047  W2        1445            0.0000000000
      4336      1446  TIP3      OH2             9.5654937182       -9.0361651097       -2.5863531047  W2        1446            0.0000000000
      4337      1446  TIP3      H1              9.1396237182       -9.2639951097       -1.7599531047  W2        1446            0.0000000000
      4338      1446  TIP3      H2             10.1460737182       -9.7749851097       -2.7688231047  W2        1446            0.0000000000
      4339      1447  TIP3      OH2            11.7683837182       -8.1071151097      -13.5124531047  W2        1447            0.0000000000
      4340      1447  TIP3      H1             12.1216937182       -8.4871351097      -12.7081031047  W2        1447            0.0000000000
      4341      1447  TIP3      H2             10.8197337182       -8.2006351097      -13.4255231047  W2        1447            0.0000000000
      4342      1448  TIP3      OH2            12.2239137182       -4.4842151097       -0.1168731047  W2        1448            0.0000000000
      4343      1448  TIP3      H1             11.6222337182       -5.0399251097       -0.6122431047  W2        1448            0.0000000000
      4344      1448  TIP3      H2             12.5052837182       -3.8172351097       -0.7431331047  W2        1448            0.0000000000
      4345      1449  TIP3      OH2            16.2718237182       -3.6278651097      -13.3114331047  W2        1449            0.0000000000
      4346      1449  TIP3      H1             17.0156137182       -3.0418151097      -13.4512731047  W2        1449            0.0000000000
      4347      1449  TIP3      H2             15.5776337182       -3.0592851097      -12.9781931047  W2        1449            0.0000000000
      4348      1450  TIP3      OH2             0.3465037182      -17.2514451097       -0.7096131047  W2        1450            0.0000000000
      4349      1450  TIP3      H1             -0.5462662818      -16.9129051097       -0.7772131047  W2        1450            0.0000000000
      4350      1450  TIP3      H2              0.2477837182      -18.1068351097       -0.2915331047  W2        1450            0.0000000000
      4351      1451  TIP3      OH2            12.6343137182       -9.4349151097      -11.2856631047  W2        1451            0.0000000000
      4352      1451  TIP3      H1             12.3570737182      -10.1629851097      -10.7295531047  W2        1451            0.0000000000
      4353      1451  TIP3      H2             13.5616137182       -9.3157151097      -11.0804031047  W2        1451            0.0000000000
      4354      1452  TIP3      OH2            -0.0022962818       -5.4470051097       -2.2746731047  W2        1452            0.0000000000
      4355      1452  TIP3      H1              0.2147337182       -6.3787651097       -2.3057031047  W2        1452            0.0000000000
      4356      1452  TIP3      H2              0.2440537182       -5.1725051097       -1.3913931047  W2        1452            0.0000000000
      4357      1453  TIP3      OH2             5.8591637182       -6.9955051097      -15.0654531047  W2        1453            0.0000000000
      4358      1453  TIP3      H1              6.0981437182       -7.7436951097      -15.6125631047  W2        1453            0.0000000000
      4359      1453  TIP3      H2              5.5902937182       -7.3833351097      -14.2326731047  W2        1453            0.0000000000
      4360      1454  TIP3      OH2             4.7962237182       -7.4251251097      -12.6091931047  W2        1454            0.0000000000
      4361      1454  TIP3      H1              4.9430237182       -7.9451451097      -11.8191031047  W2        1454            0.0000000000
      4362      1454  TIP3      H2              4.7933937182       -6.5183651097      -12.3026031047  W2        1454            0.0000000000
      4363      1455  TIP3      OH2             1.2493337182      -10.1727951097      -12.0986531047  W2        1455            0.0000000000
      4364      1455  TIP3      H1              0.5632637182       -9.8205451097      -11.5316831047  W2        1455            0.0000000000
      4365      1455  TIP3      H2              1.7721237182       -9.4098351097      -12.3452231047  W2        1455            0.0000000000
      4366      1456  TIP3      OH2             9.0808437182      -17.5104151097       -1.8197531047  W2        1456            0.0000000000
      4367      1456  TIP3      H1              9.7796337182      -17.4365451097       -1.1697831047  W2        1456            0.0000000000
      4368      1456  TIP3      H2              8.6999837182      -18.3749151097       -1.6654631047  W2        1456            0.0000000000
      4369      1457  TIP3      OH2             9.8653337182      -17.8582451097      -10.7225231047  W2        1457            0.0000000000
      4370      1457  TIP3      H1             10.0851637182      -17.3867051097      -11.5259831047  W2        1457            0.0000000000
      4371      1457  TIP3      H2             10.4237337182      -17.4639851097      -10.0524631047  W2        1457            0.0000000000
      4372      1458  TIP3      OH2             7.5339437182       -5.7277651097      -11.8597731047  W2        1458            0.0000000000
      4373      1458  TIP3      H1              6.7175537182       -5.2307951097      -11.8073431047  W2        1458            0.0000000000
      4374      1458  TIP3      H2              8.0635737182       -5.2524151097      -12.4998931047  W2        1458            0.0000000000
      4375      1459  TIP3      OH2             7.0653237182      -16.1303651097       -9.8876831047  W2        1459            0.0000000000
      4376      1459  TIP3      H1              7.8775837182      -15.6260451097       -9.8415131047  W2        1459            0.0000000000
      4377      1459  TIP3      H2              6.8206237182      -16.2753951097       -8.9737231047  W2        1459            0.0000000000
      4378      1460  TIP3      OH2             7.6009637182      -15.1440951097       -0.7030231047  W2        1460            0.0000000000
      4379      1460  TIP3      H1              7.7199937182      -14.5705551097        0.0540168953  W2        1460            0.0000000000
      4380      1460  TIP3      H2              8.2564237182      -15.8321551097       -0.5882431047  W2        1460            0.0000000000
      4381      1461  TIP3      OH2             7.9489937182      -19.0490651097       -8.9495731047  W2        1461            0.0000000000
      4382      1461  TIP3      H1              7.6023437182      -18.4320051097       -8.3051431047  W2        1461            0.0000000000
      4383      1461  TIP3      H2              8.6076837182      -18.5484951097       -9.4310231047  W2        1461            0.0000000000
      4384      1462  TIP3      OH2             4.8722537182       -4.6840451097      -11.8780831047  W2        1462            0.0000000000
      4385      1462  TIP3      H1              5.0331237182       -3.8842951097      -12.3788231047  W2        1462            0.0000000000
      4386      1462  TIP3      H2              4.6750337182       -4.3774451097      -10.9930231047  W2        1462            0.0000000000
      4387      1463  TIP3      OH2             3.6066937182      -17.9861251097      -12.2623231047  W2        1463            0.0000000000
      4388      1463  TIP3      H1              3.5231737182      -17.0978151097      -11.9156831047  W2        1463            0.0000000000
      4389      1463  TIP3      H2              4.4967237182      -18.2514551097      -12.0306431047  W2        1463            0.0000000000
      4390      1464  TIP3      OH2            13.8055437182      -17.2370651097        0.1319468953  W2        1464            0.0000000000
      4391      1464  TIP3      H1             12.8891237182      -16.9748951097        0.0443168953  W2        1464            0.0000000000
      4392      1464  TIP3      H2             14.1410437182      -17.2401651097       -0.7645231047  W2        1464            0.0000000000
      4393      1465  TIP3      OH2            12.4076437182      -13.4869651097       -5.7723231047  W2        1465            0.0000000000
      4394      1465  TIP3      H1             11.6100837182      -13.9019451097       -6.1008231047  W2        1465            0.0000000000
      4395      1465  TIP3      H2             12.8527537182      -14.1775951097       -5.2812731047  W2        1465            0.0000000000
      4396      1466  TIP3      OH2             1.8652237182       -7.5589051097      -13.2018731047  W2        1466            0.0000000000
      4397      1466  TIP3      H1              2.4573737182       -6.8594251097      -12.9256331047  W2        1466            0.0000000000
      4398      1466  TIP3      H2              2.3245237182       -7.9919551097      -13.9214131047  W2        1466            0.0000000000
      4399      1467  TIP3      OH2             0.1811437182      -14.8946051097      -14.0859331047  W2        1467            0.0000000000
      4400      1467  TIP3      H1              0.1364037182      -13.9552951097      -13.9072331047  W2        1467            0.0000000000
      4401      1467  TIP3      H2             -0.7065362818      -15.1301151097      -14.3557231047  W2        1467            0.0000000000
      4402      1468  TIP3      OH2            13.4941037182       -4.2307151097       -4.1499731047  W2        1468            0.0000000000
      4403      1468  TIP3      H1             13.3385337182       -3.5522751097       -4.8070431047  W2        1468            0.0000000000
      4404      1468  TIP3      H2             14.4267437182       -4.1587851097       -3.9469131047  W2        1468            0.0000000000
      4405      1469  TIP3      OH2             0.9893437182      -20.1129451097       -5.4128331047  W2        1469            0.0000000000
      4406      1469  TIP3      H1              0.7603237182      -20.0536951097       -6.3403331047  W2        1469            0.0000000000
      4407      1469  TIP3      H2              0.5466837182      -20.9043951097       -5.1064231047  W2        1469            0.0000000000
      4408      1470  TIP3      OH2            -0.0803262818       -6.1722351097       -9.2522531047  W2        1470            0.0000000000
      4409      1470  TIP3      H1             -0.9124662818       -5.6999651097       -9.2251131047  W2        1470            0.0000000000
      4410      1470  TIP3      H2              0.4655037182       -5.6624751097       -9.8509431047  W2        1470            0.0000000000
      4411      1471  TIP3      OH2            -0.7919562818       -3.5598651097        2.0775468953  W2        1471            0.0000000000
      4412      1471  TIP3      H1             -0.2517362818       -3.7764651097        2.8374668953  W2        1471            0.0000000000
      4413      1471  TIP3      H2             -1.2731562818       -4.3652651097        1.8877968953  W2        1471            0.0000000000
      4414      1472  TIP3      OH2             3.8053837182       -4.6404251097        3.6979668953  W2        1472            0.0000000000
      4415      1472  TIP3      H1              4.5731037182       -5.0993451097        4.0388868953  W2        1472            0.0000000000
      4416      1472  TIP3      H2              3.7840037182       -4.8664451097        2.7680868953  W2        1472            0.0000000000
      4417      1473  TIP3      OH2             7.8973437182       -5.1323651097      -14.9268531047  W2        1473            0.0000000000
      4418      1473  TIP3      H1              7.2534437182       -5.7635051097      -14.6054831047  W2        1473            0.0000000000
      4419      1473  TIP3      H2              8.6591737182       -5.6635651097      -15.1585031047  W2        1473            0.0000000000
      4420      1474  TIP3      OH2            10.3822537182       -6.2603151097        2.4271168953  W2        1474            0.0000000000
      4421      1474  TIP3      H1             10.0312037182       -7.1170151097        2.6701568953  W2        1474            0.0000000000
      4422      1474  TIP3      H2             11.1085737182       -6.1176451097        3.0340168953  W2        1474            0.0000000000
      4423      1475  TIP3      OH2            12.5016337182       -5.3153751097      -14.6930531047  W2        1475            0.0000000000
      4424      1475  TIP3      H1             12.7846737182       -6.1098551097      -14.2403631047  W2        1475            0.0000000000
      4425      1475  TIP3      H2             13.2414237182       -5.0822751097      -15.2539431047  W2        1475            0.0000000000
      4426      1476  TIP3      OH2            -0.8850062818       -9.7494551097        3.0319768953  W2        1476            0.0000000000
      4427      1476  TIP3      H1             -0.7409562818      -10.6513851097        2.7456468953  W2        1476            0.0000000000
      4428      1476  TIP3      H2             -1.6572662818       -9.4632451097        2.5442068953  W2        1476            0.0000000000
      4429      1477  TIP3      OH2             3.4563637182       -9.4058851097      -14.8355631047  W2        1477            0.0000000000
      4430      1477  TIP3      H1              3.5207737182      -10.1999251097      -14.3049231047  W2        1477            0.0000000000
      4431      1477  TIP3      H2              4.1092837182       -9.5246051097      -15.5253631047  W2        1477            0.0000000000
      4432      1478  TIP3      OH2             5.7706037182       -9.7796451097        2.4646168953  W2        1478            0.0000000000
      4433      1478  TIP3      H1              5.4419837182       -9.5088351097        1.6073568953  W2        1478            0.0000000000
      4434      1478  TIP3      H2              5.9224237182      -10.7206651097        2.3771168953  W2        1478            0.0000000000
      4435      1479  TIP3      OH2             8.8087037182       -8.3587151097      -15.0997631047  W2        1479            0.0000000000
      4436      1479  TIP3      H1              8.5401137182       -8.1785051097      -14.1988731047  W2        1479            0.0000000000
      4437      1479  TIP3      H2              8.6022637182       -9.2840951097      -15.2311831047  W2        1479            0.0000000000
      4438      1480  TIP3      OH2            11.5051237182       -9.8639151097       -0.1521531047  W2        1480            0.0000000000
      4439      1480  TIP3      H1             12.2506037182       -9.2755451097       -0.2717531047  W2        1480            0.0000000000
      4440      1480  TIP3      H2             10.7478037182       -9.2819451097       -0.0888431047  W2        1480            0.0000000000
      4441      1481  TIP3      OH2            -0.0523562818      -12.5491251097        2.4519068953  W2        1481            0.0000000000
      4442      1481  TIP3      H1              0.3557637182      -13.4064651097        2.3309668953  W2        1481            0.0000000000
      4443      1481  TIP3      H2             -0.3125962818      -12.5349951097        3.3729368953  W2        1481            0.0000000000
      4444      1482  TIP3      OH2             4.6057437182      -11.4332651097      -12.5297631047  W2        1482            0.0000000000
      4445      1482  TIP3      H1              4.1459437182      -11.9174351097      -11.8439131047  W2        1482            0.0000000000
      4446      1482  TIP3      H2              4.8606137182      -12.1017251097      -13.1657131047  W2        1482            0.0000000000
      4447      1483  TIP3      OH2             3.8946737182      -13.5405551097       -0.1738031047  W2        1483            0.0000000000
      4448      1483  TIP3      H1              3.2762837182      -12.8658951097        0.1066668953  W2        1483            0.0000000000
      4449      1483  TIP3      H2              4.2387937182      -13.2191651097       -1.0071831047  W2        1483            0.0000000000
      4450      1484  TIP3      OH2             5.6767837182      -13.1900851097      -14.2674431047  W2        1484            0.0000000000
      4451      1484  TIP3      H1              5.4962837182      -13.3449651097      -15.1946131047  W2        1484            0.0000000000
      4452      1484  TIP3      H2              6.6268337182      -13.0822151097      -14.2226531047  W2        1484            0.0000000000
      4453      1485  TIP3      OH2             8.9144937182      -11.0690251097        3.1036768953  W2        1485            0.0000000000
      4454      1485  TIP3      H1              9.8676137182      -10.9851151097        3.0762768953  W2        1485            0.0000000000
      4455      1485  TIP3      H2              8.7539537182      -11.7808451097        3.7231668953  W2        1485            0.0000000000
      4456      1486  TIP3      OH2            15.0666137182      -10.8356651097      -14.8216331047  W2        1486            0.0000000000
      4457      1486  TIP3      H1             14.7930937182      -11.2601151097      -15.6348031047  W2        1486            0.0000000000
      4458      1486  TIP3      H2             15.1060237182       -9.9042151097      -15.0385931047  W2        1486            0.0000000000
      4459      1487  TIP3      OH2             4.2340437182      -16.1854751097        0.9085068953  W2        1487            0.0000000000
      4460      1487  TIP3      H1              4.3841337182      -16.9143451097        0.3064768953  W2        1487            0.0000000000
      4461      1487  TIP3      H2              4.2362837182      -15.4083051097        0.3497268953  W2        1487            0.0000000000
      4462      1488  TIP3      OH2             4.6466137182      -17.8158951097       -1.5987531047  W2        1488            0.0000000000
      4463      1488  TIP3      H1              5.1823637182      -17.3642251097       -2.2508231047  W2        1488            0.0000000000
      4464      1488  TIP3      H2              3.7945737182      -17.9239151097       -2.0213431047  W2        1488            0.0000000000
      4465      1489  TIP3      OH2             6.2284537182      -12.3762751097       -1.3592331047  W2        1489            0.0000000000
      4466      1489  TIP3      H1              6.9789337182      -12.5325251097       -1.9324531047  W2        1489            0.0000000000
      4467      1489  TIP3      H2              5.8892837182      -11.5246151097       -1.6346831047  W2        1489            0.0000000000
      4468      1490  TIP3      OH2            10.6440737182      -14.5610951097        3.6692968953  W2        1490            0.0000000000
      4469      1490  TIP3      H1             10.8362037182      -15.4921551097        3.5577468953  W2        1490            0.0000000000
      4470      1490  TIP3      H2             11.5017037182      -14.1361451097        3.6588368953  W2        1490            0.0000000000
      4471      1491  TIP3      OH2            11.9607937182      -11.7725751097        1.7465668953  W2        1491            0.0000000000
      4472      1491  TIP3      H1             11.6792937182      -11.0631151097        1.1689468953  W2        1491            0.0000000000
      4473      1491  TIP3      H2             12.9032237182      -11.8452751097        1.5956868953  W2        1491            0.0000000000
      4474      1492  TIP3      OH2             2.7126737182      -14.9871251097        2.8200668953  W2        1492            0.0000000000
      4475      1492  TIP3      H1              1.9455737182      -15.5196451097        2.6098268953  W2        1492            0.0000000000
      4476      1492  TIP3      H2              3.3915737182      -15.2970851097        2.2206968953  W2        1492            0.0000000000
      4477      1493  TIP3      OH2             5.4521637182      -20.3593251097       -1.1673931047  W2        1493            0.0000000000
      4478      1493  TIP3      H1              5.3541237182      -19.4130051097       -1.2727731047  W2        1493            0.0000000000
      4479      1493  TIP3      H2              4.7097837182      -20.7319451097       -1.6430431047  W2        1493            0.0000000000
      4480      1494  TIP3      OH2             6.7162137182      -16.0377851097        2.3964468953  W2        1494            0.0000000000
      4481      1494  TIP3      H1              6.4807537182      -16.2571151097        3.2979368953  W2        1494            0.0000000000
      4482      1494  TIP3      H2              5.9329037182      -16.2446651097        1.8866968953  W2        1494            0.0000000000
      4483      1495  TIP3      OH2             9.4318737182      -16.9104351097        1.4717968953  W2        1495            0.0000000000
      4484      1495  TIP3      H1              8.4844137182      -16.8784651097        1.6041268953  W2        1495            0.0000000000
      4485      1495  TIP3      H2              9.7445437182      -17.5357251097        2.1256168953  W2        1495            0.0000000000
      4486      1496  TIP3      OH2            11.0660237182      -18.2763251097        3.4769868953  W2        1496            0.0000000000
      4487      1496  TIP3      H1             10.9692037182      -19.2285951097        3.4711768953  W2        1496            0.0000000000
      4488      1496  TIP3      H2             10.7443337182      -18.0076451097        4.3375368953  W2        1496            0.0000000000
      4489      1497  TIP3      OH2             0.8929537182      -17.0667451097        2.5245368953  W2        1497            0.0000000000
      4490      1497  TIP3      H1              1.1046937182      -17.7731351097        1.9142868953  W2        1497            0.0000000000
      4491      1497  TIP3      H2              0.7817037182      -17.5041451097        3.3686568953  W2        1497            0.0000000000
      4492      1498  TIP3      OH2             5.6739737182      -21.0655851097        1.5038868953  W2        1498            0.0000000000
      4493      1498  TIP3      H1              6.3858137182      -21.7053651097        1.4897968953  W2        1498            0.0000000000
      4494      1498  TIP3      H2              5.5730137182      -20.7987551097        0.5901968953  W2        1498            0.0000000000
      4495      1499  TIP3      OH2             6.0277237182      -19.3827451097        3.5575168953  W2        1499            0.0000000000
      4496      1499  TIP3      H1              5.8959437182      -19.8583651097        2.7373668953  W2        1499            0.0000000000
      4497      1499  TIP3      H2              5.4284637182      -18.6383851097        3.5022268953  W2        1499            0.0000000000
      4498      1500  TIP3      OH2             5.5739537182       -2.4997151097      -13.2660831047  W2        1500            0.0000000000
      4499      1500  TIP3      H1              6.5070237182       -2.3418451097      -13.1222431047  W2        1500            0.0000000000
      4500      1500  TIP3      H2              5.3098337182       -1.8244151097      -13.8909331047  W2        1500            0.0000000000
      4501      1501  TIP3      OH2            -0.8575562818       -7.8633351097      -13.7832731047  W2        1501            0.0000000000
      4502      1501  TIP3      H1              0.0563637182       -7.7844451097      -13.5098831047  W2        1501            0.0000000000
      4503      1501  TIP3      H2             -0.8502462818       -8.5503751097      -14.4497131047  W2        1501            0.0000000000
      4504      1502  TIP3      OH2            -2.2084962818       -2.4704851097       -8.7058831047  W2        1502            0.0000000000
      4505      1502  TIP3      H1             -2.8557862818       -2.9323151097       -9.2387631047  W2        1502            0.0000000000
      4506      1502  TIP3      H2             -1.8540362818       -3.1421551097       -8.1232631047  W2        1502            0.0000000000
      4507      1503  TIP3      OH2            -1.3385762818       -4.3897851097       -6.9012631047  W2        1503            0.0000000000
      4508      1503  TIP3      H1             -1.6728962818       -5.2700551097       -6.7292431047  W2        1503            0.0000000000
      4509      1503  TIP3      H2             -1.1163362818       -4.0442851097       -6.0367031047  W2        1503            0.0000000000
      4510      1504  TIP3      OH2            16.2099037182       -3.5801451097       -3.9207831047  W2        1504            0.0000000000
      4511      1504  TIP3      H1             16.1885737182       -3.3953051097       -2.9818431047  W2        1504            0.0000000000
      4512      1504  TIP3      H2             16.9005237182       -3.0117451097       -4.2616431047  W2        1504            0.0000000000
      4513      1505  TIP3      OH2            15.7731937182       -4.0130351097       -0.9988731047  W2        1505            0.0000000000
      4514      1505  TIP3      H1             15.2860637182       -4.7486251097       -1.3701331047  W2        1505            0.0000000000
      4515      1505  TIP3      H2             16.3224637182       -4.4066451097       -0.3209331047  W2        1505            0.0000000000
      4516      1506  TIP3      OH2            14.2239237182       -8.2232251097        3.6391568953  W2        1506            0.0000000000
      4517      1506  TIP3      H1             13.3580337182       -8.3282551097        4.0333868953  W2        1506            0.0000000000
      4518      1506  TIP3      H2             14.6005137182       -7.4648951097        4.0856268953  W2        1506            0.0000000000
      4519      1507  TIP3      OH2            15.5248937182       -9.9668551097      -10.8465931047  W2        1507            0.0000000000
      4520      1507  TIP3      H1             16.3750337182       -9.5457651097      -10.7194331047  W2        1507            0.0000000000
      4521      1507  TIP3      H2             15.5304037182      -10.7068451097      -10.2394531047  W2        1507            0.0000000000
      4522      1508  TIP3      OH2            15.9194537182      -11.9131151097       -9.0230231047  W2        1508            0.0000000000
      4523      1508  TIP3      H1             15.1929137182      -12.3928551097       -8.6252631047  W2        1508            0.0000000000
      4524      1508  TIP3      H2             16.5007837182      -11.7076451097       -8.2908631047  W2        1508            0.0000000000
      4525      1509  TIP3      OH2            15.6785737182       -9.1283651097       -4.0752631047  W2        1509            0.0000000000
      4526      1509  TIP3      H1             16.5119937182       -9.5063651097       -4.3559031047  W2        1509            0.0000000000
      4527      1509  TIP3      H2             15.7906037182       -8.1852451097       -4.1943531047  W2        1509            0.0000000000
      4528      1510  TIP3      OH2            14.1648037182       -6.2506151097       -1.7684231047  W2        1510            0.0000000000
      4529      1510  TIP3      H1             13.5173337182       -5.9254651097       -1.1429031047  W2        1510            0.0000000000
      4530      1510  TIP3      H2             13.6472037182       -6.6908451097       -2.4425931047  W2        1510            0.0000000000
      4531      1511  TIP3      OH2            16.1877637182      -12.0122651097      -12.6318931047  W2        1511            0.0000000000
      4532      1511  TIP3      H1             15.6658737182      -11.6558551097      -13.3508031047  W2        1511            0.0000000000
      4533      1511  TIP3      H2             16.1546837182      -11.3374851097      -11.9538031047  W2        1511            0.0000000000
      4534      1512  TIP3      OH2            14.5366637182      -14.7727051097      -14.0811831047  W2        1512            0.0000000000
      4535      1512  TIP3      H1             14.6331037182      -14.1060051097      -14.7612131047  W2        1512            0.0000000000
      4536      1512  TIP3      H2             14.3966237182      -15.5880751097      -14.5626331047  W2        1512            0.0000000000
      4537      1513  TIP3      OH2            13.7061337182      -13.3924651097       -8.4601531047  W2        1513            0.0000000000
      4538      1513  TIP3      H1             13.5560137182      -14.3376051097       -8.4803731047  W2        1513            0.0000000000
      4539      1513  TIP3      H2             13.3525837182      -13.1113251097       -7.6162431047  W2        1513            0.0000000000
      4540      1514  TIP3      OH2            -1.2586262818      -11.3142451097       -4.4497731047  W2        1514            0.0000000000
      4541      1514  TIP3      H1             -1.0743362818      -11.3960751097       -5.3854831047  W2        1514            0.0000000000
      4542      1514  TIP3      H2             -0.4093362818      -11.4385451097       -4.0261331047  W2        1514            0.0000000000
      4543      1515  TIP3      OH2            14.5624237182      -11.4221351097        1.1786768953  W2        1515            0.0000000000
      4544      1515  TIP3      H1             15.1451537182      -12.1569051097        1.3703968953  W2        1515            0.0000000000
      4545      1515  TIP3      H2             15.1263537182      -10.6501051097        1.2252568953  W2        1515            0.0000000000
      4546      1516  TIP3      OH2            16.0591337182      -13.5195551097        1.8632168953  W2        1516            0.0000000000
      4547      1516  TIP3      H1             15.1958037182      -13.8983451097        1.6976868953  W2        1516            0.0000000000
      4548      1516  TIP3      H2             16.6635037182      -14.2580751097        1.7887968953  W2        1516            0.0000000000
      4549      1517  TIP3      OH2            13.7840437182      -17.3647251097      -14.9636331047  W2        1517            0.0000000000
      4550      1517  TIP3      H1             14.3946237182      -17.7360451097      -14.3268131047  W2        1517            0.0000000000
      4551      1517  TIP3      H2             12.9471937182      -17.7860351097      -14.7676331047  W2        1517            0.0000000000
      4552      1518  TIP3      OH2            13.4166137182      -15.8098851097       -9.9976431047  W2        1518            0.0000000000
      4553      1518  TIP3      H1             13.6963237182      -16.7168451097       -9.8734731047  W2        1518            0.0000000000
      4554      1518  TIP3      H2             14.1757837182      -15.3757351097      -10.3867231047  W2        1518            0.0000000000
      4555      1519  TIP3      OH2            14.0284437182      -15.2281451097       -4.5617531047  W2        1519            0.0000000000
      4556      1519  TIP3      H1             14.9612437182      -15.0161551097       -4.5961531047  W2        1519            0.0000000000
      4557      1519  TIP3      H2             13.7931937182      -15.1269351097       -3.6394531047  W2        1519            0.0000000000
      4558      1520  TIP3      OH2            14.0576337182      -14.4916151097       -1.7858131047  W2        1520            0.0000000000
      4559      1520  TIP3      H1             13.2147637182      -14.2235751097       -1.4198331047  W2        1520            0.0000000000
      4560      1520  TIP3      H2             14.5000637182      -13.6694251097       -1.9967031047  W2        1520            0.0000000000
      4561      1521  TIP3      OH2            -1.6611462818      -16.0437451097        1.6911068953  W2        1521            0.0000000000
      4562      1521  TIP3      H1             -0.7416562818      -16.1659151097        1.9274168953  W2        1521            0.0000000000
      4563      1521  TIP3      H2             -2.1106962818      -16.7937751097        2.0804568953  W2        1521            0.0000000000
      4564      1522  TIP3      OH2            16.3407937182      -20.5115951097        3.5676868953  W2        1522            0.0000000000
      4565      1522  TIP3      H1             16.6904937182      -21.1652451097        2.9621568953  W2        1522            0.0000000000
      4566      1522  TIP3      H2             16.4877437182      -19.6741851097        3.1279468953  W2        1522            0.0000000000
      4567      1523  TIP3      OH2            14.0300937182      -18.5469551097       -9.9494431047  W2        1523            0.0000000000
      4568      1523  TIP3      H1             14.2125937182      -18.9958051097       -9.1239431047  W2        1523            0.0000000000
      4569      1523  TIP3      H2             13.4303837182      -19.1315151097      -10.4129831047  W2        1523            0.0000000000
      4570      1524  TIP3      OH2            -0.4398962818      -17.7315851097       -5.4176031047  W2        1524            0.0000000000
      4571      1524  TIP3      H1              0.0052637182      -18.5233351097       -5.1156331047  W2        1524            0.0000000000
      4572      1524  TIP3      H2              0.0264037182      -17.0150651097       -4.9870431047  W2        1524            0.0000000000
      4573      1525  TIP3      OH2            -2.1358662818      -14.7322851097       -4.3485831047  W2        1525            0.0000000000
      4574      1525  TIP3      H1             -1.6438862818      -14.9532351097       -5.1393831047  W2        1525            0.0000000000
      4575      1525  TIP3      H2             -1.7737762818      -13.8919451097       -4.0676331047  W2        1525            0.0000000000
      4576      1526  TIP3      OH2            15.8605137182      -18.4021351097        1.9168168953  W2        1526            0.0000000000
      4577      1526  TIP3      H1             14.9430837182      -18.1314251097        1.8811668953  W2        1526            0.0000000000
      4578      1526  TIP3      H2             15.9834537182      -18.9372951097        1.1327868953  W2        1526            0.0000000000
      4579      1527  TIP3      OH2            15.8967137182      -18.4791451097      -13.4214131047  W2        1527            0.0000000000
      4580      1527  TIP3      H1             16.3089737182      -19.2005751097      -13.8966131047  W2        1527            0.0000000000
      4581      1527  TIP3      H2             16.5783637182      -17.8096851097      -13.3629831047  W2        1527            0.0000000000
      4582      1528  TIP3      OH2            -1.8222162818      -18.4743751097      -10.2943431047  W2        1528            0.0000000000
      4583      1528  TIP3      H1             -2.7473762818      -18.2657151097      -10.4237931047  W2        1528            0.0000000000
      4584      1528  TIP3      H2             -1.3682262818      -17.9902951097      -10.9841131047  W2        1528            0.0000000000
      4585      1529  TIP3      OH2            12.9485037182       -3.4902051097       -8.3486031047  W2        1529            0.0000000000
      4586      1529  TIP3      H1             13.6007937182       -3.8379951097       -8.9566931047  W2        1529            0.0000000000
      4587      1529  TIP3      H2             13.4588837182       -3.0018851097       -7.7026331047  W2        1529            0.0000000000
      4588      1530  TIP3      OH2            -1.8586762818      -19.7364751097       -1.9500931047  W2        1530            0.0000000000
      4589      1530  TIP3      H1             -2.5236262818      -19.9824451097       -1.3070031047  W2        1530            0.0000000000
      4590      1530  TIP3      H2             -2.3015462818      -19.1144351097       -2.5272931047  W2        1530            0.0000000000
      4591      1531  TIP3      OH2             0.3332537182       -6.5610651097        2.1944868953  W2        1531            0.0000000000
      4592      1531  TIP3      H1             -0.4874962818       -6.3864151097        1.7339568953  W2        1531            0.0000000000
      4593      1531  TIP3      H2              0.0810337182       -6.6345951097        3.1149268953  W2        1531            0.0000000000
      4594      1532  TIP3      OH2             3.2875437182       -5.5869451097       -1.5471131047  W2        1532            0.0000000000
      4595      1532  TIP3      H1              2.8626537182       -4.7770951097       -1.8296531047  W2        1532            0.0000000000
      4596      1532  TIP3      H2              4.1918237182       -5.5015351097       -1.8491331047  W2        1532            0.0000000000
      4597      1533  TIP3      OH2             7.5986837182       -4.1879451097        1.4122568953  W2        1533            0.0000000000
      4598      1533  TIP3      H1              7.7834337182       -4.5213351097        2.2902868953  W2        1533            0.0000000000
      4599      1533  TIP3      H2              8.4451337182       -3.8780851097        1.0901768953  W2        1533            0.0000000000
      4600      1534  TIP3      OH2             9.9437237182       -2.9020551097        0.6563968953  W2        1534            0.0000000000
      4601      1534  TIP3      H1             10.6206137182       -3.5348251097        0.4163168953  W2        1534            0.0000000000
      4602      1534  TIP3      H2             10.2656037182       -2.5010051097        1.4637268953  W2        1534            0.0000000000
      4603      1535  TIP3      OH2            14.8611037182      -20.3125051097       -0.2641031047  W2        1535            0.0000000000
      4604      1535  TIP3      H1             14.0484537182      -19.9874751097       -0.6516331047  W2        1535            0.0000000000
      4605      1535  TIP3      H2             15.0939537182      -21.0726551097       -0.7971931047  W2        1535            0.0000000000
      4606      1536  TIP3      OH2             0.6892137182       -2.3305551097       -1.4995831047  W2        1536            0.0000000000
      4607      1536  TIP3      H1             -0.0311462818       -1.8904551097       -1.9508131047  W2        1536            0.0000000000
      4608      1536  TIP3      H2              0.3236137182       -2.5810851097       -0.6511831047  W2        1536            0.0000000000
      4609      1537  TIP3      OH2             3.1564737182       -2.7301651097       -2.4698631047  W2        1537            0.0000000000
      4610      1537  TIP3      H1              2.2916937182       -2.6583151097       -2.0658531047  W2        1537            0.0000000000
      4611      1537  TIP3      H2              3.1013737182       -2.1834351097       -3.2536131047  W2        1537            0.0000000000
      4612      1538  TIP3      OH2             7.8670337182       -2.8422751097       -3.2942631047  W2        1538            0.0000000000
      4613      1538  TIP3      H1              7.4104337182       -2.3133051097       -3.9484231047  W2        1538            0.0000000000
      4614      1538  TIP3      H2              8.0298337182       -2.2391351097       -2.5690331047  W2        1538            0.0000000000
      4615      1539  TIP3      OH2            10.1946637182       -3.9643151097       -2.3492331047  W2        1539            0.0000000000
      4616      1539  TIP3      H1              9.2900337182       -3.7992951097       -2.6150231047  W2        1539            0.0000000000
      4617      1539  TIP3      H2             10.6235237182       -3.1110951097       -2.4148931047  W2        1539            0.0000000000
      4618      1540  TIP3      OH2            12.7988537182       -2.3944051097       -2.0544531047  W2        1540            0.0000000000
      4619      1540  TIP3      H1             12.6170537182       -1.4785151097       -2.2649631047  W2        1540            0.0000000000
      4620      1540  TIP3      H2             12.9756337182       -2.8046951097       -2.9009931047  W2        1540            0.0000000000
      4621      1541  TIP3      OH2             0.1040237182       -3.7073051097       -4.5894031047  W2        1541            0.0000000000
      4622      1541  TIP3      H1              0.0856237182       -4.1327951097       -3.7321731047  W2        1541            0.0000000000
      4623      1541  TIP3      H2              0.9088137182       -4.0258051097       -4.9981831047  W2        1541            0.0000000000
      4624      1542  TIP3      OH2             2.2453337182       -4.9974351097       -5.9344131047  W2        1542            0.0000000000
      4625      1542  TIP3      H1              2.0264037182       -5.9136951097       -5.7648131047  W2        1542            0.0000000000
      4626      1542  TIP3      H2              3.0695537182       -4.8573951097       -5.4682731047  W2        1542            0.0000000000
      4627      1543  TIP3      OH2             4.7825837182       -4.5275051097       -5.0856131047  W2        1543            0.0000000000
      4628      1543  TIP3      H1              4.9951537182       -5.4156051097       -5.3725231047  W2        1543            0.0000000000
      4629      1543  TIP3      H2              4.8470937182       -4.5617351097       -4.1312131047  W2        1543            0.0000000000
      4630      1544  TIP3      OH2             8.2909537182      -18.8634451097       -5.9412831047  W2        1544            0.0000000000
      4631      1544  TIP3      H1              7.6166337182      -19.4928851097       -5.6857031047  W2        1544            0.0000000000
      4632      1544  TIP3      H2              8.8548737182      -19.3475551097       -6.5444931047  W2        1544            0.0000000000
      4633      1545  TIP3      OH2            13.4336737182      -20.7560451097       -5.8285731047  W2        1545            0.0000000000
      4634      1545  TIP3      H1             14.0374337182      -20.2085051097       -6.3304731047  W2        1545            0.0000000000
      4635      1545  TIP3      H2             12.5638737182      -20.4370051097       -6.0691631047  W2        1545            0.0000000000
      4636      1546  TIP3      OH2            15.1607137182      -19.6171751097       -7.4954831047  W2        1546            0.0000000000
      4637      1546  TIP3      H1             15.7724637182      -20.1316051097       -8.0221231047  W2        1546            0.0000000000
      4638      1546  TIP3      H2             15.5430537182      -18.7399651097       -7.4720431047  W2        1546            0.0000000000
      4639      1547  TIP3      OH2             0.6177037182      -20.2294151097       -8.1192931047  W2        1547            0.0000000000
      4640      1547  TIP3      H1             -0.1593162818      -20.4639251097       -8.6267031047  W2        1547            0.0000000000
      4641      1547  TIP3      H2              1.1480637182      -21.0262051097       -8.1104931047  W2        1547            0.0000000000
      4642      1548  TIP3      OH2            -0.5459562818      -20.4316051097      -12.3156831047  W2        1548            0.0000000000
      4643      1548  TIP3      H1             -0.1068862818      -19.8205551097      -12.9073331047  W2        1548            0.0000000000
      4644      1548  TIP3      H2             -1.1797162818      -19.8931951097      -11.8416831047  W2        1548            0.0000000000
      4645      1549  TIP3      OH2             5.1969637182      -20.3027051097       -8.3059831047  W2        1549            0.0000000000
      4646      1549  TIP3      H1              6.0713037182      -19.9142751097       -8.3355531047  W2        1549            0.0000000000
      4647      1549  TIP3      H2              5.0610437182      -20.5179251097       -7.3832631047  W2        1549            0.0000000000
      4648      1550  TIP3      OH2            10.7538037182      -20.2727251097       -6.6568131047  W2        1550            0.0000000000
      4649      1550  TIP3      H1             10.8299637182      -20.1775651097       -7.6062131047  W2        1550            0.0000000000
      4650      1550  TIP3      H2             10.4787237182      -21.1804351097       -6.5279031047  W2        1550            0.0000000000
      4651      1551  TIP3      OH2            12.1070637182      -20.2469451097      -10.9643131047  W2        1551            0.0000000000
      4652      1551  TIP3      H1             11.4041737182      -19.6320251097      -11.1741731047  W2        1551            0.0000000000
      4653      1551  TIP3      H2             11.6622037182      -21.0842751097      -10.8332231047  W2        1551            0.0000000000
      4654      1552  TIP3      OH2            -0.6450062818       -4.4833851097      -11.4181731047  W2        1552            0.0000000000
      4655      1552  TIP3      H1             -1.3300162818       -4.5214951097      -12.0856631047  W2        1552            0.0000000000
      4656      1552  TIP3      H2             -0.6412862818       -3.5706251097      -11.1299631047  W2        1552            0.0000000000
      4657      1553  TIP3      OH2             1.3149537182      -18.5154551097      -13.8732731047  W2        1553            0.0000000000
      4658      1553  TIP3      H1              1.8062937182      -19.1452151097      -14.4007231047  W2        1553            0.0000000000
      4659      1553  TIP3      H2              1.9385837182      -18.2195151097      -13.2101531047  W2        1553            0.0000000000
      4660      1554  TIP3      OH2             6.3409637182      -18.2223051097      -11.4162231047  W2        1554            0.0000000000
      4661      1554  TIP3      H1              6.5190937182      -18.8689851097      -10.7333631047  W2        1554            0.0000000000
      4662      1554  TIP3      H2              6.2875837182      -17.3885351097      -10.9491131047  W2        1554            0.0000000000
      4663      1555  TIP3      OH2             8.2193437182       -3.2738951097      -13.0205531047  W2        1555            0.0000000000
      4664      1555  TIP3      H1              9.0853637182       -2.9071551097      -13.1987331047  W2        1555            0.0000000000
      4665      1555  TIP3      H2              7.9726237182       -3.7130951097      -13.8344731047  W2        1555            0.0000000000
      4666      1556  TIP3      OH2            14.9283037182       -3.7108651097      -10.3414431047  W2        1556            0.0000000000
      4667      1556  TIP3      H1             14.7340137182       -4.4586551097      -10.9064831047  W2        1556            0.0000000000
      4668      1556  TIP3      H2             14.8893137182       -2.9528551097      -10.9246531047  W2        1556            0.0000000000
      4669      1557  TIP3      OH2             0.5755037182      -19.7152251097        1.3983268953  W2        1557            0.0000000000
      4670      1557  TIP3      H1              0.2093237182      -20.4809651097        1.8407968953  W2        1557            0.0000000000
      4671      1557  TIP3      H2              1.4883537182      -19.6862051097        1.6848368953  W2        1557            0.0000000000
      4672      1558  TIP3      OH2             2.5485837182      -20.3647851097        2.9340368953  W2        1558            0.0000000000
      4673      1558  TIP3      H1              3.4469437182      -20.6387651097        2.7493768953  W2        1558            0.0000000000
      4674      1558  TIP3      H2              2.1618937182      -21.1071851097        3.3982968953  W2        1558            0.0000000000
      4675      1559  TIP3      OH2             1.1731137182       -3.5633051097      -14.3929631047  W2        1559            0.0000000000
      4676      1559  TIP3      H1              0.9055737182       -3.2770151097      -13.5196531047  W2        1559            0.0000000000
      4677      1559  TIP3      H2              1.9443737182       -4.1093851097      -14.2407131047  W2        1559            0.0000000000
      4678      1560  TIP3      OH2            10.9698137182      -21.0322551097        3.1163168953  W2        1560            0.0000000000
      4679      1560  TIP3      H1             11.0465337182      -21.4581851097        3.9700868953  W2        1560            0.0000000000
      4680      1560  TIP3      H2             11.8634737182      -21.0187851097        2.7736668953  W2        1560            0.0000000000
      4681      1561  TIP3      OH2            14.1459237182       -4.9596251097        1.8087368953  W2        1561            0.0000000000
      4682      1561  TIP3      H1             13.3641137182       -5.1458251097        1.2887968953  W2        1561            0.0000000000
      4683      1561  TIP3      H2             14.0739137182       -4.0301951097        2.0259868953  W2        1561            0.0000000000
      4684      1562  TIP3      OH2            28.5519637182      -11.0731851097       -8.1605431047  W2        1562            0.0000000000
      4685      1562  TIP3      H1             28.6410737182      -10.1293651097       -8.2928331047  W2        1562            0.0000000000
      4686      1562  TIP3      H2             27.9137237182      -11.3485451097       -8.8186031047  W2        1562            0.0000000000
      4687      1563  TIP3      OH2            27.4850937182      -11.8181151097       -4.7417231047  W2        1563            0.0000000000
      4688      1563  TIP3      H1             27.4468437182      -12.4644851097       -4.0367631047  W2        1563            0.0000000000
      4689      1563  TIP3      H2             27.1627437182      -12.2846751097       -5.5128531047  W2        1563            0.0000000000
      4690      1564  TIP3      OH2            19.8535937182      -12.2039051097       -3.1487331047  W2        1564            0.0000000000
      4691      1564  TIP3      H1             19.8948037182      -12.8295751097       -2.4254931047  W2        1564            0.0000000000
      4692      1564  TIP3      H2             20.5563637182      -11.5800451097       -2.9666931047  W2        1564            0.0000000000
      4693      1565  TIP3      OH2            31.1911137182       -8.8790751097       -6.4402131047  W2        1565            0.0000000000
      4694      1565  TIP3      H1             30.7503837182       -9.5994751097       -5.9896531047  W2        1565            0.0000000000
      4695      1565  TIP3      H2             31.1780837182       -8.1583551097       -5.8104431047  W2        1565            0.0000000000
      4696      1566  TIP3      OH2            20.7769037182       -7.7540151097       -4.6138231047  W2        1566            0.0000000000
      4697      1566  TIP3      H1             20.4074237182       -8.5559651097       -4.9833931047  W2        1566            0.0000000000
      4698      1566  TIP3      H2             21.7180137182       -7.9225251097       -4.5674831047  W2        1566            0.0000000000
      4699      1567  TIP3      OH2            17.3869537182      -14.0937551097       -9.2209431047  W2        1567            0.0000000000
      4700      1567  TIP3      H1             16.9392937182      -13.2478851097       -9.2392931047  W2        1567            0.0000000000
      4701      1567  TIP3      H2             16.8260737182      -14.6733351097       -9.7364331047  W2        1567            0.0000000000
      4702      1568  TIP3      OH2            18.0975637182      -11.9317951097       -7.0951431047  W2        1568            0.0000000000
      4703      1568  TIP3      H1             18.3109137182      -12.7016351097       -6.5678431047  W2        1568            0.0000000000
      4704      1568  TIP3      H2             18.8353237182      -11.8421251097       -7.6983831047  W2        1568            0.0000000000
      4705      1569  TIP3      OH2            28.3026637182       -3.7749051097       -6.2281731047  W2        1569            0.0000000000
      4706      1569  TIP3      H1             28.9223037182       -4.4514351097       -6.5012531047  W2        1569            0.0000000000
      4707      1569  TIP3      H2             28.0944037182       -3.9928251097       -5.3196831047  W2        1569            0.0000000000
      4708      1570  TIP3      OH2            25.8745337182       -9.3859751097       -4.3356231047  W2        1570            0.0000000000
      4709      1570  TIP3      H1             26.1783237182      -10.0718351097       -4.9302131047  W2        1570            0.0000000000
      4710      1570  TIP3      H2             26.5959337182       -9.2671051097       -3.7178231047  W2        1570            0.0000000000
      4711      1571  TIP3      OH2            34.5375137182      -17.7844451097       -3.4750031047  W2        1571            0.0000000000
      4712      1571  TIP3      H1             34.5867337182      -17.1743251097       -2.7390931047  W2        1571            0.0000000000
      4713      1571  TIP3      H2             34.9630237182      -17.3233551097       -4.1978931047  W2        1571            0.0000000000
      4714      1572  TIP3      OH2            29.0152337182      -14.9917351097       -4.0081431047  W2        1572            0.0000000000
      4715      1572  TIP3      H1             29.1578237182      -15.9380351097       -3.9879831047  W2        1572            0.0000000000
      4716      1572  TIP3      H2             28.9091337182      -14.7847551097       -4.9366531047  W2        1572            0.0000000000
      4717      1573  TIP3      OH2            22.1700637182      -16.8900951097       -6.7356631047  W2        1573            0.0000000000
      4718      1573  TIP3      H1             22.2131737182      -16.0302451097       -7.1540331047  W2        1573            0.0000000000
      4719      1573  TIP3      H2             21.7124737182      -17.4426251097       -7.3693431047  W2        1573            0.0000000000
      4720      1574  TIP3      OH2            29.8923337182      -16.7595351097       -8.3348331047  W2        1574            0.0000000000
      4721      1574  TIP3      H1             30.5387637182      -17.0882151097       -7.7100731047  W2        1574            0.0000000000
      4722      1574  TIP3      H2             30.4022737182      -16.2416351097       -8.9576931047  W2        1574            0.0000000000
      4723      1575  TIP3      OH2            18.7902137182      -14.4935151097       -5.9735231047  W2        1575            0.0000000000
      4724      1575  TIP3      H1             19.4438737182      -15.0433451097       -5.5415131047  W2        1575            0.0000000000
      4725      1575  TIP3      H2             18.8141437182      -14.7676151097       -6.8903231047  W2        1575            0.0000000000
      4726      1576  TIP3      OH2            23.9466637182      -12.9433851097       -6.7583731047  W2        1576            0.0000000000
      4727      1576  TIP3      H1             24.5627637182      -13.4698451097       -6.2489731047  W2        1576            0.0000000000
      4728      1576  TIP3      H2             23.3605437182      -13.5835151097       -7.1620131047  W2        1576            0.0000000000
      4729      1577  TIP3      OH2            34.9289737182      -16.3065251097       -1.2390231047  W2        1577            0.0000000000
      4730      1577  TIP3      H1             34.2404337182      -15.6484551097       -1.3343631047  W2        1577            0.0000000000
      4731      1577  TIP3      H2             34.9444337182      -16.5037351097       -0.3024831047  W2        1577            0.0000000000
      4732      1578  TIP3      OH2            20.9802537182      -17.9722551097       -2.6615831047  W2        1578            0.0000000000
      4733      1578  TIP3      H1             20.7614237182      -17.4421951097       -3.4279831047  W2        1578            0.0000000000
      4734      1578  TIP3      H2             20.3123437182      -17.7457051097       -2.0144431047  W2        1578            0.0000000000
      4735      1579  TIP3      OH2            28.3492337182       -8.4721451097       -9.1176731047  W2        1579            0.0000000000
      4736      1579  TIP3      H1             28.0537437182       -8.7949151097       -9.9689831047  W2        1579            0.0000000000
      4737      1579  TIP3      H2             28.0250137182       -7.5724751097       -9.0764131047  W2        1579            0.0000000000
      4738      1580  TIP3      OH2            23.5493937182      -10.2966851097       -2.3742131047  W2        1580            0.0000000000
      4739      1580  TIP3      H1             22.8093037182       -9.6985351097       -2.2706931047  W2        1580            0.0000000000
      4740      1580  TIP3      H2             24.2633437182       -9.7427251097       -2.6898531047  W2        1580            0.0000000000
      4741      1581  TIP3      OH2            31.6561737182      -17.4686051097       -6.3542431047  W2        1581            0.0000000000
      4742      1581  TIP3      H1             31.4409737182      -18.2342651097       -5.8216431047  W2        1581            0.0000000000
      4743      1581  TIP3      H2             32.3119137182      -16.9961451097       -5.8413931047  W2        1581            0.0000000000
      4744      1582  TIP3      OH2            20.5739837182      -16.0800751097       -4.7093631047  W2        1582            0.0000000000
      4745      1582  TIP3      H1             21.1876137182      -15.4473151097       -4.3361231047  W2        1582            0.0000000000
      4746      1582  TIP3      H2             21.0860537182      -16.5525751097       -5.3656731047  W2        1582            0.0000000000
      4747      1583  TIP3      OH2            21.9568237182       -8.3323851097       -1.5870631047  W2        1583            0.0000000000
      4748      1583  TIP3      H1             21.9515837182       -7.4530351097       -1.9651331047  W2        1583            0.0000000000
      4749      1583  TIP3      H2             21.1032337182       -8.4159751097       -1.1620731047  W2        1583            0.0000000000
      4750      1584  TIP3      OH2            18.0779137182       -8.6615951097      -10.8051331047  W2        1584            0.0000000000
      4751      1584  TIP3      H1             17.8060037182       -8.4324951097      -11.6938431047  W2        1584            0.0000000000
      4752      1584  TIP3      H2             18.1234837182       -7.8237151097      -10.3446031047  W2        1584            0.0000000000
      4753      1585  TIP3      OH2            31.7028837182       -7.0400051097       -4.0922831047  W2        1585            0.0000000000
      4754      1585  TIP3      H1             30.7612537182       -6.9816151097       -3.9305931047  W2        1585            0.0000000000
      4755      1585  TIP3      H2             31.9794937182       -6.1339551097       -4.2293131047  W2        1585            0.0000000000
      4756      1586  TIP3      OH2            32.0035837182      -18.7534751097       -2.6748931047  W2        1586            0.0000000000
      4757      1586  TIP3      H1             31.2675037182      -18.1427651097       -2.7127631047  W2        1586            0.0000000000
      4758      1586  TIP3      H2             32.6869837182      -18.3385751097       -3.2012531047  W2        1586            0.0000000000
      4759      1587  TIP3      OH2            25.0067237182      -20.6667451097       -5.2090931047  W2        1587            0.0000000000
      4760      1587  TIP3      H1             24.8891437182      -21.6151451097       -5.2632631047  W2        1587            0.0000000000
      4761      1587  TIP3      H2             24.1517337182      -20.3341351097       -4.9359831047  W2        1587            0.0000000000
      4762      1588  TIP3      OH2            29.9550037182       -5.2586551097       -7.4671231047  W2        1588            0.0000000000
      4763      1588  TIP3      H1             30.3802337182       -5.9658651097       -7.9521631047  W2        1588            0.0000000000
      4764      1588  TIP3      H2             30.2720037182       -4.4573851097       -7.8839031047  W2        1588            0.0000000000
      4765      1589  TIP3      OH2            31.1146537182       -7.3578051097       -8.9584631047  W2        1589            0.0000000000
      4766      1589  TIP3      H1             30.8571337182       -8.0477951097       -9.5698731047  W2        1589            0.0000000000
      4767      1589  TIP3      H2             31.1857337182       -7.8006851097       -8.1128731047  W2        1589            0.0000000000
      4768      1590  TIP3      OH2            32.8006737182       -8.7911351097       -0.4811131047  W2        1590            0.0000000000
      4769      1590  TIP3      H1             32.9403037182       -9.3828851097       -1.2204131047  W2        1590            0.0000000000
      4770      1590  TIP3      H2             32.9679537182       -7.9185451097       -0.8372331047  W2        1590            0.0000000000
      4771      1591  TIP3      OH2            27.2732137182      -11.8291851097      -10.7085131047  W2        1591            0.0000000000
      4772      1591  TIP3      H1             26.5617637182      -11.2942151097      -11.0604631047  W2        1591            0.0000000000
      4773      1591  TIP3      H2             27.9641737182      -11.7739751097      -11.3686231047  W2        1591            0.0000000000
      4774      1592  TIP3      OH2            27.3271337182      -13.3717551097      -13.6700131047  W2        1592            0.0000000000
      4775      1592  TIP3      H1             28.0281237182      -13.3490651097      -13.0186131047  W2        1592            0.0000000000
      4776      1592  TIP3      H2             27.6294237182      -13.9997851097      -14.3260831047  W2        1592            0.0000000000
      4777      1593  TIP3      OH2            34.6426037182      -12.4513351097       -2.4150731047  W2        1593            0.0000000000
      4778      1593  TIP3      H1             33.9900137182      -11.7567751097       -2.3259831047  W2        1593            0.0000000000
      4779      1593  TIP3      H2             35.1076337182      -12.2412451097       -3.2249131047  W2        1593            0.0000000000
      4780      1594  TIP3      OH2            30.6789837182      -11.6198551097       -9.7569231047  W2        1594            0.0000000000
      4781      1594  TIP3      H1             29.9470837182      -11.3914851097       -9.1838631047  W2        1594            0.0000000000
      4782      1594  TIP3      H2             31.1262037182      -12.3335851097       -9.3021731047  W2        1594            0.0000000000
      4783      1595  TIP3      OH2            30.5763337182      -13.4455951097       -0.6892231047  W2        1595            0.0000000000
      4784      1595  TIP3      H1             30.6562437182      -12.6821551097       -0.1173731047  W2        1595            0.0000000000
      4785      1595  TIP3      H2             29.9751037182      -13.1663551097       -1.3797131047  W2        1595            0.0000000000
      4786      1596  TIP3      OH2            22.3243537182      -10.9892351097       -7.8744231047  W2        1596            0.0000000000
      4787      1596  TIP3      H1             21.9938737182      -11.3598951097       -8.6927231047  W2        1596            0.0000000000
      4788      1596  TIP3      H2             22.9127637182      -11.6598351097       -7.5275931047  W2        1596            0.0000000000
      4789      1597  TIP3      OH2            23.6911037182       -7.5611751097       -5.1932031047  W2        1597            0.0000000000
      4790      1597  TIP3      H1             23.5962337182       -8.1398651097       -5.9497431047  W2        1597            0.0000000000
      4791      1597  TIP3      H2             24.4204637182       -7.9326051097       -4.6969231047  W2        1597            0.0000000000
      4792      1598  TIP3      OH2            22.6909037182      -12.2206751097       -4.2409231047  W2        1598            0.0000000000
      4793      1598  TIP3      H1             23.2561537182      -12.0992551097       -5.0038031047  W2        1598            0.0000000000
      4794      1598  TIP3      H2             23.0097937182      -11.5831751097       -3.6020731047  W2        1598            0.0000000000
      4795      1599  TIP3      OH2            29.0001237182       -6.7174851097       -3.5068731047  W2        1599            0.0000000000
      4796      1599  TIP3      H1             28.7597837182       -6.0551751097       -2.8589531047  W2        1599            0.0000000000
      4797      1599  TIP3      H2             28.8019437182       -7.5519651097       -3.0819131047  W2        1599            0.0000000000
      4798      1600  TIP3      OH2            23.5709737182       -7.8214051097        0.4762668953  W2        1600            0.0000000000
      4799      1600  TIP3      H1             23.2597237182       -7.0390851097        0.9315868953  W2        1600            0.0000000000
      4800      1600  TIP3      H2             22.9209937182       -7.9744951097       -0.2095331047  W2        1600            0.0000000000
      4801      1601  TIP3      OH2            29.5499337182      -12.4575651097      -12.0718031047  W2        1601            0.0000000000
      4802      1601  TIP3      H1             30.1294837182      -12.3075351097      -11.3249131047  W2        1601            0.0000000000
      4803      1601  TIP3      H2             29.9639337182      -11.9868251097      -12.7951631047  W2        1601            0.0000000000
      4804      1602  TIP3      OH2            20.4909637182      -11.6232951097       -0.2951631047  W2        1602            0.0000000000
      4805      1602  TIP3      H1             20.5612837182      -10.9726151097        0.4033368953  W2        1602            0.0000000000
      4806      1602  TIP3      H2             19.6001837182      -11.5205451097       -0.6300731047  W2        1602            0.0000000000
      4807      1603  TIP3      OH2            27.2764237182       -5.7207151097       -8.6364931047  W2        1603            0.0000000000
      4808      1603  TIP3      H1             27.7501837182       -5.4250851097       -7.8590731047  W2        1603            0.0000000000
      4809      1603  TIP3      H2             26.7133537182       -4.9825551097       -8.8695331047  W2        1603            0.0000000000
      4810      1604  TIP3      OH2            21.8105637182       -5.7499051097        1.2396468953  W2        1604            0.0000000000
      4811      1604  TIP3      H1             21.8180937182       -5.8859351097        0.2921968953  W2        1604            0.0000000000
      4812      1604  TIP3      H2             20.8946037182       -5.8670951097        1.4916468953  W2        1604            0.0000000000
      4813      1605  TIP3      OH2            33.2487737182      -20.7075251097      -12.2588331047  W2        1605            0.0000000000
      4814      1605  TIP3      H1             32.3488437182      -20.5686251097      -11.9637731047  W2        1605            0.0000000000
      4815      1605  TIP3      H2             33.5006137182      -19.8760651097      -12.6606631047  W2        1605            0.0000000000
      4816      1606  TIP3      OH2            21.3146237182      -11.9198051097      -10.2851431047  W2        1606            0.0000000000
      4817      1606  TIP3      H1             21.0227537182      -11.1516351097      -10.7760131047  W2        1606            0.0000000000
      4818      1606  TIP3      H2             20.6401437182      -12.5791851097      -10.4480031047  W2        1606            0.0000000000
      4819      1607  TIP3      OH2            34.4379137182       -6.3412851097      -13.8824431047  W2        1607            0.0000000000
      4820      1607  TIP3      H1             34.5112637182       -5.4022651097      -13.7119131047  W2        1607            0.0000000000
      4821      1607  TIP3      H2             35.3434237182       -6.6464251097      -13.9387131047  W2        1607            0.0000000000
      4822      1608  TIP3      OH2            17.4076337182       -9.5568851097       -1.4701631047  W2        1608            0.0000000000
      4823      1608  TIP3      H1             16.9064737182       -9.5849451097       -2.2851931047  W2        1608            0.0000000000
      4824      1608  TIP3      H2             17.4130037182      -10.4625651097       -1.1604331047  W2        1608            0.0000000000
      4825      1609  TIP3      OH2            17.1579037182       -6.7765051097       -4.5861431047  W2        1609            0.0000000000
      4826      1609  TIP3      H1             18.1039637182       -6.9208051097       -4.6051931047  W2        1609            0.0000000000
      4827      1609  TIP3      H2             17.0455337182       -5.9922251097       -4.0490231047  W2        1609            0.0000000000
      4828      1610  TIP3      OH2            35.3557537182       -6.1105351097        1.0962268953  W2        1610            0.0000000000
      4829      1610  TIP3      H1             35.3064337182       -7.0657251097        1.0589868953  W2        1610            0.0000000000
      4830      1610  TIP3      H2             34.5289837182       -5.8430051097        1.4976068953  W2        1610            0.0000000000
      4831      1611  TIP3      OH2            26.3341537182       -6.5366151097       -0.0276331047  W2        1611            0.0000000000
      4832      1611  TIP3      H1             26.4216137182       -5.7101551097        0.4472768953  W2        1611            0.0000000000
      4833      1611  TIP3      H2             25.4706637182       -6.8662351097        0.2212968953  W2        1611            0.0000000000
      4834      1612  TIP3      OH2            26.7487337182       -2.7642451097      -10.2215731047  W2        1612            0.0000000000
      4835      1612  TIP3      H1             26.6733337182       -2.8855251097      -11.1680531047  W2        1612            0.0000000000
      4836      1612  TIP3      H2             26.7816037182       -1.8149751097      -10.1031131047  W2        1612            0.0000000000
      4837      1613  TIP3      OH2            20.4021137182       -3.9755451097       -8.4406731047  W2        1613            0.0000000000
      4838      1613  TIP3      H1             20.5541537182       -4.3235051097       -7.5620231047  W2        1613            0.0000000000
      4839      1613  TIP3      H2             19.5511537182       -4.3318151097       -8.6959531047  W2        1613            0.0000000000
      4840      1614  TIP3      OH2            29.8503337182       -3.6102251097      -13.2193331047  W2        1614            0.0000000000
      4841      1614  TIP3      H1             30.2251737182       -4.3546151097      -13.6900731047  W2        1614            0.0000000000
      4842      1614  TIP3      H2             29.8547037182       -3.8801651097      -12.3010031047  W2        1614            0.0000000000
      4843      1615  TIP3      OH2            29.5191437182       -3.6845151097      -10.4701131047  W2        1615            0.0000000000
      4844      1615  TIP3      H1             28.5841237182       -3.5843251097      -10.2914131047  W2        1615            0.0000000000
      4845      1615  TIP3      H2             29.7993337182       -4.3939151097       -9.8917931047  W2        1615            0.0000000000
      4846      1616  TIP3      OH2            32.5077337182      -14.6172851097        1.5764468953  W2        1616            0.0000000000
      4847      1616  TIP3      H1             32.1004137182      -14.1367251097        0.8557768953  W2        1616            0.0000000000
      4848      1616  TIP3      H2             32.5483037182      -15.5226851097        1.2685268953  W2        1616            0.0000000000
      4849      1617  TIP3      OH2            19.6566837182       -8.2333451097       -0.4268831047  W2        1617            0.0000000000
      4850      1617  TIP3      H1             19.8728137182       -8.5947851097        0.4326968953  W2        1617            0.0000000000
      4851      1617  TIP3      H2             18.8011537182       -8.6079651097       -0.6365331047  W2        1617            0.0000000000
      4852      1618  TIP3      OH2            22.2754837182      -19.7632951097       -4.4314631047  W2        1618            0.0000000000
      4853      1618  TIP3      H1             21.4138537182      -19.8504751097       -4.8391731047  W2        1618            0.0000000000
      4854      1618  TIP3      H2             22.2530537182      -18.9072851097       -4.0037031047  W2        1618            0.0000000000
      4855      1619  TIP3      OH2            26.9382637182      -20.0412551097       -1.0567631047  W2        1619            0.0000000000
      4856      1619  TIP3      H1             27.3585737182      -20.4565451097       -0.3037031047  W2        1619            0.0000000000
      4857      1619  TIP3      H2             26.0052237182      -20.2199251097       -0.9395631047  W2        1619            0.0000000000
      4858      1620  TIP3      OH2            30.2647537182      -16.2857351097       -0.2033131047  W2        1620            0.0000000000
      4859      1620  TIP3      H1             29.7507037182      -16.4115151097        0.5942868953  W2        1620            0.0000000000
      4860      1620  TIP3      H2             30.1092237182      -15.3734251097       -0.4476931047  W2        1620            0.0000000000
      4861      1621  TIP3      OH2            31.0272437182      -11.4247351097      -14.4420131047  W2        1621            0.0000000000
      4862      1621  TIP3      H1             31.0693237182      -11.6473451097      -15.3720131047  W2        1621            0.0000000000
      4863      1621  TIP3      H2             31.8764537182      -11.0260251097      -14.2520231047  W2        1621            0.0000000000
      4864      1622  TIP3      OH2            26.5999937182      -17.5489151097      -13.7716831047  W2        1622            0.0000000000
      4865      1622  TIP3      H1             26.3464737182      -17.5297551097      -12.8488731047  W2        1622            0.0000000000
      4866      1622  TIP3      H2             26.3432037182      -18.4203751097      -14.0730631047  W2        1622            0.0000000000
      4867      1623  TIP3      OH2            22.3664937182      -14.7978451097       -3.3364431047  W2        1623            0.0000000000
      4868      1623  TIP3      H1             21.7247037182      -14.8381151097       -2.6274331047  W2        1623            0.0000000000
      4869      1623  TIP3      H2             22.4036937182      -13.8713751097       -3.5741431047  W2        1623            0.0000000000
      4870      1624  TIP3      OH2            22.3634037182      -14.5768351097       -8.4244431047  W2        1624            0.0000000000
      4871      1624  TIP3      H1             21.4706937182      -14.9172251097       -8.4830631047  W2        1624            0.0000000000
      4872      1624  TIP3      H2             22.8140637182      -14.9537451097       -9.1801231047  W2        1624            0.0000000000
      4873      1625  TIP3      OH2            27.8989537182      -14.1608051097       -9.6073631047  W2        1625            0.0000000000
      4874      1625  TIP3      H1             27.4899837182      -13.3459451097       -9.8988831047  W2        1625            0.0000000000
      4875      1625  TIP3      H2             28.6195737182      -14.3007951097      -10.2216531047  W2        1625            0.0000000000
      4876      1626  TIP3      OH2            27.0011137182      -13.9851651097        1.8807068953  W2        1626            0.0000000000
      4877      1626  TIP3      H1             26.4384937182      -14.6900051097        2.2014868953  W2        1626            0.0000000000
      4878      1626  TIP3      H2             27.8274537182      -14.1059751097        2.3484668953  W2        1626            0.0000000000
      4879      1627  TIP3      OH2            28.9037237182      -14.7147651097       -6.7933931047  W2        1627            0.0000000000
      4880      1627  TIP3      H1             28.7081737182      -14.1090851097       -7.5083331047  W2        1627            0.0000000000
      4881      1627  TIP3      H2             29.0849837182      -15.5482451097       -7.2277631047  W2        1627            0.0000000000
      4882      1628  TIP3      OH2            20.1165437182      -14.4774951097       -1.4692431047  W2        1628            0.0000000000
      4883      1628  TIP3      H1             20.0784837182      -14.0773351097       -0.6005331047  W2        1628            0.0000000000
      4884      1628  TIP3      H2             19.6256537182      -15.2942551097       -1.3789531047  W2        1628            0.0000000000
      4885      1629  TIP3      OH2            23.4822837182      -17.1032651097      -14.6706431047  W2        1629            0.0000000000
      4886      1629  TIP3      H1             23.0513537182      -17.5482551097      -13.9409031047  W2        1629            0.0000000000
      4887      1629  TIP3      H2             22.7641537182      -16.7316351097      -15.1828931047  W2        1629            0.0000000000
      4888      1630  TIP3      OH2            16.7246237182      -17.3613151097       -7.6187731047  W2        1630            0.0000000000
      4889      1630  TIP3      H1             17.3553937182      -17.3901051097       -6.8993831047  W2        1630            0.0000000000
      4890      1630  TIP3      H2             17.1740537182      -17.7864451097       -8.3491831047  W2        1630            0.0000000000
      4891      1631  TIP3      OH2            17.9988337182      -16.6151151097      -12.1947331047  W2        1631            0.0000000000
      4892      1631  TIP3      H1             18.4730037182      -16.0241251097      -12.7796431047  W2        1631            0.0000000000
      4893      1631  TIP3      H2             17.2814737182      -16.0848251097      -11.8477231047  W2        1631            0.0000000000
      4894      1632  TIP3      OH2            28.1676437182      -13.0766351097       -2.1221531047  W2        1632            0.0000000000
      4895      1632  TIP3      H1             28.4911237182      -13.7076651097       -2.7651031047  W2        1632            0.0000000000
      4896      1632  TIP3      H2             27.7275737182      -13.6114151097       -1.4614131047  W2        1632            0.0000000000
      4897      1633  TIP3      OH2            24.9449337182      -17.1490851097       -7.3380331047  W2        1633            0.0000000000
      4898      1633  TIP3      H1             24.0340437182      -17.0924051097       -7.0494331047  W2        1633            0.0000000000
      4899      1633  TIP3      H2             25.4502237182      -17.2095351097       -6.5273131047  W2        1633            0.0000000000
      4900      1634  TIP3      OH2            19.7732737182      -15.5204551097       -8.5112731047  W2        1634            0.0000000000
      4901      1634  TIP3      H1             18.8840737182      -15.4209051097       -8.8513131047  W2        1634            0.0000000000
      4902      1634  TIP3      H2             20.0697637182      -16.3621551097       -8.8574831047  W2        1634            0.0000000000
      4903      1635  TIP3      OH2            23.4264537182      -15.5201951097      -10.8548131047  W2        1635            0.0000000000
      4904      1635  TIP3      H1             24.3580037182      -15.3911951097      -10.6765031047  W2        1635            0.0000000000
      4905      1635  TIP3      H2             23.2114837182      -14.8507651097      -11.5043431047  W2        1635            0.0000000000
      4906      1636  TIP3      OH2            29.3501237182      -17.9144551097       -4.0738531047  W2        1636            0.0000000000
      4907      1636  TIP3      H1             28.6732837182      -17.7831451097       -3.4098831047  W2        1636            0.0000000000
      4908      1636  TIP3      H2             28.8646137182      -18.0695051097       -4.8840831047  W2        1636            0.0000000000
      4909      1637  TIP3      OH2            22.1004737182      -14.3259751097      -13.2882031047  W2        1637            0.0000000000
      4910      1637  TIP3      H1             21.5579837182      -14.7055951097      -13.9794431047  W2        1637            0.0000000000
      4911      1637  TIP3      H2             22.9339637182      -14.1315051097      -13.7167931047  W2        1637            0.0000000000
      4912      1638  TIP3      OH2            32.6376337182       -2.2429151097        2.2029068953  W2        1638            0.0000000000
      4913      1638  TIP3      H1             32.8375037182       -1.8187251097        1.3684368953  W2        1638            0.0000000000
      4914      1638  TIP3      H2             33.2930037182       -1.8990951097        2.8099468953  W2        1638            0.0000000000
      4915      1639  TIP3      OH2            20.2356137182       -9.7687851097        1.8109568953  W2        1639            0.0000000000
      4916      1639  TIP3      H1             20.9678537182       -9.5141951097        2.3724068953  W2        1639            0.0000000000
      4917      1639  TIP3      H2             19.4554837182       -9.5642451097        2.3264968953  W2        1639            0.0000000000
      4918      1640  TIP3      OH2            26.2649037182      -14.3617851097       -5.4510731047  W2        1640            0.0000000000
      4919      1640  TIP3      H1             26.8292437182      -14.9081251097       -5.9981131047  W2        1640            0.0000000000
      4920      1640  TIP3      H2             26.1172437182      -14.8835951097       -4.6623131047  W2        1640            0.0000000000
      4921      1641  TIP3      OH2            21.2668737182      -18.2251751097       -9.0325931047  W2        1641            0.0000000000
      4922      1641  TIP3      H1             20.9498237182      -19.1276451097       -9.0680531047  W2        1641            0.0000000000
      4923      1641  TIP3      H2             22.0482837182      -18.2234351097       -9.5854331047  W2        1641            0.0000000000
      4924      1642  TIP3      OH2            24.8914937182      -15.9731751097       -3.0370331047  W2        1642            0.0000000000
      4925      1642  TIP3      H1             24.0560237182      -15.5192251097       -2.9267931047  W2        1642            0.0000000000
      4926      1642  TIP3      H2             25.4155537182      -15.6973251097       -2.2850431047  W2        1642            0.0000000000
      4927      1643  TIP3      OH2            25.4357537182       -9.7604051097      -11.3523931047  W2        1643            0.0000000000
      4928      1643  TIP3      H1             24.6908537182      -10.2678751097      -11.6746031047  W2        1643            0.0000000000
      4929      1643  TIP3      H2             25.3014737182       -9.7116051097      -10.4059131047  W2        1643            0.0000000000
      4930      1644  TIP3      OH2            32.5856437182      -10.6275851097       -2.5656331047  W2        1644            0.0000000000
      4931      1644  TIP3      H1             33.2275237182      -10.1709551097       -3.1094131047  W2        1644            0.0000000000
      4932      1644  TIP3      H2             31.7553337182      -10.5143451097       -3.0282231047  W2        1644            0.0000000000
      4933      1645  TIP3      OH2            29.3334337182      -16.9464151097      -13.1531331047  W2        1645            0.0000000000
      4934      1645  TIP3      H1             28.3948537182      -16.8348551097      -13.3042531047  W2        1645            0.0000000000
      4935      1645  TIP3      H2             29.6306437182      -16.0897251097      -12.8465631047  W2        1645            0.0000000000
      4936      1646  TIP3      OH2            26.9549637182       -9.5760751097       -0.1154831047  W2        1646            0.0000000000
      4937      1646  TIP3      H1             26.6095737182       -9.9578351097        0.6914768953  W2        1646            0.0000000000
      4938      1646  TIP3      H2             26.7549737182       -8.6427151097       -0.0441931047  W2        1646            0.0000000000
      4939      1647  TIP3      OH2            30.0517837182      -15.0791451097      -11.4923931047  W2        1647            0.0000000000
      4940      1647  TIP3      H1             30.9436837182      -15.2166451097      -11.1732731047  W2        1647            0.0000000000
      4941      1647  TIP3      H2             30.1081437182      -14.2885351097      -12.0290431047  W2        1647            0.0000000000
      4942      1648  TIP3      OH2            20.5605837182      -10.4654051097       -5.5826031047  W2        1648            0.0000000000
      4943      1648  TIP3      H1             21.3053037182      -10.4678351097       -6.1839531047  W2        1648            0.0000000000
      4944      1648  TIP3      H2             20.6382437182      -11.2890251097       -5.1010931047  W2        1648            0.0000000000
      4945      1649  TIP3      OH2            27.5611637182       -8.3019751097      -12.3269331047  W2        1649            0.0000000000
      4946      1649  TIP3      H1             27.2660037182       -7.4751851097      -11.9454531047  W2        1649            0.0000000000
      4947      1649  TIP3      H2             26.8581637182       -8.9212851097      -12.1307931047  W2        1649            0.0000000000
      4948      1650  TIP3      OH2            17.5685537182      -12.0047151097       -0.2677531047  W2        1650            0.0000000000
      4949      1650  TIP3      H1             17.7914137182      -12.4227551097        0.5639968953  W2        1650            0.0000000000
      4950      1650  TIP3      H2             16.9665637182      -12.6172151097       -0.6904731047  W2        1650            0.0000000000
      4951      1651  TIP3      OH2            24.5850437182      -12.4877251097        1.9452168953  W2        1651            0.0000000000
      4952      1651  TIP3      H1             24.2891237182      -12.6534251097        1.0501268953  W2        1651            0.0000000000
      4953      1651  TIP3      H2             25.5165637182      -12.7076951097        1.9346068953  W2        1651            0.0000000000
      4954      1652  TIP3      OH2            29.2053237182       -7.1145251097       -0.1649831047  W2        1652            0.0000000000
      4955      1652  TIP3      H1             28.3047537182       -6.9312651097       -0.4325931047  W2        1652            0.0000000000
      4956      1652  TIP3      H2             29.2394337182       -6.8555951097        0.7558968953  W2        1652            0.0000000000
      4957      1653  TIP3      OH2            34.9366537182      -14.8697351097      -11.7977231047  W2        1653            0.0000000000
      4958      1653  TIP3      H1             34.3822837182      -15.2659351097      -12.4699731047  W2        1653            0.0000000000
      4959      1653  TIP3      H2             35.0370137182      -13.9592151097      -12.0753931047  W2        1653            0.0000000000
      4960      1654  TIP3      OH2            34.8998537182       -9.0695651097        1.0394268953  W2        1654            0.0000000000
      4961      1654  TIP3      H1             34.0487037182       -8.8311851097        0.6720668953  W2        1654            0.0000000000
      4962      1654  TIP3      H2             35.4901937182       -9.0862451097        0.2861368953  W2        1654            0.0000000000
      4963      1655  TIP3      OH2            33.2318237182       -6.0836951097      -11.3325131047  W2        1655            0.0000000000
      4964      1655  TIP3      H1             32.8589337182       -6.9093151097      -11.0234531047  W2        1655            0.0000000000
      4965      1655  TIP3      H2             33.5091737182       -6.2667551097      -12.2301731047  W2        1655            0.0000000000
      4966      1656  TIP3      OH2            30.3922137182      -11.2757451097       -4.3113231047  W2        1656            0.0000000000
      4967      1656  TIP3      H1             29.4639037182      -11.5075551097       -4.3383931047  W2        1656            0.0000000000
      4968      1656  TIP3      H2             30.8433237182      -12.0527651097       -4.6414431047  W2        1656            0.0000000000
      4969      1657  TIP3      OH2            22.9355237182       -6.9475851097       -8.1784531047  W2        1657            0.0000000000
      4970      1657  TIP3      H1             23.4627437182       -6.1741451097       -8.3785731047  W2        1657            0.0000000000
      4971      1657  TIP3      H2             22.0553737182       -6.7226651097       -8.4800531047  W2        1657            0.0000000000
      4972      1658  TIP3      OH2            18.6902937182      -12.0851751097      -13.5912131047  W2        1658            0.0000000000
      4973      1658  TIP3      H1             19.3062837182      -11.4584551097      -13.2117331047  W2        1658            0.0000000000
      4974      1658  TIP3      H2             17.8285537182      -11.7691951097      -13.3195631047  W2        1658            0.0000000000
      4975      1659  TIP3      OH2            24.3627537182       -9.2845951097       -8.6020231047  W2        1659            0.0000000000
      4976      1659  TIP3      H1             24.1217537182       -8.3591551097       -8.5604931047  W2        1659            0.0000000000
      4977      1659  TIP3      H2             23.6221137182       -9.7434651097       -8.2056331047  W2        1659            0.0000000000
      4978      1660  TIP3      OH2            24.8774137182       -5.1352351097       -2.2869131047  W2        1660            0.0000000000
      4979      1660  TIP3      H1             25.2398837182       -4.2806751097       -2.5204731047  W2        1660            0.0000000000
      4980      1660  TIP3      H2             25.4089337182       -5.4270751097       -1.5462831047  W2        1660            0.0000000000
      4981      1661  TIP3      OH2            23.0458337182       -4.2628351097       -9.0568031047  W2        1661            0.0000000000
      4982      1661  TIP3      H1             22.0958837182       -4.1570951097       -9.0054731047  W2        1661            0.0000000000
      4983      1661  TIP3      H2             23.3976437182       -3.4420951097       -8.7120531047  W2        1661            0.0000000000
      4984      1662  TIP3      OH2            28.4214937182       -9.0361651097       -2.5863531047  W2        1662            0.0000000000
      4985      1662  TIP3      H1             27.9956237182       -9.2639951097       -1.7599531047  W2        1662            0.0000000000
      4986      1662  TIP3      H2             29.0020737182       -9.7749851097       -2.7688231047  W2        1662            0.0000000000
      4987      1663  TIP3      OH2            30.6243837182       -8.1071151097      -13.5124531047  W2        1663            0.0000000000
      4988      1663  TIP3      H1             30.9776937182       -8.4871351097      -12.7081031047  W2        1663            0.0000000000
      4989      1663  TIP3      H2             29.6757337182       -8.2006351097      -13.4255231047  W2        1663            0.0000000000
      4990      1664  TIP3      OH2            31.0799137182       -4.4842151097       -0.1168731047  W2        1664            0.0000000000
      4991      1664  TIP3      H1             30.4782337182       -5.0399251097       -0.6122431047  W2        1664            0.0000000000
      4992      1664  TIP3      H2             31.3612837182       -3.8172351097       -0.7431331047  W2        1664            0.0000000000
      4993      1665  TIP3      OH2            35.1278237182       -3.6278651097      -13.3114331047  W2        1665            0.0000000000
      4994      1665  TIP3      H1             35.8716137182       -3.0418151097      -13.4512731047  W2        1665            0.0000000000
      4995      1665  TIP3      H2             34.4336337182       -3.0592851097      -12.9781931047  W2        1665            0.0000000000
      4996      1666  TIP3      OH2            19.2025037182      -17.2514451097       -0.7096131047  W2        1666            0.0000000000
      4997      1666  TIP3      H1             18.3097337182      -16.9129051097       -0.7772131047  W2        1666            0.0000000000
      4998      1666  TIP3      H2             19.1037837182      -18.1068351097       -0.2915331047  W2        1666            0.0000000000
      4999      1667  TIP3      OH2            31.4903137182       -9.4349151097      -11.2856631047  W2        1667            0.0000000000
      5000      1667  TIP3      H1             31.2130737182      -10.1629851097      -10.7295531047  W2        1667            0.0000000000
      5001      1667  TIP3      H2             32.4176137182       -9.3157151097      -11.0804031047  W2        1667            0.0000000000
      5002      1668  TIP3      OH2            18.8537037182       -5.4470051097       -2.2746731047  W2        1668            0.0000000000
      5003      1668  TIP3      H1             19.0707337182       -6.3787651097       -2.3057031047  W2        1668            0.0000000000
      5004      1668  TIP3      H2             19.1000537182       -5.1725051097       -1.3913931047  W2        1668            0.0000000000
      5005      1669  TIP3      OH2            24.7151637182       -6.9955051097      -15.0654531047  W2        1669            0.0000000000
      5006      1669  TIP3      H1             24.9541437182       -7.7436951097      -15.6125631047  W2        1669            0.0000000000
      5007      1669  TIP3      H2             24.4462937182       -7.3833351097      -14.2326731047  W2        1669            0.0000000000
      5008      1670  TIP3      OH2            23.6522237182       -7.4251251097      -12.6091931047  W2        1670            0.0000000000
      5009      1670  TIP3      H1             23.7990237182       -7.9451451097      -11.8191031047  W2        1670            0.0000000000
      5010      1670  TIP3      H2             23.6493937182       -6.5183651097      -12.3026031047  W2        1670            0.0000000000
      5011      1671  TIP3      OH2            20.1053337182      -10.1727951097      -12.0986531047  W2        1671            0.0000000000
      5012      1671  TIP3      H1             19.4192637182       -9.8205451097      -11.5316831047  W2        1671            0.0000000000
      5013      1671  TIP3      H2             20.6281237182       -9.4098351097      -12.3452231047  W2        1671            0.0000000000
      5014      1672  TIP3      OH2            27.9368437182      -17.5104151097       -1.8197531047  W2        1672            0.0000000000
      5015      1672  TIP3      H1             28.6356337182      -17.4365451097       -1.1697831047  W2        1672            0.0000000000
      5016      1672  TIP3      H2             27.5559837182      -18.3749151097       -1.6654631047  W2        1672            0.0000000000
      5017      1673  TIP3      OH2            28.7213337182      -17.8582451097      -10.7225231047  W2        1673            0.0000000000
      5018      1673  TIP3      H1             28.9411637182      -17.3867051097      -11.5259831047  W2        1673            0.0000000000
      5019      1673  TIP3      H2             29.2797337182      -17.4639851097      -10.0524631047  W2        1673            0.0000000000
      5020      1674  TIP3      OH2            26.3899437182       -5.7277651097      -11.8597731047  W2        1674            0.0000000000
      5021      1674  TIP3      H1             25.5735537182       -5.2307951097      -11.8073431047  W2        1674            0.0000000000
      5022      1674  TIP3      H2             26.9195737182       -5.2524151097      -12.4998931047  W2        1674            0.0000000000
      5023      1675  TIP3      OH2            25.9213237182      -16.1303651097       -9.8876831047  W2        1675            0.0000000000
      5024      1675  TIP3      H1             26.7335837182      -15.6260451097       -9.8415131047  W2        1675            0.0000000000
      5025      1675  TIP3      H2             25.6766237182      -16.2753951097       -8.9737231047  W2        1675            0.0000000000
      5026      1676  TIP3      OH2            26.4569637182      -15.1440951097       -0.7030231047  W2        1676            0.0000000000
      5027      1676  TIP3      H1             26.5759937182      -14.5705551097        0.0540168953  W2        1676            0.0000000000
      5028      1676  TIP3      H2             27.1124237182      -15.8321551097       -0.5882431047  W2        1676            0.0000000000
      5029      1677  TIP3      OH2            26.8049937182      -19.0490651097       -8.9495731047  W2        1677            0.0000000000
      5030      1677  TIP3      H1             26.4583437182      -18.4320051097       -8.3051431047  W2        1677            0.0000000000
      5031      1677  TIP3      H2             27.4636837182      -18.5484951097       -9.4310231047  W2        1677            0.0000000000
      5032      1678  TIP3      OH2            23.7282537182       -4.6840451097      -11.8780831047  W2        1678            0.0000000000
      5033      1678  TIP3      H1             23.8891237182       -3.8842951097      -12.3788231047  W2        1678            0.0000000000
      5034      1678  TIP3      H2             23.5310337182       -4.3774451097      -10.9930231047  W2        1678            0.0000000000
      5035      1679  TIP3      OH2            22.4626937182      -17.9861251097      -12.2623231047  W2        1679            0.0000000000
      5036      1679  TIP3      H1             22.3791737182      -17.0978151097      -11.9156831047  W2        1679            0.0000000000
      5037      1679  TIP3      H2             23.3527237182      -18.2514551097      -12.0306431047  W2        1679            0.0000000000
      5038      1680  TIP3      OH2            32.6615437182      -17.2370651097        0.1319468953  W2        1680            0.0000000000
      5039      1680  TIP3      H1             31.7451237182      -16.9748951097        0.0443168953  W2        1680            0.0000000000
      5040      1680  TIP3      H2             32.9970437182      -17.2401651097       -0.7645231047  W2        1680            0.0000000000
      5041      1681  TIP3      OH2            31.2636437182      -13.4869651097       -5.7723231047  W2        1681            0.0000000000
      5042      1681  TIP3      H1             30.4660837182      -13.9019451097       -6.1008231047  W2        1681            0.0000000000
      5043      1681  TIP3      H2             31.7087537182      -14.1775951097       -5.2812731047  W2        1681            0.0000000000
      5044      1682  TIP3      OH2            20.7212237182       -7.5589051097      -13.2018731047  W2        1682            0.0000000000
      5045      1682  TIP3      H1             21.3133737182       -6.8594251097      -12.9256331047  W2        1682            0.0000000000
      5046      1682  TIP3      H2             21.1805237182       -7.9919551097      -13.9214131047  W2        1682            0.0000000000
      5047      1683  TIP3      OH2            19.0371437182      -14.8946051097      -14.0859331047  W2        1683            0.0000000000
      5048      1683  TIP3      H1             18.9924037182      -13.9552951097      -13.9072331047  W2        1683            0.0000000000
      5049      1683  TIP3      H2             18.1494637182      -15.1301151097      -14.3557231047  W2        1683            0.0000000000
      5050      1684  TIP3      OH2            32.3501037182       -4.2307151097       -4.1499731047  W2        1684            0.0000000000
      5051      1684  TIP3      H1             32.1945337182       -3.5522751097       -4.8070431047  W2        1684            0.0000000000
      5052      1684  TIP3      H2             33.2827437182       -4.1587851097       -3.9469131047  W2        1684            0.0000000000
      5053      1685  TIP3      OH2            19.8453437182      -20.1129451097       -5.4128331047  W2        1685            0.0000000000
      5054      1685  TIP3      H1             19.6163237182      -20.0536951097       -6.3403331047  W2        1685            0.0000000000
      5055      1685  TIP3      H2             19.4026837182      -20.9043951097       -5.1064231047  W2        1685            0.0000000000
      5056      1686  TIP3      OH2            18.7756737182       -6.1722351097       -9.2522531047  W2        1686            0.0000000000
      5057      1686  TIP3      H1             17.9435337182       -5.6999651097       -9.2251131047  W2        1686            0.0000000000
      5058      1686  TIP3      H2             19.3215037182       -5.6624751097       -9.8509431047  W2        1686            0.0000000000
      5059      1687  TIP3      OH2            18.0640437182       -3.5598651097        2.0775468953  W2        1687            0.0000000000
      5060      1687  TIP3      H1             18.6042637182       -3.7764651097        2.8374668953  W2        1687            0.0000000000
      5061      1687  TIP3      H2             17.5828437182       -4.3652651097        1.8877968953  W2        1687            0.0000000000
      5062      1688  TIP3      OH2            22.6613837182       -4.6404251097        3.6979668953  W2        1688            0.0000000000
      5063      1688  TIP3      H1             23.4291037182       -5.0993451097        4.0388868953  W2        1688            0.0000000000
      5064      1688  TIP3      H2             22.6400037182       -4.8664451097        2.7680868953  W2        1688            0.0000000000
      5065      1689  TIP3      OH2            26.7533437182       -5.1323651097      -14.9268531047  W2        1689            0.0000000000
      5066      1689  TIP3      H1             26.1094437182       -5.7635051097      -14.6054831047  W2        1689            0.0000000000
      5067      1689  TIP3      H2             27.5151737182       -5.6635651097      -15.1585031047  W2        1689            0.0000000000
      5068      1690  TIP3      OH2            29.2382537182       -6.2603151097        2.4271168953  W2        1690            0.0000000000
      5069      1690  TIP3      H1             28.8872037182       -7.1170151097        2.6701568953  W2        1690            0.0000000000
      5070      1690  TIP3      H2             29.9645737182       -6.1176451097        3.0340168953  W2        1690            0.0000000000
      5071      1691  TIP3      OH2            31.3576337182       -5.3153751097      -14.6930531047  W2        1691            0.0000000000
      5072      1691  TIP3      H1             31.6406737182       -6.1098551097      -14.2403631047  W2        1691            0.0000000000
      5073      1691  TIP3      H2             32.0974237182       -5.0822751097      -15.2539431047  W2        1691            0.0000000000
      5074      1692  TIP3      OH2            17.9709937182       -9.7494551097        3.0319768953  W2        1692            0.0000000000
      5075      1692  TIP3      H1             18.1150437182      -10.6513851097        2.7456468953  W2        1692            0.0000000000
      5076      1692  TIP3      H2             17.1987337182       -9.4632451097        2.5442068953  W2        1692            0.0000000000
      5077      1693  TIP3      OH2            22.3123637182       -9.4058851097      -14.8355631047  W2        1693            0.0000000000
      5078      1693  TIP3      H1             22.3767737182      -10.1999251097      -14.3049231047  W2        1693            0.0000000000
      5079      1693  TIP3      H2             22.9652837182       -9.5246051097      -15.5253631047  W2        1693            0.0000000000
      5080      1694  TIP3      OH2            24.6266037182       -9.7796451097        2.4646168953  W2        1694            0.0000000000
      5081      1694  TIP3      H1             24.2979837182       -9.5088351097        1.6073568953  W2        1694            0.0000000000
      5082      1694  TIP3      H2             24.7784237182      -10.7206651097        2.3771168953  W2        1694            0.0000000000
      5083      1695  TIP3      OH2            27.6647037182       -8.3587151097      -15.0997631047  W2        1695            0.0000000000
      5084      1695  TIP3      H1             27.3961137182       -8.1785051097      -14.1988731047  W2        1695            0.0000000000
      5085      1695  TIP3      H2             27.4582637182       -9.2840951097      -15.2311831047  W2        1695            0.0000000000
      5086      1696  TIP3      OH2            30.3611237182       -9.8639151097       -0.1521531047  W2        1696            0.0000000000
      5087      1696  TIP3      H1             31.1066037182       -9.2755451097       -0.2717531047  W2        1696            0.0000000000
      5088      1696  TIP3      H2             29.6038037182       -9.2819451097       -0.0888431047  W2        1696            0.0000000000
      5089      1697  TIP3      OH2            18.8036437182      -12.5491251097        2.4519068953  W2        1697            0.0000000000
      5090      1697  TIP3      H1             19.2117637182      -13.4064651097        2.3309668953  W2        1697            0.0000000000
      5091      1697  TIP3      H2             18.5434037182      -12.5349951097        3.3729368953  W2        1697            0.0000000000
      5092      1698  TIP3      OH2            23.4617437182      -11.4332651097      -12.5297631047  W2        1698            0.0000000000
      5093      1698  TIP3      H1             23.0019437182      -11.9174351097      -11.8439131047  W2        1698            0.0000000000
      5094      1698  TIP3      H2             23.7166137182      -12.1017251097      -13.1657131047  W2        1698            0.0000000000
      5095      1699  TIP3      OH2            22.7506737182      -13.5405551097       -0.1738031047  W2        1699            0.0000000000
      5096      1699  TIP3      H1             22.1322837182      -12.8658951097        0.1066668953  W2        1699            0.0000000000
      5097      1699  TIP3      H2             23.0947937182      -13.2191651097       -1.0071831047  W2        1699            0.0000000000
      5098      1700  TIP3      OH2            24.5327837182      -13.1900851097      -14.2674431047  W2        1700            0.0000000000
      5099      1700  TIP3      H1             24.3522837182      -13.3449651097      -15.1946131047  W2        1700            0.0000000000
      5100      1700  TIP3      H2             25.4828337182      -13.0822151097      -14.2226531047  W2        1700            0.0000000000
      5101      1701  TIP3      OH2            27.7704937182      -11.0690251097        3.1036768953  W2        1701            0.0000000000
      5102      1701  TIP3      H1             28.7236137182      -10.9851151097        3.0762768953  W2        1701            0.0000000000
      5103      1701  TIP3      H2             27.6099537182      -11.7808451097        3.7231668953  W2        1701            0.0000000000
      5104      1702  TIP3      OH2            33.9226137182      -10.8356651097      -14.8216331047  W2        1702            0.0000000000
      5105      1702  TIP3      H1             33.6490937182      -11.2601151097      -15.6348031047  W2        1702            0.0000000000
      5106      1702  TIP3      H2             33.9620237182       -9.9042151097      -15.0385931047  W2        1702            0.0000000000
      5107      1703  TIP3      OH2            23.0900437182      -16.1854751097        0.9085068953  W2        1703            0.0000000000
      5108      1703  TIP3      H1             23.2401337182      -16.9143451097        0.3064768953  W2        1703            0.0000000000
      5109      1703  TIP3      H2             23.0922837182      -15.4083051097        0.3497268953  W2        1703            0.0000000000
      5110      1704  TIP3      OH2            23.5026137182      -17.8158951097       -1.5987531047  W2        1704            0.0000000000
      5111      1704  TIP3      H1             24.0383637182      -17.3642251097       -2.2508231047  W2        1704            0.0000000000
      5112      1704  TIP3      H2             22.6505737182      -17.9239151097       -2.0213431047  W2        1704            0.0000000000
      5113      1705  TIP3      OH2            25.0844537182      -12.3762751097       -1.3592331047  W2        1705            0.0000000000
      5114      1705  TIP3      H1             25.8349337182      -12.5325251097       -1.9324531047  W2        1705            0.0000000000
      5115      1705  TIP3      H2             24.7452837182      -11.5246151097       -1.6346831047  W2        1705            0.0000000000
      5116      1706  TIP3      OH2            29.5000737182      -14.5610951097        3.6692968953  W2        1706            0.0000000000
      5117      1706  TIP3      H1             29.6922037182      -15.4921551097        3.5577468953  W2        1706            0.0000000000
      5118      1706  TIP3      H2             30.3577037182      -14.1361451097        3.6588368953  W2        1706            0.0000000000
      5119      1707  TIP3      OH2            30.8167937182      -11.7725751097        1.7465668953  W2        1707            0.0000000000
      5120      1707  TIP3      H1             30.5352937182      -11.0631151097        1.1689468953  W2        1707            0.0000000000
      5121      1707  TIP3      H2             31.7592237182      -11.8452751097        1.5956868953  W2        1707            0.0000000000
      5122      1708  TIP3      OH2            21.5686737182      -14.9871251097        2.8200668953  W2        1708            0.0000000000
      5123      1708  TIP3      H1             20.8015737182      -15.5196451097        2.6098268953  W2        1708            0.0000000000
      5124      1708  TIP3      H2             22.2475737182      -15.2970851097        2.2206968953  W2        1708            0.0000000000
      5125      1709  TIP3      OH2            24.3081637182      -20.3593251097       -1.1673931047  W2        1709            0.0000000000
      5126      1709  TIP3      H1             24.2101237182      -19.4130051097       -1.2727731047  W2        1709            0.0000000000
      5127      1709  TIP3      H2             23.5657837182      -20.7319451097       -1.6430431047  W2        1709            0.0000000000
      5128      1710  TIP3      OH2            25.5722137182      -16.0377851097        2.3964468953  W2        1710            0.0000000000
      5129      1710  TIP3      H1             25.3367537182      -16.2571151097        3.2979368953  W2        1710            0.0000000000
      5130      1710  TIP3      H2             24.7889037182      -16.2446651097        1.8866968953  W2        1710            0.0000000000
      5131      1711  TIP3      OH2            28.2878737182      -16.9104351097        1.4717968953  W2        1711            0.0000000000
      5132      1711  TIP3      H1             27.3404137182      -16.8784651097        1.6041268953  W2        1711            0.0000000000
      5133      1711  TIP3      H2             28.6005437182      -17.5357251097        2.1256168953  W2        1711            0.0000000000
      5134      1712  TIP3      OH2            29.9220237182      -18.2763251097        3.4769868953  W2        1712            0.0000000000
      5135      1712  TIP3      H1             29.8252037182      -19.2285951097        3.4711768953  W2        1712            0.0000000000
      5136      1712  TIP3      H2             29.6003337182      -18.0076451097        4.3375368953  W2        1712            0.0000000000
      5137      1713  TIP3      OH2            19.7489537182      -17.0667451097        2.5245368953  W2        1713            0.0000000000
      5138      1713  TIP3      H1             19.9606937182      -17.7731351097        1.9142868953  W2        1713            0.0000000000
      5139      1713  TIP3      H2             19.6377037182      -17.5041451097        3.3686568953  W2        1713            0.0000000000
      5140      1714  TIP3      OH2            24.5299737182      -21.0655851097        1.5038868953  W2        1714            0.0000000000
      5141      1714  TIP3      H1             25.2418137182      -21.7053651097        1.4897968953  W2        1714            0.0000000000
      5142      1714  TIP3      H2             24.4290137182      -20.7987551097        0.5901968953  W2        1714            0.0000000000
      5143      1715  TIP3      OH2            24.8837237182      -19.3827451097        3.5575168953  W2        1715            0.0000000000
      5144      1715  TIP3      H1             24.7519437182      -19.8583651097        2.7373668953  W2        1715            0.0000000000
      5145      1715  TIP3      H2             24.2844637182      -18.6383851097        3.5022268953  W2        1715            0.0000000000
      5146      1716  TIP3      OH2            24.4299537182       -2.4997151097      -13.2660831047  W2        1716            0.0000000000
      5147      1716  TIP3      H1             25.3630237182       -2.3418451097      -13.1222431047  W2        1716            0.0000000000
      5148      1716  TIP3      H2             24.1658337182       -1.8244151097      -13.8909331047  W2        1716            0.0000000000
      5149      1717  TIP3      OH2            17.9984437182       -7.8633351097      -13.7832731047  W2        1717            0.0000000000
      5150      1717  TIP3      H1             18.9123637182       -7.7844451097      -13.5098831047  W2        1717            0.0000000000
      5151      1717  TIP3      H2             18.0057537182       -8.5503751097      -14.4497131047  W2        1717            0.0000000000
      5152      1718  TIP3      OH2            16.6475037182       -2.4704851097       -8.7058831047  W2        1718            0.0000000000
      5153      1718  TIP3      H1             16.0002137182       -2.9323151097       -9.2387631047  W2        1718            0.0000000000
      5154      1718  TIP3      H2             17.0019637182       -3.1421551097       -8.1232631047  W2        1718            0.0000000000
      5155      1719  TIP3      OH2            17.5174237182       -4.3897851097       -6.9012631047  W2        1719            0.0000000000
      5156      1719  TIP3      H1             17.1831037182       -5.2700551097       -6.7292431047  W2        1719            0.0000000000
      5157      1719  TIP3      H2             17.7396637182       -4.0442851097       -6.0367031047  W2        1719            0.0000000000
      5158      1720  TIP3      OH2            35.0659037182       -3.5801451097       -3.9207831047  W2        1720            0.0000000000
      5159      1720  TIP3      H1             35.0445737182       -3.3953051097       -2.9818431047  W2        1720            0.0000000000
      5160      1720  TIP3      H2             35.7565237182       -3.0117451097       -4.2616431047  W2        1720            0.0000000000
      5161      1721  TIP3      OH2            34.6291937182       -4.0130351097       -0.9988731047  W2        1721            0.0000000000
      5162      1721  TIP3      H1             34.1420637182       -4.7486251097       -1.3701331047  W2        1721            0.0000000000
      5163      1721  TIP3      H2             35.1784637182       -4.4066451097       -0.3209331047  W2        1721            0.0000000000
      5164      1722  TIP3      OH2            33.0799237182       -8.2232251097        3.6391568953  W2        1722            0.0000000000
      5165      1722  TIP3      H1             32.2140337182       -8.3282551097        4.0333868953  W2        1722            0.0000000000
      5166      1722  TIP3      H2             33.4565137182       -7.4648951097        4.0856268953  W2        1722            0.0000000000
      5167      1723  TIP3      OH2            34.3808937182       -9.9668551097      -10.8465931047  W2        1723            0.0000000000
      5168      1723  TIP3      H1             35.2310337182       -9.5457651097      -10.7194331047  W2        1723            0.0000000000
      5169      1723  TIP3      H2             34.3864037182      -10.7068451097      -10.2394531047  W2        1723            0.0000000000
      5170      1724  TIP3      OH2            34.7754537182      -11.9131151097       -9.0230231047  W2        1724            0.0000000000
      5171      1724  TIP3      H1             34.0489137182      -12.3928551097       -8.6252631047  W2        1724            0.0000000000
      5172      1724  TIP3      H2             35.3567837182      -11.7076451097       -8.2908631047  W2        1724            0.0000000000
      5173      1725  TIP3      OH2            34.5345737182       -9.1283651097       -4.0752631047  W2        1725            0.0000000000
      5174      1725  TIP3      H1             35.3679937182       -9.5063651097       -4.3559031047  W2        1725            0.0000000000
      5175      1725  TIP3      H2             34.6466037182       -8.1852451097       -4.1943531047  W2        1725            0.0000000000
      5176      1726  TIP3      OH2            33.0208037182       -6.2506151097       -1.7684231047  W2        1726            0.0000000000
      5177      1726  TIP3      H1             32.3733337182       -5.9254651097       -1.1429031047  W2        1726            0.0000000000
      5178      1726  TIP3      H2             32.5032037182       -6.6908451097       -2.4425931047  W2        1726            0.0000000000
      5179      1727  TIP3      OH2            35.0437637182      -12.0122651097      -12.6318931047  W2        1727            0.0000000000
      5180      1727  TIP3      H1             34.5218737182      -11.6558551097      -13.3508031047  W2        1727            0.0000000000
      5181      1727  TIP3      H2             35.0106837182      -11.3374851097      -11.9538031047  W2        1727            0.0000000000
      5182      1728  TIP3      OH2            33.3926637182      -14.7727051097      -14.0811831047  W2        1728            0.0000000000
      5183      1728  TIP3      H1             33.4891037182      -14.1060051097      -14.7612131047  W2        1728            0.0000000000
      5184      1728  TIP3      H2             33.2526237182      -15.5880751097      -14.5626331047  W2        1728            0.0000000000
      5185      1729  TIP3      OH2            32.5621337182      -13.3924651097       -8.4601531047  W2        1729            0.0000000000
      5186      1729  TIP3      H1             32.4120137182      -14.3376051097       -8.4803731047  W2        1729            0.0000000000
      5187      1729  TIP3      H2             32.2085837182      -13.1113251097       -7.6162431047  W2        1729            0.0000000000
      5188      1730  TIP3      OH2            17.5973737182      -11.3142451097       -4.4497731047  W2        1730            0.0000000000
      5189      1730  TIP3      H1             17.7816637182      -11.3960751097       -5.3854831047  W2        1730            0.0000000000
      5190      1730  TIP3      H2             18.4466637182      -11.4385451097       -4.0261331047  W2        1730            0.0000000000
      5191      1731  TIP3      OH2            33.4184237182      -11.4221351097        1.1786768953  W2        1731            0.0000000000
      5192      1731  TIP3      H1             34.0011537182      -12.1569051097        1.3703968953  W2        1731            0.0000000000
      5193      1731  TIP3      H2             33.9823537182      -10.6501051097        1.2252568953  W2        1731            0.0000000000
      5194      1732  TIP3      OH2            34.9151337182      -13.5195551097        1.8632168953  W2        1732            0.0000000000
      5195      1732  TIP3      H1             34.0518037182      -13.8983451097        1.6976868953  W2        1732            0.0000000000
      5196      1732  TIP3      H2             35.5195037182      -14.2580751097        1.7887968953  W2        1732            0.0000000000
      5197      1733  TIP3      OH2            32.6400437182      -17.3647251097      -14.9636331047  W2        1733            0.0000000000
      5198      1733  TIP3      H1             33.2506237182      -17.7360451097      -14.3268131047  W2        1733            0.0000000000
      5199      1733  TIP3      H2             31.8031937182      -17.7860351097      -14.7676331047  W2        1733            0.0000000000
      5200      1734  TIP3      OH2            32.2726137182      -15.8098851097       -9.9976431047  W2        1734            0.0000000000
      5201      1734  TIP3      H1             32.5523237182      -16.7168451097       -9.8734731047  W2        1734            0.0000000000
      5202      1734  TIP3      H2             33.0317837182      -15.3757351097      -10.3867231047  W2        1734            0.0000000000
      5203      1735  TIP3      OH2            32.8844437182      -15.2281451097       -4.5617531047  W2        1735            0.0000000000
      5204      1735  TIP3      H1             33.8172437182      -15.0161551097       -4.5961531047  W2        1735            0.0000000000
      5205      1735  TIP3      H2             32.6491937182      -15.1269351097       -3.6394531047  W2        1735            0.0000000000
      5206      1736  TIP3      OH2            32.9136337182      -14.4916151097       -1.7858131047  W2        1736            0.0000000000
      5207      1736  TIP3      H1             32.0707637182      -14.2235751097       -1.4198331047  W2        1736            0.0000000000
      5208      1736  TIP3      H2             33.3560637182      -13.6694251097       -1.9967031047  W2        1736            0.0000000000
      5209      1737  TIP3      OH2            17.1948537182      -16.0437451097        1.6911068953  W2        1737            0.0000000000
      5210      1737  TIP3      H1             18.1143437182      -16.1659151097        1.9274168953  W2        1737            0.0000000000
      5211      1737  TIP3      H2             16.7453037182      -16.7937751097        2.0804568953  W2        1737            0.0000000000
      5212      1738  TIP3      OH2            35.1967937182      -20.5115951097        3.5676868953  W2        1738            0.0000000000
      5213      1738  TIP3      H1             35.5464937182      -21.1652451097        2.9621568953  W2        1738            0.0000000000
      5214      1738  TIP3      H2             35.3437437182      -19.6741851097        3.1279468953  W2        1738            0.0000000000
      5215      1739  TIP3      OH2            32.8860937182      -18.5469551097       -9.9494431047  W2        1739            0.0000000000
      5216      1739  TIP3      H1             33.0685937182      -18.9958051097       -9.1239431047  W2        1739            0.0000000000
      5217      1739  TIP3      H2             32.2863837182      -19.1315151097      -10.4129831047  W2        1739            0.0000000000
      5218      1740  TIP3      OH2            18.4161037182      -17.7315851097       -5.4176031047  W2        1740            0.0000000000
      5219      1740  TIP3      H1             18.8612637182      -18.5233351097       -5.1156331047  W2        1740            0.0000000000
      5220      1740  TIP3      H2             18.8824037182      -17.0150651097       -4.9870431047  W2        1740            0.0000000000
      5221      1741  TIP3      OH2            16.7201337182      -14.7322851097       -4.3485831047  W2        1741            0.0000000000
      5222      1741  TIP3      H1             17.2121137182      -14.9532351097       -5.1393831047  W2        1741            0.0000000000
      5223      1741  TIP3      H2             17.0822237182      -13.8919451097       -4.0676331047  W2        1741            0.0000000000
      5224      1742  TIP3      OH2            34.7165137182      -18.4021351097        1.9168168953  W2        1742            0.0000000000
      5225      1742  TIP3      H1             33.7990837182      -18.1314251097        1.8811668953  W2        1742            0.0000000000
      5226      1742  TIP3      H2             34.8394537182      -18.9372951097        1.1327868953  W2        1742            0.0000000000
      5227      1743  TIP3      OH2            34.7527137182      -18.4791451097      -13.4214131047  W2        1743            0.0000000000
      5228      1743  TIP3      H1             35.1649737182      -19.2005751097      -13.8966131047  W2        1743            0.0000000000
      5229      1743  TIP3      H2             35.4343637182      -17.8096851097      -13.3629831047  W2        1743            0.0000000000
      5230      1744  TIP3      OH2            17.0337837182      -18.4743751097      -10.2943431047  W2        1744            0.0000000000
      5231      1744  TIP3      H1             16.1086237182      -18.2657151097      -10.4237931047  W2        1744            0.0000000000
      5232      1744  TIP3      H2             17.4877737182      -17.9902951097      -10.9841131047  W2        1744            0.0000000000
      5233      1745  TIP3      OH2            31.8045037182       -3.4902051097       -8.3486031047  W2        1745            0.0000000000
      5234      1745  TIP3      H1             32.4567937182       -3.8379951097       -8.9566931047  W2        1745            0.0000000000
      5235      1745  TIP3      H2             32.3148837182       -3.0018851097       -7.7026331047  W2        1745            0.0000000000
      5236      1746  TIP3      OH2            16.9973237182      -19.7364751097       -1.9500931047  W2        1746            0.0000000000
      5237      1746  TIP3      H1             16.3323737182      -19.9824451097       -1.3070031047  W2        1746            0.0000000000
      5238      1746  TIP3      H2             16.5544537182      -19.1144351097       -2.5272931047  W2        1746            0.0000000000
      5239      1747  TIP3      OH2            19.1892537182       -6.5610651097        2.1944868953  W2        1747            0.0000000000
      5240      1747  TIP3      H1             18.3685037182       -6.3864151097        1.7339568953  W2        1747            0.0000000000
      5241      1747  TIP3      H2             18.9370337182       -6.6345951097        3.1149268953  W2        1747            0.0000000000
      5242      1748  TIP3      OH2            22.1435437182       -5.5869451097       -1.5471131047  W2        1748            0.0000000000
      5243      1748  TIP3      H1             21.7186537182       -4.7770951097       -1.8296531047  W2        1748            0.0000000000
      5244      1748  TIP3      H2             23.0478237182       -5.5015351097       -1.8491331047  W2        1748            0.0000000000
      5245      1749  TIP3      OH2            26.4546837182       -4.1879451097        1.4122568953  W2        1749            0.0000000000
      5246      1749  TIP3      H1             26.6394337182       -4.5213351097        2.2902868953  W2        1749            0.0000000000
      5247      1749  TIP3      H2             27.3011337182       -3.8780851097        1.0901768953  W2        1749            0.0000000000
      5248      1750  TIP3      OH2            28.7997237182       -2.9020551097        0.6563968953  W2        1750            0.0000000000
      5249      1750  TIP3      H1             29.4766137182       -3.5348251097        0.4163168953  W2        1750            0.0000000000
      5250      1750  TIP3      H2             29.1216037182       -2.5010051097        1.4637268953  W2        1750            0.0000000000
      5251      1751  TIP3      OH2            33.7171037182      -20.3125051097       -0.2641031047  W2        1751            0.0000000000
      5252      1751  TIP3      H1             32.9044537182      -19.9874751097       -0.6516331047  W2        1751            0.0000000000
      5253      1751  TIP3      H2             33.9499537182      -21.0726551097       -0.7971931047  W2        1751            0.0000000000
      5254      1752  TIP3      OH2            19.5452137182       -2.3305551097       -1.4995831047  W2        1752            0.0000000000
      5255      1752  TIP3      H1             18.8248537182       -1.8904551097       -1.9508131047  W2        1752            0.0000000000
      5256      1752  TIP3      H2             19.1796137182       -2.5810851097       -0.6511831047  W2        1752            0.0000000000
      5257      1753  TIP3      OH2            22.0124737182       -2.7301651097       -2.4698631047  W2        1753            0.0000000000
      5258      1753  TIP3      H1             21.1476937182       -2.6583151097       -2.0658531047  W2        1753            0.0000000000
      5259      1753  TIP3      H2             21.9573737182       -2.1834351097       -3.2536131047  W2        1753            0.0000000000
      5260      1754  TIP3      OH2            26.7230337182       -2.8422751097       -3.2942631047  W2        1754            0.0000000000
      5261      1754  TIP3      H1             26.2664337182       -2.3133051097       -3.9484231047  W2        1754            0.0000000000
      5262      1754  TIP3      H2             26.8858337182       -2.2391351097       -2.5690331047  W2        1754            0.0000000000
      5263      1755  TIP3      OH2            29.0506637182       -3.9643151097       -2.3492331047  W2        1755            0.0000000000
      5264      1755  TIP3      H1             28.1460337182       -3.7992951097       -2.6150231047  W2        1755            0.0000000000
      5265      1755  TIP3      H2             29.4795237182       -3.1110951097       -2.4148931047  W2        1755            0.0000000000
      5266      1756  TIP3      OH2            31.6548537182       -2.3944051097       -2.0544531047  W2        1756            0.0000000000
      5267      1756  TIP3      H1             31.4730537182       -1.4785151097       -2.2649631047  W2        1756            0.0000000000
      5268      1756  TIP3      H2             31.8316337182       -2.8046951097       -2.9009931047  W2        1756            0.0000000000
      5269      1757  TIP3      OH2            18.9600237182       -3.7073051097       -4.5894031047  W2        1757            0.0000000000
      5270      1757  TIP3      H1             18.9416237182       -4.1327951097       -3.7321731047  W2        1757            0.0000000000
      5271      1757  TIP3      H2             19.7648137182       -4.0258051097       -4.9981831047  W2        1757            0.0000000000
      5272      1758  TIP3      OH2            21.1013337182       -4.9974351097       -5.9344131047  W2        1758            0.0000000000
      5273      1758  TIP3      H1             20.8824037182       -5.9136951097       -5.7648131047  W2        1758            0.0000000000
      5274      1758  TIP3      H2             21.9255537182       -4.8573951097       -5.4682731047  W2        1758            0.0000000000
      5275      1759  TIP3      OH2            23.6385837182       -4.5275051097       -5.0856131047  W2        1759            0.0000000000
      5276      1759  TIP3      H1             23.8511537182       -5.4156051097       -5.3725231047  W2        1759            0.0000000000
      5277      1759  TIP3      H2             23.7030937182       -4.5617351097       -4.1312131047  W2        1759            0.0000000000
      5278      1760  TIP3      OH2            27.1469537182      -18.8634451097       -5.9412831047  W2        1760            0.0000000000
      5279      1760  TIP3      H1             26.4726337182      -19.4928851097       -5.6857031047  W2        1760            0.0000000000
      5280      1760  TIP3      H2             27.7108737182      -19.3475551097       -6.5444931047  W2        1760            0.0000000000
      5281      1761  TIP3      OH2            32.2896737182      -20.7560451097       -5.8285731047  W2        1761            0.0000000000
      5282      1761  TIP3      H1             32.8934337182      -20.2085051097       -6.3304731047  W2        1761            0.0000000000
      5283      1761  TIP3      H2             31.4198737182      -20.4370051097       -6.0691631047  W2        1761            0.0000000000
      5284      1762  TIP3      OH2            34.0167137182      -19.6171751097       -7.4954831047  W2        1762            0.0000000000
      5285      1762  TIP3      H1             34.6284637182      -20.1316051097       -8.0221231047  W2        1762            0.0000000000
      5286      1762  TIP3      H2             34.3990537182      -18.7399651097       -7.4720431047  W2        1762            0.0000000000
      5287      1763  TIP3      OH2            19.4737037182      -20.2294151097       -8.1192931047  W2        1763            0.0000000000
      5288      1763  TIP3      H1             18.6966837182      -20.4639251097       -8.6267031047  W2        1763            0.0000000000
      5289      1763  TIP3      H2             20.0040637182      -21.0262051097       -8.1104931047  W2        1763            0.0000000000
      5290      1764  TIP3      OH2            18.3100437182      -20.4316051097      -12.3156831047  W2        1764            0.0000000000
      5291      1764  TIP3      H1             18.7491137182      -19.8205551097      -12.9073331047  W2        1764            0.0000000000
      5292      1764  TIP3      H2             17.6762837182      -19.8931951097      -11.8416831047  W2        1764            0.0000000000
      5293      1765  TIP3      OH2            24.0529637182      -20.3027051097       -8.3059831047  W2        1765            0.0000000000
      5294      1765  TIP3      H1             24.9273037182      -19.9142751097       -8.3355531047  W2        1765            0.0000000000
      5295      1765  TIP3      H2             23.9170437182      -20.5179251097       -7.3832631047  W2        1765            0.0000000000
      5296      1766  TIP3      OH2            29.6098037182      -20.2727251097       -6.6568131047  W2        1766            0.0000000000
      5297      1766  TIP3      H1             29.6859637182      -20.1775651097       -7.6062131047  W2        1766            0.0000000000
      5298      1766  TIP3      H2             29.3347237182      -21.1804351097       -6.5279031047  W2        1766            0.0000000000
      5299      1767  TIP3      OH2            30.9630637182      -20.2469451097      -10.9643131047  W2        1767            0.0000000000
      5300      1767  TIP3      H1             30.2601737182      -19.6320251097      -11.1741731047  W2        1767            0.0000000000
      5301      1767  TIP3      H2             30.5182037182      -21.0842751097      -10.8332231047  W2        1767            0.0000000000
      5302      1768  TIP3      OH2            18.2109937182       -4.4833851097      -11.4181731047  W2        1768            0.0000000000
      5303      1768  TIP3      H1             17.5259837182       -4.5214951097      -12.0856631047  W2        1768            0.0000000000
      5304      1768  TIP3      H2             18.2147137182       -3.5706251097      -11.1299631047  W2        1768            0.0000000000
      5305      1769  TIP3      OH2            20.1709537182      -18.5154551097      -13.8732731047  W2        1769            0.0000000000
      5306      1769  TIP3      H1             20.6622937182      -19.1452151097      -14.4007231047  W2        1769            0.0000000000
      5307      1769  TIP3      H2             20.7945837182      -18.2195151097      -13.2101531047  W2        1769            0.0000000000
      5308      1770  TIP3      OH2            25.1969637182      -18.2223051097      -11.4162231047  W2        1770            0.0000000000
      5309      1770  TIP3      H1             25.3750937182      -18.8689851097      -10.7333631047  W2        1770            0.0000000000
      5310      1770  TIP3      H2             25.1435837182      -17.3885351097      -10.9491131047  W2        1770            0.0000000000
      5311      1771  TIP3      OH2            27.0753437182       -3.2738951097      -13.0205531047  W2        1771            0.0000000000
      5312      1771  TIP3      H1             27.9413637182       -2.9071551097      -13.1987331047  W2        1771            0.0000000000
      5313      1771  TIP3      H2             26.8286237182       -3.7130951097      -13.8344731047  W2        1771            0.0000000000
      5314      1772  TIP3      OH2            33.7843037182       -3.7108651097      -10.3414431047  W2        1772            0.0000000000
      5315      1772  TIP3      H1             33.5900137182       -4.4586551097      -10.9064831047  W2        1772            0.0000000000
      5316      1772  TIP3      H2             33.7453137182       -2.9528551097      -10.9246531047  W2        1772            0.0000000000
      5317      1773  TIP3      OH2            19.4315037182      -19.7152251097        1.3983268953  W2        1773            0.0000000000
      5318      1773  TIP3      H1             19.0653237182      -20.4809651097        1.8407968953  W2        1773            0.0000000000
      5319      1773  TIP3      H2             20.3443537182      -19.6862051097        1.6848368953  W2        1773            0.0000000000
      5320      1774  TIP3      OH2            21.4045837182      -20.3647851097        2.9340368953  W2        1774            0.0000000000
      5321      1774  TIP3      H1             22.3029437182      -20.6387651097        2.7493768953  W2        1774            0.0000000000
      5322      1774  TIP3      H2             21.0178937182      -21.1071851097        3.3982968953  W2        1774            0.0000000000
      5323      1775  TIP3      OH2            20.0291137182       -3.5633051097      -14.3929631047  W2        1775            0.0000000000
      5324      1775  TIP3      H1             19.7615737182       -3.2770151097      -13.5196531047  W2        1775            0.0000000000
      5325      1775  TIP3      H2             20.8003737182       -4.1093851097      -14.2407131047  W2        1775            0.0000000000
      5326      1776  TIP3      OH2            29.8258137182      -21.0322551097        3.1163168953  W2        1776            0.0000000000
      5327      1776  TIP3      H1             29.9025337182      -21.4581851097        3.9700868953  W2        1776            0.0000000000
      5328      1776  TIP3      H2             30.7194737182      -21.0187851097        2.7736668953  W2        1776            0.0000000000
      5329      1777  TIP3      OH2            33.0019237182       -4.9596251097        1.8087368953  W2        1777            0.0000000000
      5330      1777  TIP3      H1             32.2201137182       -5.1458251097        1.2887968953  W2        1777            0.0000000000
      5331      1777  TIP3      H2             32.9299137182       -4.0301951097        2.0259868953  W2        1777            0.0000000000
      5332      1778  TIP3      OH2            38.7095937182      -12.2039051097       -3.1487331047  W2        1778            0.0000000000
      5333      1778  TIP3      H1             38.7508037182      -12.8295751097       -2.4254931047  W2        1778            0.0000000000
      5334      1778  TIP3      H2             39.4123637182      -11.5800451097       -2.9666931047  W2        1778            0.0000000000
      5335      1779  TIP3      OH2            39.6329037182       -7.7540151097       -4.6138231047  W2        1779            0.0000000000
      5336      1779  TIP3      H1             39.2634237182       -8.5559651097       -4.9833931047  W2        1779            0.0000000000
      5337      1779  TIP3      H2             40.5740137182       -7.9225251097       -4.5674831047  W2        1779            0.0000000000
      5338      1780  TIP3      OH2            36.2429537182      -14.0937551097       -9.2209431047  W2        1780            0.0000000000
      5339      1780  TIP3      H1             35.7952937182      -13.2478851097       -9.2392931047  W2        1780            0.0000000000
      5340      1780  TIP3      H2             35.6820737182      -14.6733351097       -9.7364331047  W2        1780            0.0000000000
      5341      1781  TIP3      OH2            36.9535637182      -11.9317951097       -7.0951431047  W2        1781            0.0000000000
      5342      1781  TIP3      H1             37.1669137182      -12.7016351097       -6.5678431047  W2        1781            0.0000000000
      5343      1781  TIP3      H2             37.6913237182      -11.8421251097       -7.6983831047  W2        1781            0.0000000000
      5344      1782  TIP3      OH2            37.6462137182      -14.4935151097       -5.9735231047  W2        1782            0.0000000000
      5345      1782  TIP3      H1             38.2998737182      -15.0433451097       -5.5415131047  W2        1782            0.0000000000
      5346      1782  TIP3      H2             37.6701437182      -14.7676151097       -6.8903231047  W2        1782            0.0000000000
      5347      1783  TIP3      OH2            39.4299837182      -16.0800751097       -4.7093631047  W2        1783            0.0000000000
      5348      1783  TIP3      H1             40.0436137182      -15.4473151097       -4.3361231047  W2        1783            0.0000000000
      5349      1783  TIP3      H2             39.9420537182      -16.5525751097       -5.3656731047  W2        1783            0.0000000000
      5350      1784  TIP3      OH2            36.9339137182       -8.6615951097      -10.8051331047  W2        1784            0.0000000000
      5351      1784  TIP3      H1             36.6620037182       -8.4324951097      -11.6938431047  W2        1784            0.0000000000
      5352      1784  TIP3      H2             36.9794837182       -7.8237151097      -10.3446031047  W2        1784            0.0000000000
      5353      1785  TIP3      OH2            39.3469637182      -11.6232951097       -0.2951631047  W2        1785            0.0000000000
      5354      1785  TIP3      H1             39.4172837182      -10.9726151097        0.4033368953  W2        1785            0.0000000000
      5355      1785  TIP3      H2             38.4561837182      -11.5205451097       -0.6300731047  W2        1785            0.0000000000
      5356      1786  TIP3      OH2            36.2636337182       -9.5568851097       -1.4701631047  W2        1786            0.0000000000
      5357      1786  TIP3      H1             35.7624737182       -9.5849451097       -2.2851931047  W2        1786            0.0000000000
      5358      1786  TIP3      H2             36.2690037182      -10.4625651097       -1.1604331047  W2        1786            0.0000000000
      5359      1787  TIP3      OH2            36.0139037182       -6.7765051097       -4.5861431047  W2        1787            0.0000000000
      5360      1787  TIP3      H1             36.9599637182       -6.9208051097       -4.6051931047  W2        1787            0.0000000000
      5361      1787  TIP3      H2             35.9015337182       -5.9922251097       -4.0490231047  W2        1787            0.0000000000
      5362      1788  TIP3      OH2            39.2581137182       -3.9755451097       -8.4406731047  W2        1788            0.0000000000
      5363      1788  TIP3      H1             39.4101537182       -4.3235051097       -7.5620231047  W2        1788            0.0000000000
      5364      1788  TIP3      H2             38.4071537182       -4.3318151097       -8.6959531047  W2        1788            0.0000000000
      5365      1789  TIP3      OH2            38.5126837182       -8.2333451097       -0.4268831047  W2        1789            0.0000000000
      5366      1789  TIP3      H1             38.7288137182       -8.5947851097        0.4326968953  W2        1789            0.0000000000
      5367      1789  TIP3      H2             37.6571537182       -8.6079651097       -0.6365331047  W2        1789            0.0000000000
      5368      1790  TIP3      OH2            38.9725437182      -14.4774951097       -1.4692431047  W2        1790            0.0000000000
      5369      1790  TIP3      H1             38.9344837182      -14.0773351097       -0.6005331047  W2        1790            0.0000000000
      5370      1790  TIP3      H2             38.4816537182      -15.2942551097       -1.3789531047  W2        1790            0.0000000000
      5371      1791  TIP3      OH2            35.5806237182      -17.3613151097       -7.6187731047  W2        1791            0.0000000000
      5372      1791  TIP3      H1             36.2113937182      -17.3901051097       -6.8993831047  W2        1791            0.0000000000
      5373      1791  TIP3      H2             36.0300537182      -17.7864451097       -8.3491831047  W2        1791            0.0000000000
      5374      1792  TIP3      OH2            36.8548337182      -16.6151151097      -12.1947331047  W2        1792            0.0000000000
      5375      1792  TIP3      H1             37.3290037182      -16.0241251097      -12.7796431047  W2        1792            0.0000000000
      5376      1792  TIP3      H2             36.1374737182      -16.0848251097      -11.8477231047  W2        1792            0.0000000000
      5377      1793  TIP3      OH2            38.6292737182      -15.5204551097       -8.5112731047  W2        1793            0.0000000000
      5378      1793  TIP3      H1             37.7400737182      -15.4209051097       -8.8513131047  W2        1793            0.0000000000
      5379      1793  TIP3      H2             38.9257637182      -16.3621551097       -8.8574831047  W2        1793            0.0000000000
      5380      1794  TIP3      OH2            39.0916137182       -9.7687851097        1.8109568953  W2        1794            0.0000000000
      5381      1794  TIP3      H1             39.8238537182       -9.5141951097        2.3724068953  W2        1794            0.0000000000
      5382      1794  TIP3      H2             38.3114837182       -9.5642451097        2.3264968953  W2        1794            0.0000000000
      5383      1795  TIP3      OH2            39.4165837182      -10.4654051097       -5.5826031047  W2        1795            0.0000000000
      5384      1795  TIP3      H1             40.1613037182      -10.4678351097       -6.1839531047  W2        1795            0.0000000000
      5385      1795  TIP3      H2             39.4942437182      -11.2890251097       -5.1010931047  W2        1795            0.0000000000
      5386      1796  TIP3      OH2            36.4245537182      -12.0047151097       -0.2677531047  W2        1796            0.0000000000
      5387      1796  TIP3      H1             36.6474137182      -12.4227551097        0.5639968953  W2        1796            0.0000000000
      5388      1796  TIP3      H2             35.8225637182      -12.6172151097       -0.6904731047  W2        1796            0.0000000000
      5389      1797  TIP3      OH2            37.5462937182      -12.0851751097      -13.5912131047  W2        1797            0.0000000000
      5390      1797  TIP3      H1             38.1622837182      -11.4584551097      -13.2117331047  W2        1797            0.0000000000
      5391      1797  TIP3      H2             36.6845537182      -11.7691951097      -13.3195631047  W2        1797            0.0000000000
      5392      1798  TIP3      OH2            38.0585037182      -17.2514451097       -0.7096131047  W2        1798            0.0000000000
      5393      1798  TIP3      H1             37.1657337182      -16.9129051097       -0.7772131047  W2        1798            0.0000000000
      5394      1798  TIP3      H2             37.9597837182      -18.1068351097       -0.2915331047  W2        1798            0.0000000000
      5395      1799  TIP3      OH2            37.7097037182       -5.4470051097       -2.2746731047  W2        1799            0.0000000000
      5396      1799  TIP3      H1             37.9267337182       -6.3787651097       -2.3057031047  W2        1799            0.0000000000
      5397      1799  TIP3      H2             37.9560537182       -5.1725051097       -1.3913931047  W2        1799            0.0000000000
      5398      1800  TIP3      OH2            38.9613337182      -10.1727951097      -12.0986531047  W2        1800            0.0000000000
      5399      1800  TIP3      H1             38.2752637182       -9.8205451097      -11.5316831047  W2        1800            0.0000000000
      5400      1800  TIP3      H2             39.4841237182       -9.4098351097      -12.3452231047  W2        1800            0.0000000000
      5401      1801  TIP3      OH2            39.5772237182       -7.5589051097      -13.2018731047  W2        1801            0.0000000000
      5402      1801  TIP3      H1             40.1693737182       -6.8594251097      -12.9256331047  W2        1801            0.0000000000
      5403      1801  TIP3      H2             40.0365237182       -7.9919551097      -13.9214131047  W2        1801            0.0000000000
      5404      1802  TIP3      OH2            37.8931437182      -14.8946051097      -14.0859331047  W2        1802            0.0000000000
      5405      1802  TIP3      H1             37.8484037182      -13.9552951097      -13.9072331047  W2        1802            0.0000000000
      5406      1802  TIP3      H2             37.0054637182      -15.1301151097      -14.3557231047  W2        1802            0.0000000000
      5407      1803  TIP3      OH2            38.7013437182      -20.1129451097       -5.4128331047  W2        1803            0.0000000000
      5408      1803  TIP3      H1             38.4723237182      -20.0536951097       -6.3403331047  W2        1803            0.0000000000
      5409      1803  TIP3      H2             38.2586837182      -20.9043951097       -5.1064231047  W2        1803            0.0000000000
      5410      1804  TIP3      OH2            37.6316737182       -6.1722351097       -9.2522531047  W2        1804            0.0000000000
      5411      1804  TIP3      H1             36.7995337182       -5.6999651097       -9.2251131047  W2        1804            0.0000000000
      5412      1804  TIP3      H2             38.1775037182       -5.6624751097       -9.8509431047  W2        1804            0.0000000000
      5413      1805  TIP3      OH2            36.9200437182       -3.5598651097        2.0775468953  W2        1805            0.0000000000
      5414      1805  TIP3      H1             37.4602637182       -3.7764651097        2.8374668953  W2        1805            0.0000000000
      5415      1805  TIP3      H2             36.4388437182       -4.3652651097        1.8877968953  W2        1805            0.0000000000
      5416      1806  TIP3      OH2            36.8269937182       -9.7494551097        3.0319768953  W2        1806            0.0000000000
      5417      1806  TIP3      H1             36.9710437182      -10.6513851097        2.7456468953  W2        1806            0.0000000000
      5418      1806  TIP3      H2             36.0547337182       -9.4632451097        2.5442068953  W2        1806            0.0000000000
      5419      1807  TIP3      OH2            37.6596437182      -12.5491251097        2.4519068953  W2        1807            0.0000000000
      5420      1807  TIP3      H1             38.0677637182      -13.4064651097        2.3309668953  W2        1807            0.0000000000
      5421      1807  TIP3      H2             37.3994037182      -12.5349951097        3.3729368953  W2        1807            0.0000000000
      5422      1808  TIP3      OH2            38.6049537182      -17.0667451097        2.5245368953  W2        1808            0.0000000000
      5423      1808  TIP3      H1             38.8166937182      -17.7731351097        1.9142868953  W2        1808            0.0000000000
      5424      1808  TIP3      H2             38.4937037182      -17.5041451097        3.3686568953  W2        1808            0.0000000000
      5425      1809  TIP3      OH2            36.8544437182       -7.8633351097      -13.7832731047  W2        1809            0.0000000000
      5426      1809  TIP3      H1             37.7683637182       -7.7844451097      -13.5098831047  W2        1809            0.0000000000
      5427      1809  TIP3      H2             36.8617537182       -8.5503751097      -14.4497131047  W2        1809            0.0000000000
      5428      1810  TIP3      OH2            35.5035037182       -2.4704851097       -8.7058831047  W2        1810            0.0000000000
      5429      1810  TIP3      H1             34.8562137182       -2.9323151097       -9.2387631047  W2        1810            0.0000000000
      5430      1810  TIP3      H2             35.8579637182       -3.1421551097       -8.1232631047  W2        1810            0.0000000000
      5431      1811  TIP3      OH2            36.3734237182       -4.3897851097       -6.9012631047  W2        1811            0.0000000000
      5432      1811  TIP3      H1             36.0391037182       -5.2700551097       -6.7292431047  W2        1811            0.0000000000
      5433      1811  TIP3      H2             36.5956637182       -4.0442851097       -6.0367031047  W2        1811            0.0000000000
      5434      1812  TIP3      OH2            36.4533737182      -11.3142451097       -4.4497731047  W2        1812            0.0000000000
      5435      1812  TIP3      H1             36.6376637182      -11.3960751097       -5.3854831047  W2        1812            0.0000000000
      5436      1812  TIP3      H2             37.3026637182      -11.4385451097       -4.0261331047  W2        1812            0.0000000000
      5437      1813  TIP3      OH2            36.0508537182      -16.0437451097        1.6911068953  W2        1813            0.0000000000
      5438      1813  TIP3      H1             36.9703437182      -16.1659151097        1.9274168953  W2        1813            0.0000000000
      5439      1813  TIP3      H2             35.6013037182      -16.7937751097        2.0804568953  W2        1813            0.0000000000
      5440      1814  TIP3      OH2            37.2721037182      -17.7315851097       -5.4176031047  W2        1814            0.0000000000
      5441      1814  TIP3      H1             37.7172637182      -18.5233351097       -5.1156331047  W2        1814            0.0000000000
      5442      1814  TIP3      H2             37.7384037182      -17.0150651097       -4.9870431047  W2        1814            0.0000000000
      5443      1815  TIP3      OH2            35.5761337182      -14.7322851097       -4.3485831047  W2        1815            0.0000000000
      5444      1815  TIP3      H1             36.0681137182      -14.9532351097       -5.1393831047  W2        1815            0.0000000000
      5445      1815  TIP3      H2             35.9382237182      -13.8919451097       -4.0676331047  W2        1815            0.0000000000
      5446      1816  TIP3      OH2            35.8897837182      -18.4743751097      -10.2943431047  W2        1816            0.0000000000
      5447      1816  TIP3      H1             34.9646237182      -18.2657151097      -10.4237931047  W2        1816            0.0000000000
      5448      1816  TIP3      H2             36.3437737182      -17.9902951097      -10.9841131047  W2        1816            0.0000000000
      5449      1817  TIP3      OH2            35.8533237182      -19.7364751097       -1.9500931047  W2        1817            0.0000000000
      5450      1817  TIP3      H1             35.1883737182      -19.9824451097       -1.3070031047  W2        1817            0.0000000000
      5451      1817  TIP3      H2             35.4104537182      -19.1144351097       -2.5272931047  W2        1817            0.0000000000
      5452      1818  TIP3      OH2            38.0452537182       -6.5610651097        2.1944868953  W2        1818            0.0000000000
      5453      1818  TIP3      H1             37.2245037182       -6.3864151097        1.7339568953  W2        1818            0.0000000000
      5454      1818  TIP3      H2             37.7930337182       -6.6345951097        3.1149268953  W2        1818            0.0000000000
      5455      1819  TIP3      OH2            38.4012137182       -2.3305551097       -1.4995831047  W2        1819            0.0000000000
      5456      1819  TIP3      H1             37.6808537182       -1.8904551097       -1.9508131047  W2        1819            0.0000000000
      5457      1819  TIP3      H2             38.0356137182       -2.5810851097       -0.6511831047  W2        1819            0.0000000000
      5458      1820  TIP3      OH2            37.8160237182       -3.7073051097       -4.5894031047  W2        1820            0.0000000000
      5459      1820  TIP3      H1             37.7976237182       -4.1327951097       -3.7321731047  W2        1820            0.0000000000
      5460      1820  TIP3      H2             38.6208137182       -4.0258051097       -4.9981831047  W2        1820            0.0000000000
      5461      1821  TIP3      OH2            38.3297037182      -20.2294151097       -8.1192931047  W2        1821            0.0000000000
      5462      1821  TIP3      H1             37.5526837182      -20.4639251097       -8.6267031047  W2        1821            0.0000000000
      5463      1821  TIP3      H2             38.8600637182      -21.0262051097       -8.1104931047  W2        1821            0.0000000000
      5464      1822  TIP3      OH2            37.1660437182      -20.4316051097      -12.3156831047  W2        1822            0.0000000000
      5465      1822  TIP3      H1             37.6051137182      -19.8205551097      -12.9073331047  W2        1822            0.0000000000
      5466      1822  TIP3      H2             36.5322837182      -19.8931951097      -11.8416831047  W2        1822            0.0000000000
      5467      1823  TIP3      OH2            37.0669937182       -4.4833851097      -11.4181731047  W2        1823            0.0000000000
      5468      1823  TIP3      H1             36.3819837182       -4.5214951097      -12.0856631047  W2        1823            0.0000000000
      5469      1823  TIP3      H2             37.0707137182       -3.5706251097      -11.1299631047  W2        1823            0.0000000000
      5470      1824  TIP3      OH2            39.0269537182      -18.5154551097      -13.8732731047  W2        1824            0.0000000000
      5471      1824  TIP3      H1             39.5182937182      -19.1452151097      -14.4007231047  W2        1824            0.0000000000
      5472      1824  TIP3      H2             39.6505837182      -18.2195151097      -13.2101531047  W2        1824            0.0000000000
      5473      1825  TIP3      OH2            38.2875037182      -19.7152251097        1.3983268953  W2        1825            0.0000000000
      5474      1825  TIP3      H1             37.9213237182      -20.4809651097        1.8407968953  W2        1825            0.0000000000
      5475      1825  TIP3      H2             39.2003537182      -19.6862051097        1.6848368953  W2        1825            0.0000000000
      5476      1826  TIP3      OH2            38.8851137182       -3.5633051097      -14.3929631047  W2        1826            0.0000000000
      5477      1826  TIP3      H1             38.6175737182       -3.2770151097      -13.5196531047  W2        1826            0.0000000000
      5478      1826  TIP3      H2             39.6563737182       -4.1093851097      -14.2407131047  W2        1826            0.0000000000
      5479      1827  TIP3      OH2           -28.0160362818        7.7828148903       -8.1605431047  W2        1827            0.0000000000
      5480      1827  TIP3      H1            -27.9269262818        8.7266348903       -8.2928331047  W2        1827            0.0000000000
      5481      1827  TIP3      H2            -28.6542762818        7.5074548903       -8.8186031047  W2        1827            0.0000000000
      5482      1828  TIP3      OH2           -29.0829062818        7.0378848903       -4.7417231047  W2        1828            0.0000000000
      5483      1828  TIP3      H1            -29.1211562818        6.3915148903       -4.0367631047  W2        1828            0.0000000000
      5484      1828  TIP3      H2            -29.4052562818        6.5713248903       -5.5128531047  W2        1828            0.0000000000
      5485      1829  TIP3      OH2           -36.7144062818        6.6520948903       -3.1487331047  W2        1829            0.0000000000
      5486      1829  TIP3      H1            -36.6731962818        6.0264248903       -2.4254931047  W2        1829            0.0000000000
      5487      1829  TIP3      H2            -36.0116362818        7.2759548903       -2.9666931047  W2        1829            0.0000000000
      5488      1830  TIP3      OH2           -25.3768862818        9.9769248903       -6.4402131047  W2        1830            0.0000000000
      5489      1830  TIP3      H1            -25.8176162818        9.2565248903       -5.9896531047  W2        1830            0.0000000000
      5490      1830  TIP3      H2            -25.3899162818       10.6976448903       -5.8104431047  W2        1830            0.0000000000
      5491      1831  TIP3      OH2           -35.7910962818       11.1019848903       -4.6138231047  W2        1831            0.0000000000
      5492      1831  TIP3      H1            -36.1605762818       10.3000348903       -4.9833931047  W2        1831            0.0000000000
      5493      1831  TIP3      H2            -34.8499862818       10.9334748903       -4.5674831047  W2        1831            0.0000000000
      5494      1832  TIP3      OH2           -39.1810462818        4.7622448903       -9.2209431047  W2        1832            0.0000000000
      5495      1832  TIP3      H1            -39.6287062818        5.6081148903       -9.2392931047  W2        1832            0.0000000000
      5496      1832  TIP3      H2            -39.7419262818        4.1826648903       -9.7364331047  W2        1832            0.0000000000
      5497      1833  TIP3      OH2           -38.4704362818        6.9242048903       -7.0951431047  W2        1833            0.0000000000
      5498      1833  TIP3      H1            -38.2570862818        6.1543648903       -6.5678431047  W2        1833            0.0000000000
      5499      1833  TIP3      H2            -37.7326762818        7.0138748903       -7.6983831047  W2        1833            0.0000000000
      5500      1834  TIP3      OH2           -28.2653362818       15.0810948903       -6.2281731047  W2        1834            0.0000000000
      5501      1834  TIP3      H1            -27.6456962818       14.4045648903       -6.5012531047  W2        1834            0.0000000000
      5502      1834  TIP3      H2            -28.4735962818       14.8631748903       -5.3196831047  W2        1834            0.0000000000
      5503      1835  TIP3      OH2           -30.6934662818        9.4700248903       -4.3356231047  W2        1835            0.0000000000
      5504      1835  TIP3      H1            -30.3896762818        8.7841648903       -4.9302131047  W2        1835            0.0000000000
      5505      1835  TIP3      H2            -29.9720662818        9.5888948903       -3.7178231047  W2        1835            0.0000000000
      5506      1836  TIP3      OH2           -22.0304862818        1.0715548903       -3.4750031047  W2        1836            0.0000000000
      5507      1836  TIP3      H1            -21.9812662818        1.6816748903       -2.7390931047  W2        1836            0.0000000000
      5508      1836  TIP3      H2            -21.6049762818        1.5326448903       -4.1978931047  W2        1836            0.0000000000
      5509      1837  TIP3      OH2           -27.5527662818        3.8642648903       -4.0081431047  W2        1837            0.0000000000
      5510      1837  TIP3      H1            -27.4101762818        2.9179648903       -3.9879831047  W2        1837            0.0000000000
      5511      1837  TIP3      H2            -27.6588662818        4.0712448903       -4.9366531047  W2        1837            0.0000000000
      5512      1838  TIP3      OH2           -34.3979362818        1.9659048903       -6.7356631047  W2        1838            0.0000000000
      5513      1838  TIP3      H1            -34.3548262818        2.8257548903       -7.1540331047  W2        1838            0.0000000000
      5514      1838  TIP3      H2            -34.8555262818        1.4133748903       -7.3693431047  W2        1838            0.0000000000
      5515      1839  TIP3      OH2           -26.6756662818        2.0964648903       -8.3348331047  W2        1839            0.0000000000
      5516      1839  TIP3      H1            -26.0292362818        1.7677848903       -7.7100731047  W2        1839            0.0000000000
      5517      1839  TIP3      H2            -26.1657262818        2.6143648903       -8.9576931047  W2        1839            0.0000000000
      5518      1840  TIP3      OH2           -37.7777862818        4.3624848903       -5.9735231047  W2        1840            0.0000000000
      5519      1840  TIP3      H1            -37.1241262818        3.8126548903       -5.5415131047  W2        1840            0.0000000000
      5520      1840  TIP3      H2            -37.7538562818        4.0883848903       -6.8903231047  W2        1840            0.0000000000
      5521      1841  TIP3      OH2           -32.6213362818        5.9126148903       -6.7583731047  W2        1841            0.0000000000
      5522      1841  TIP3      H1            -32.0052362818        5.3861548903       -6.2489731047  W2        1841            0.0000000000
      5523      1841  TIP3      H2            -33.2074562818        5.2724848903       -7.1620131047  W2        1841            0.0000000000
      5524      1842  TIP3      OH2           -21.6390262818        2.5494748903       -1.2390231047  W2        1842            0.0000000000
      5525      1842  TIP3      H1            -22.3275662818        3.2075448903       -1.3343631047  W2        1842            0.0000000000
      5526      1842  TIP3      H2            -21.6235662818        2.3522648903       -0.3024831047  W2        1842            0.0000000000
      5527      1843  TIP3      OH2           -35.5877462818        0.8837448903       -2.6615831047  W2        1843            0.0000000000
      5528      1843  TIP3      H1            -35.8065762818        1.4138048903       -3.4279831047  W2        1843            0.0000000000
      5529      1843  TIP3      H2            -36.2556562818        1.1102948903       -2.0144431047  W2        1843            0.0000000000
      5530      1844  TIP3      OH2           -28.2187662818       10.3838548903       -9.1176731047  W2        1844            0.0000000000
      5531      1844  TIP3      H1            -28.5142562818       10.0610848903       -9.9689831047  W2        1844            0.0000000000
      5532      1844  TIP3      H2            -28.5429862818       11.2835248903       -9.0764131047  W2        1844            0.0000000000
      5533      1845  TIP3      OH2           -33.0186062818        8.5593148903       -2.3742131047  W2        1845            0.0000000000
      5534      1845  TIP3      H1            -33.7586962818        9.1574648903       -2.2706931047  W2        1845            0.0000000000
      5535      1845  TIP3      H2            -32.3046562818        9.1132748903       -2.6898531047  W2        1845            0.0000000000
      5536      1846  TIP3      OH2           -24.9118262818        1.3873948903       -6.3542431047  W2        1846            0.0000000000
      5537      1846  TIP3      H1            -25.1270262818        0.6217348903       -5.8216431047  W2        1846            0.0000000000
      5538      1846  TIP3      H2            -24.2560862818        1.8598548903       -5.8413931047  W2        1846            0.0000000000
      5539      1847  TIP3      OH2           -35.9940162818        2.7759248903       -4.7093631047  W2        1847            0.0000000000
      5540      1847  TIP3      H1            -35.3803862818        3.4086848903       -4.3361231047  W2        1847            0.0000000000
      5541      1847  TIP3      H2            -35.4819462818        2.3034248903       -5.3656731047  W2        1847            0.0000000000
      5542      1848  TIP3      OH2           -34.6111762818       10.5236148903       -1.5870631047  W2        1848            0.0000000000
      5543      1848  TIP3      H1            -34.6164162818       11.4029648903       -1.9651331047  W2        1848            0.0000000000
      5544      1848  TIP3      H2            -35.4647662818       10.4400248903       -1.1620731047  W2        1848            0.0000000000
      5545      1849  TIP3      OH2           -38.4900862818       10.1944048903      -10.8051331047  W2        1849            0.0000000000
      5546      1849  TIP3      H1            -38.7619962818       10.4235048903      -11.6938431047  W2        1849            0.0000000000
      5547      1849  TIP3      H2            -38.4445162818       11.0322848903      -10.3446031047  W2        1849            0.0000000000
      5548      1850  TIP3      OH2           -24.8651162818       11.8159948903       -4.0922831047  W2        1850            0.0000000000
      5549      1850  TIP3      H1            -25.8067462818       11.8743848903       -3.9305931047  W2        1850            0.0000000000
      5550      1850  TIP3      H2            -24.5885062818       12.7220448903       -4.2293131047  W2        1850            0.0000000000
      5551      1851  TIP3      OH2           -24.5644162818        0.1025248903       -2.6748931047  W2        1851            0.0000000000
      5552      1851  TIP3      H1            -25.3004962818        0.7132348903       -2.7127631047  W2        1851            0.0000000000
      5553      1851  TIP3      H2            -23.8810162818        0.5174248903       -3.2012531047  W2        1851            0.0000000000
      5554      1852  TIP3      OH2           -31.5612762818       -1.8107451097       -5.2090931047  W2        1852            0.0000000000
      5555      1852  TIP3      H1            -31.6788562818       -2.7591451097       -5.2632631047  W2        1852            0.0000000000
      5556      1852  TIP3      H2            -32.4162662818       -1.4781351097       -4.9359831047  W2        1852            0.0000000000
      5557      1853  TIP3      OH2           -26.6129962818       13.5973448903       -7.4671231047  W2        1853            0.0000000000
      5558      1853  TIP3      H1            -26.1877662818       12.8901348903       -7.9521631047  W2        1853            0.0000000000
      5559      1853  TIP3      H2            -26.2959962818       14.3986148903       -7.8839031047  W2        1853            0.0000000000
      5560      1854  TIP3      OH2           -25.4533462818       11.4981948903       -8.9584631047  W2        1854            0.0000000000
      5561      1854  TIP3      H1            -25.7108662818       10.8082048903       -9.5698731047  W2        1854            0.0000000000
      5562      1854  TIP3      H2            -25.3822662818       11.0553148903       -8.1128731047  W2        1854            0.0000000000
      5563      1855  TIP3      OH2           -23.7673262818       10.0648648903       -0.4811131047  W2        1855            0.0000000000
      5564      1855  TIP3      H1            -23.6276962818        9.4731148903       -1.2204131047  W2        1855            0.0000000000
      5565      1855  TIP3      H2            -23.6000462818       10.9374548903       -0.8372331047  W2        1855            0.0000000000
      5566      1856  TIP3      OH2           -29.2947862818        7.0268148903      -10.7085131047  W2        1856            0.0000000000
      5567      1856  TIP3      H1            -30.0062362818        7.5617848903      -11.0604631047  W2        1856            0.0000000000
      5568      1856  TIP3      H2            -28.6038262818        7.0820248903      -11.3686231047  W2        1856            0.0000000000
      5569      1857  TIP3      OH2           -29.2408662818        5.4842448903      -13.6700131047  W2        1857            0.0000000000
      5570      1857  TIP3      H1            -28.5398762818        5.5069348903      -13.0186131047  W2        1857            0.0000000000
      5571      1857  TIP3      H2            -28.9385762818        4.8562148903      -14.3260831047  W2        1857            0.0000000000
      5572      1858  TIP3      OH2           -21.9253962818        6.4046648903       -2.4150731047  W2        1858            0.0000000000
      5573      1858  TIP3      H1            -22.5779862818        7.0992248903       -2.3259831047  W2        1858            0.0000000000
      5574      1858  TIP3      H2            -21.4603662818        6.6147548903       -3.2249131047  W2        1858            0.0000000000
      5575      1859  TIP3      OH2           -25.8890162818        7.2361448903       -9.7569231047  W2        1859            0.0000000000
      5576      1859  TIP3      H1            -26.6209162818        7.4645148903       -9.1838631047  W2        1859            0.0000000000
      5577      1859  TIP3      H2            -25.4417962818        6.5224148903       -9.3021731047  W2        1859            0.0000000000
      5578      1860  TIP3      OH2           -25.9916662818        5.4104048903       -0.6892231047  W2        1860            0.0000000000
      5579      1860  TIP3      H1            -25.9117562818        6.1738448903       -0.1173731047  W2        1860            0.0000000000
      5580      1860  TIP3      H2            -26.5928962818        5.6896448903       -1.3797131047  W2        1860            0.0000000000
      5581      1861  TIP3      OH2           -34.2436462818        7.8667648903       -7.8744231047  W2        1861            0.0000000000
      5582      1861  TIP3      H1            -34.5741262818        7.4961048903       -8.6927231047  W2        1861            0.0000000000
      5583      1861  TIP3      H2            -33.6552362818        7.1961648903       -7.5275931047  W2        1861            0.0000000000
      5584      1862  TIP3      OH2           -32.8768962818       11.2948248903       -5.1932031047  W2        1862            0.0000000000
      5585      1862  TIP3      H1            -32.9717662818       10.7161348903       -5.9497431047  W2        1862            0.0000000000
      5586      1862  TIP3      H2            -32.1475362818       10.9233948903       -4.6969231047  W2        1862            0.0000000000
      5587      1863  TIP3      OH2           -33.8770962818        6.6353248903       -4.2409231047  W2        1863            0.0000000000
      5588      1863  TIP3      H1            -33.3118462818        6.7567448903       -5.0038031047  W2        1863            0.0000000000
      5589      1863  TIP3      H2            -33.5582062818        7.2728248903       -3.6020731047  W2        1863            0.0000000000
      5590      1864  TIP3      OH2           -27.5678762818       12.1385148903       -3.5068731047  W2        1864            0.0000000000
      5591      1864  TIP3      H1            -27.8082162818       12.8008248903       -2.8589531047  W2        1864            0.0000000000
      5592      1864  TIP3      H2            -27.7660562818       11.3040348903       -3.0819131047  W2        1864            0.0000000000
      5593      1865  TIP3      OH2           -32.9970262818       11.0345948903        0.4762668953  W2        1865            0.0000000000
      5594      1865  TIP3      H1            -33.3082762818       11.8169148903        0.9315868953  W2        1865            0.0000000000
      5595      1865  TIP3      H2            -33.6470062818       10.8815048903       -0.2095331047  W2        1865            0.0000000000
      5596      1866  TIP3      OH2           -27.0180662818        6.3984348903      -12.0718031047  W2        1866            0.0000000000
      5597      1866  TIP3      H1            -26.4385162818        6.5484648903      -11.3249131047  W2        1866            0.0000000000
      5598      1866  TIP3      H2            -26.6040662818        6.8691748903      -12.7951631047  W2        1866            0.0000000000
      5599      1867  TIP3      OH2           -36.0770362818        7.2327048903       -0.2951631047  W2        1867            0.0000000000
      5600      1867  TIP3      H1            -36.0067162818        7.8833848903        0.4033368953  W2        1867            0.0000000000
      5601      1867  TIP3      H2            -36.9678162818        7.3354548903       -0.6300731047  W2        1867            0.0000000000
      5602      1868  TIP3      OH2           -29.2915762818       13.1352848903       -8.6364931047  W2        1868            0.0000000000
      5603      1868  TIP3      H1            -28.8178162818       13.4309148903       -7.8590731047  W2        1868            0.0000000000
      5604      1868  TIP3      H2            -29.8546462818       13.8734448903       -8.8695331047  W2        1868            0.0000000000
      5605      1869  TIP3      OH2           -34.7574362818       13.1060948903        1.2396468953  W2        1869            0.0000000000
      5606      1869  TIP3      H1            -34.7499062818       12.9700648903        0.2921968953  W2        1869            0.0000000000
      5607      1869  TIP3      H2            -35.6733962818       12.9889048903        1.4916468953  W2        1869            0.0000000000
      5608      1870  TIP3      OH2           -23.3192262818       -1.8515251097      -12.2588331047  W2        1870            0.0000000000
      5609      1870  TIP3      H1            -24.2191562818       -1.7126251097      -11.9637731047  W2        1870            0.0000000000
      5610      1870  TIP3      H2            -23.0673862818       -1.0200651097      -12.6606631047  W2        1870            0.0000000000
      5611      1871  TIP3      OH2           -35.2533762818        6.9361948903      -10.2851431047  W2        1871            0.0000000000
      5612      1871  TIP3      H1            -35.5452462818        7.7043648903      -10.7760131047  W2        1871            0.0000000000
      5613      1871  TIP3      H2            -35.9278562818        6.2768148903      -10.4480031047  W2        1871            0.0000000000
      5614      1872  TIP3      OH2           -22.1300862818       12.5147148903      -13.8824431047  W2        1872            0.0000000000
      5615      1872  TIP3      H1            -22.0567362818       13.4537348903      -13.7119131047  W2        1872            0.0000000000
      5616      1872  TIP3      H2            -21.2245762818       12.2095748903      -13.9387131047  W2        1872            0.0000000000
      5617      1873  TIP3      OH2           -39.1603662818        9.2991148903       -1.4701631047  W2        1873            0.0000000000
      5618      1873  TIP3      H1            -39.6615262818        9.2710548903       -2.2851931047  W2        1873            0.0000000000
      5619      1873  TIP3      H2            -39.1549962818        8.3934348903       -1.1604331047  W2        1873            0.0000000000
      5620      1874  TIP3      OH2           -39.4100962818       12.0794948903       -4.5861431047  W2        1874            0.0000000000
      5621      1874  TIP3      H1            -38.4640362818       11.9351948903       -4.6051931047  W2        1874            0.0000000000
      5622      1874  TIP3      H2            -39.5224662818       12.8637748903       -4.0490231047  W2        1874            0.0000000000
      5623      1875  TIP3      OH2           -21.2122462818       12.7454648903        1.0962268953  W2        1875            0.0000000000
      5624      1875  TIP3      H1            -21.2615662818       11.7902748903        1.0589868953  W2        1875            0.0000000000
      5625      1875  TIP3      H2            -22.0390162818       13.0129948903        1.4976068953  W2        1875            0.0000000000
      5626      1876  TIP3      OH2           -30.2338462818       12.3193848903       -0.0276331047  W2        1876            0.0000000000
      5627      1876  TIP3      H1            -30.1463862818       13.1458448903        0.4472768953  W2        1876            0.0000000000
      5628      1876  TIP3      H2            -31.0973362818       11.9897648903        0.2212968953  W2        1876            0.0000000000
      5629      1877  TIP3      OH2           -29.8192662818       16.0917548903      -10.2215731047  W2        1877            0.0000000000
      5630      1877  TIP3      H1            -29.8946662818       15.9704748903      -11.1680531047  W2        1877            0.0000000000
      5631      1877  TIP3      H2            -29.7863962818       17.0410248903      -10.1031131047  W2        1877            0.0000000000
      5632      1878  TIP3      OH2           -36.1658862818       14.8804548903       -8.4406731047  W2        1878            0.0000000000
      5633      1878  TIP3      H1            -36.0138462818       14.5324948903       -7.5620231047  W2        1878            0.0000000000
      5634      1878  TIP3      H2            -37.0168462818       14.5241848903       -8.6959531047  W2        1878            0.0000000000
      5635      1879  TIP3      OH2           -26.7176662818       15.2457748903      -13.2193331047  W2        1879            0.0000000000
      5636      1879  TIP3      H1            -26.3428262818       14.5013848903      -13.6900731047  W2        1879            0.0000000000
      5637      1879  TIP3      H2            -26.7132962818       14.9758348903      -12.3010031047  W2        1879            0.0000000000
      5638      1880  TIP3      OH2           -27.0488562818       15.1714848903      -10.4701131047  W2        1880            0.0000000000
      5639      1880  TIP3      H1            -27.9838762818       15.2716748903      -10.2914131047  W2        1880            0.0000000000
      5640      1880  TIP3      H2            -26.7686662818       14.4620848903       -9.8917931047  W2        1880            0.0000000000
      5641      1881  TIP3      OH2           -24.0602662818        4.2387148903        1.5764468953  W2        1881            0.0000000000
      5642      1881  TIP3      H1            -24.4675862818        4.7192748903        0.8557768953  W2        1881            0.0000000000
      5643      1881  TIP3      H2            -24.0196962818        3.3333148903        1.2685268953  W2        1881            0.0000000000
      5644      1882  TIP3      OH2           -36.9113162818       10.6226548903       -0.4268831047  W2        1882            0.0000000000
      5645      1882  TIP3      H1            -36.6951862818       10.2612148903        0.4326968953  W2        1882            0.0000000000
      5646      1882  TIP3      H2            -37.7668462818       10.2480348903       -0.6365331047  W2        1882            0.0000000000
      5647      1883  TIP3      OH2           -34.2925162818       -0.9072951097       -4.4314631047  W2        1883            0.0000000000
      5648      1883  TIP3      H1            -35.1541462818       -0.9944751097       -4.8391731047  W2        1883            0.0000000000
      5649      1883  TIP3      H2            -34.3149462818       -0.0512851097       -4.0037031047  W2        1883            0.0000000000
      5650      1884  TIP3      OH2           -29.6297362818       -1.1852551097       -1.0567631047  W2        1884            0.0000000000
      5651      1884  TIP3      H1            -29.2094262818       -1.6005451097       -0.3037031047  W2        1884            0.0000000000
      5652      1884  TIP3      H2            -30.5627762818       -1.3639251097       -0.9395631047  W2        1884            0.0000000000
      5653      1885  TIP3      OH2           -26.3032462818        2.5702648903       -0.2033131047  W2        1885            0.0000000000
      5654      1885  TIP3      H1            -26.8172962818        2.4444848903        0.5942868953  W2        1885            0.0000000000
      5655      1885  TIP3      H2            -26.4587762818        3.4825748903       -0.4476931047  W2        1885            0.0000000000
      5656      1886  TIP3      OH2           -25.5407562818        7.4312648903      -14.4420131047  W2        1886            0.0000000000
      5657      1886  TIP3      H1            -25.4986762818        7.2086548903      -15.3720131047  W2        1886            0.0000000000
      5658      1886  TIP3      H2            -24.6915462818        7.8299748903      -14.2520231047  W2        1886            0.0000000000
      5659      1887  TIP3      OH2           -29.9680062818        1.3070848903      -13.7716831047  W2        1887            0.0000000000
      5660      1887  TIP3      H1            -30.2215262818        1.3262448903      -12.8488731047  W2        1887            0.0000000000
      5661      1887  TIP3      H2            -30.2247962818        0.4356248903      -14.0730631047  W2        1887            0.0000000000
      5662      1888  TIP3      OH2           -34.2015062818        4.0581548903       -3.3364431047  W2        1888            0.0000000000
      5663      1888  TIP3      H1            -34.8432962818        4.0178848903       -2.6274331047  W2        1888            0.0000000000
      5664      1888  TIP3      H2            -34.1643062818        4.9846248903       -3.5741431047  W2        1888            0.0000000000
      5665      1889  TIP3      OH2           -34.2045962818        4.2791648903       -8.4244431047  W2        1889            0.0000000000
      5666      1889  TIP3      H1            -35.0973062818        3.9387748903       -8.4830631047  W2        1889            0.0000000000
      5667      1889  TIP3      H2            -33.7539362818        3.9022548903       -9.1801231047  W2        1889            0.0000000000
      5668      1890  TIP3      OH2           -28.6690462818        4.6951948903       -9.6073631047  W2        1890            0.0000000000
      5669      1890  TIP3      H1            -29.0780162818        5.5100548903       -9.8988831047  W2        1890            0.0000000000
      5670      1890  TIP3      H2            -27.9484262818        4.5552048903      -10.2216531047  W2        1890            0.0000000000
      5671      1891  TIP3      OH2           -29.5668862818        4.8708348903        1.8807068953  W2        1891            0.0000000000
      5672      1891  TIP3      H1            -30.1295062818        4.1659948903        2.2014868953  W2        1891            0.0000000000
      5673      1891  TIP3      H2            -28.7405462818        4.7500248903        2.3484668953  W2        1891            0.0000000000
      5674      1892  TIP3      OH2           -27.6642762818        4.1412348903       -6.7933931047  W2        1892            0.0000000000
      5675      1892  TIP3      H1            -27.8598262818        4.7469148903       -7.5083331047  W2        1892            0.0000000000
      5676      1892  TIP3      H2            -27.4830162818        3.3077548903       -7.2277631047  W2        1892            0.0000000000
      5677      1893  TIP3      OH2           -36.4514562818        4.3785048903       -1.4692431047  W2        1893            0.0000000000
      5678      1893  TIP3      H1            -36.4895162818        4.7786648903       -0.6005331047  W2        1893            0.0000000000
      5679      1893  TIP3      H2            -36.9423462818        3.5617448903       -1.3789531047  W2        1893            0.0000000000
      5680      1894  TIP3      OH2           -33.0857162818        1.7527348903      -14.6706431047  W2        1894            0.0000000000
      5681      1894  TIP3      H1            -33.5166462818        1.3077448903      -13.9409031047  W2        1894            0.0000000000
      5682      1894  TIP3      H2            -33.8038462818        2.1243648903      -15.1828931047  W2        1894            0.0000000000
      5683      1895  TIP3      OH2           -39.8433762818        1.4946848903       -7.6187731047  W2        1895            0.0000000000
      5684      1895  TIP3      H1            -39.2126062818        1.4658948903       -6.8993831047  W2        1895            0.0000000000
      5685      1895  TIP3      H2            -39.3939462818        1.0695548903       -8.3491831047  W2        1895            0.0000000000
      5686      1896  TIP3      OH2           -38.5691662818        2.2408848903      -12.1947331047  W2        1896            0.0000000000
      5687      1896  TIP3      H1            -38.0949962818        2.8318748903      -12.7796431047  W2        1896            0.0000000000
      5688      1896  TIP3      H2            -39.2865262818        2.7711748903      -11.8477231047  W2        1896            0.0000000000
      5689      1897  TIP3      OH2           -28.4003562818        5.7793648903       -2.1221531047  W2        1897            0.0000000000
      5690      1897  TIP3      H1            -28.0768762818        5.1483348903       -2.7651031047  W2        1897            0.0000000000
      5691      1897  TIP3      H2            -28.8404262818        5.2445848903       -1.4614131047  W2        1897            0.0000000000
      5692      1898  TIP3      OH2           -31.6230662818        1.7069148903       -7.3380331047  W2        1898            0.0000000000
      5693      1898  TIP3      H1            -32.5339562818        1.7635948903       -7.0494331047  W2        1898            0.0000000000
      5694      1898  TIP3      H2            -31.1177762818        1.6464648903       -6.5273131047  W2        1898            0.0000000000
      5695      1899  TIP3      OH2           -36.7947262818        3.3355448903       -8.5112731047  W2        1899            0.0000000000
      5696      1899  TIP3      H1            -37.6839262818        3.4350948903       -8.8513131047  W2        1899            0.0000000000
      5697      1899  TIP3      H2            -36.4982362818        2.4938448903       -8.8574831047  W2        1899            0.0000000000
      5698      1900  TIP3      OH2           -33.1415462818        3.3358048903      -10.8548131047  W2        1900            0.0000000000
      5699      1900  TIP3      H1            -32.2099962818        3.4648048903      -10.6765031047  W2        1900            0.0000000000
      5700      1900  TIP3      H2            -33.3565162818        4.0052348903      -11.5043431047  W2        1900            0.0000000000
      5701      1901  TIP3      OH2           -27.2178762818        0.9415448903       -4.0738531047  W2        1901            0.0000000000
      5702      1901  TIP3      H1            -27.8947162818        1.0728548903       -3.4098831047  W2        1901            0.0000000000
      5703      1901  TIP3      H2            -27.7033862818        0.7864948903       -4.8840831047  W2        1901            0.0000000000
      5704      1902  TIP3      OH2           -34.4675262818        4.5300248903      -13.2882031047  W2        1902            0.0000000000
      5705      1902  TIP3      H1            -35.0100162818        4.1504048903      -13.9794431047  W2        1902            0.0000000000
      5706      1902  TIP3      H2            -33.6340362818        4.7244948903      -13.7167931047  W2        1902            0.0000000000
      5707      1903  TIP3      OH2           -23.9303662818       16.6130848903        2.2029068953  W2        1903            0.0000000000
      5708      1903  TIP3      H1            -23.7304962818       17.0372748903        1.3684368953  W2        1903            0.0000000000
      5709      1903  TIP3      H2            -23.2749962818       16.9569048903        2.8099468953  W2        1903            0.0000000000
      5710      1904  TIP3      OH2           -36.3323862818        9.0872148903        1.8109568953  W2        1904            0.0000000000
      5711      1904  TIP3      H1            -35.6001462818        9.3418048903        2.3724068953  W2        1904            0.0000000000
      5712      1904  TIP3      H2            -37.1125162818        9.2917548903        2.3264968953  W2        1904            0.0000000000
      5713      1905  TIP3      OH2           -30.3030962818        4.4942148903       -5.4510731047  W2        1905            0.0000000000
      5714      1905  TIP3      H1            -29.7387562818        3.9478748903       -5.9981131047  W2        1905            0.0000000000
      5715      1905  TIP3      H2            -30.4507562818        3.9724048903       -4.6623131047  W2        1905            0.0000000000
      5716      1906  TIP3      OH2           -35.3011262818        0.6308248903       -9.0325931047  W2        1906            0.0000000000
      5717      1906  TIP3      H1            -35.6181762818       -0.2716451097       -9.0680531047  W2        1906            0.0000000000
      5718      1906  TIP3      H2            -34.5197162818        0.6325648903       -9.5854331047  W2        1906            0.0000000000
      5719      1907  TIP3      OH2           -31.6765062818        2.8828248903       -3.0370331047  W2        1907            0.0000000000
      5720      1907  TIP3      H1            -32.5119762818        3.3367748903       -2.9267931047  W2        1907            0.0000000000
      5721      1907  TIP3      H2            -31.1524462818        3.1586748903       -2.2850431047  W2        1907            0.0000000000
      5722      1908  TIP3      OH2           -31.1322462818        9.0955948903      -11.3523931047  W2        1908            0.0000000000
      5723      1908  TIP3      H1            -31.8771462818        8.5881248903      -11.6746031047  W2        1908            0.0000000000
      5724      1908  TIP3      H2            -31.2665262818        9.1443948903      -10.4059131047  W2        1908            0.0000000000
      5725      1909  TIP3      OH2           -23.9823562818        8.2284148903       -2.5656331047  W2        1909            0.0000000000
      5726      1909  TIP3      H1            -23.3404762818        8.6850448903       -3.1094131047  W2        1909            0.0000000000
      5727      1909  TIP3      H2            -24.8126662818        8.3416548903       -3.0282231047  W2        1909            0.0000000000
      5728      1910  TIP3      OH2           -27.2345662818        1.9095848903      -13.1531331047  W2        1910            0.0000000000
      5729      1910  TIP3      H1            -28.1731462818        2.0211448903      -13.3042531047  W2        1910            0.0000000000
      5730      1910  TIP3      H2            -26.9373562818        2.7662748903      -12.8465631047  W2        1910            0.0000000000
      5731      1911  TIP3      OH2           -29.6130362818        9.2799248903       -0.1154831047  W2        1911            0.0000000000
      5732      1911  TIP3      H1            -29.9584262818        8.8981648903        0.6914768953  W2        1911            0.0000000000
      5733      1911  TIP3      H2            -29.8130262818       10.2132848903       -0.0441931047  W2        1911            0.0000000000
      5734      1912  TIP3      OH2           -26.5162162818        3.7768548903      -11.4923931047  W2        1912            0.0000000000
      5735      1912  TIP3      H1            -25.6243162818        3.6393548903      -11.1732731047  W2        1912            0.0000000000
      5736      1912  TIP3      H2            -26.4598562818        4.5674648903      -12.0290431047  W2        1912            0.0000000000
      5737      1913  TIP3      OH2           -36.0074162818        8.3905948903       -5.5826031047  W2        1913            0.0000000000
      5738      1913  TIP3      H1            -35.2626962818        8.3881648903       -6.1839531047  W2        1913            0.0000000000
      5739      1913  TIP3      H2            -35.9297562818        7.5669748903       -5.1010931047  W2        1913            0.0000000000
      5740      1914  TIP3      OH2           -29.0068362818       10.5540248903      -12.3269331047  W2        1914            0.0000000000
      5741      1914  TIP3      H1            -29.3019962818       11.3808148903      -11.9454531047  W2        1914            0.0000000000
      5742      1914  TIP3      H2            -29.7098362818        9.9347148903      -12.1307931047  W2        1914            0.0000000000
      5743      1915  TIP3      OH2           -38.9994462818        6.8512848903       -0.2677531047  W2        1915            0.0000000000
      5744      1915  TIP3      H1            -38.7765862818        6.4332448903        0.5639968953  W2        1915            0.0000000000
      5745      1915  TIP3      H2            -39.6014362818        6.2387848903       -0.6904731047  W2        1915            0.0000000000
      5746      1916  TIP3      OH2           -31.9829562818        6.3682748903        1.9452168953  W2        1916            0.0000000000
      5747      1916  TIP3      H1            -32.2788762818        6.2025748903        1.0501268953  W2        1916            0.0000000000
      5748      1916  TIP3      H2            -31.0514362818        6.1483048903        1.9346068953  W2        1916            0.0000000000
      5749      1917  TIP3      OH2           -27.3626762818       11.7414748903       -0.1649831047  W2        1917            0.0000000000
      5750      1917  TIP3      H1            -28.2632462818       11.9247348903       -0.4325931047  W2        1917            0.0000000000
      5751      1917  TIP3      H2            -27.3285662818       12.0004048903        0.7558968953  W2        1917            0.0000000000
      5752      1918  TIP3      OH2           -21.6313462818        3.9862648903      -11.7977231047  W2        1918            0.0000000000
      5753      1918  TIP3      H1            -22.1857162818        3.5900648903      -12.4699731047  W2        1918            0.0000000000
      5754      1918  TIP3      H2            -21.5309862818        4.8967848903      -12.0753931047  W2        1918            0.0000000000
      5755      1919  TIP3      OH2           -21.6681462818        9.7864348903        1.0394268953  W2        1919            0.0000000000
      5756      1919  TIP3      H1            -22.5192962818       10.0248148903        0.6720668953  W2        1919            0.0000000000
      5757      1919  TIP3      H2            -21.0778062818        9.7697548903        0.2861368953  W2        1919            0.0000000000
      5758      1920  TIP3      OH2           -23.3361762818       12.7723048903      -11.3325131047  W2        1920            0.0000000000
      5759      1920  TIP3      H1            -23.7090662818       11.9466848903      -11.0234531047  W2        1920            0.0000000000
      5760      1920  TIP3      H2            -23.0588262818       12.5892448903      -12.2301731047  W2        1920            0.0000000000
      5761      1921  TIP3      OH2           -26.1757862818        7.5802548903       -4.3113231047  W2        1921            0.0000000000
      5762      1921  TIP3      H1            -27.1040962818        7.3484448903       -4.3383931047  W2        1921            0.0000000000
      5763      1921  TIP3      H2            -25.7246762818        6.8032348903       -4.6414431047  W2        1921            0.0000000000
      5764      1922  TIP3      OH2           -33.6324762818       11.9084148903       -8.1784531047  W2        1922            0.0000000000
      5765      1922  TIP3      H1            -33.1052562818       12.6818548903       -8.3785731047  W2        1922            0.0000000000
      5766      1922  TIP3      H2            -34.5126262818       12.1333348903       -8.4800531047  W2        1922            0.0000000000
      5767      1923  TIP3      OH2           -37.8777062818        6.7708248903      -13.5912131047  W2        1923            0.0000000000
      5768      1923  TIP3      H1            -37.2617162818        7.3975448903      -13.2117331047  W2        1923            0.0000000000
      5769      1923  TIP3      H2            -38.7394462818        7.0868048903      -13.3195631047  W2        1923            0.0000000000
      5770      1924  TIP3      OH2           -32.2052462818        9.5714048903       -8.6020231047  W2        1924            0.0000000000
      5771      1924  TIP3      H1            -32.4462462818       10.4968448903       -8.5604931047  W2        1924            0.0000000000
      5772      1924  TIP3      H2            -32.9458862818        9.1125348903       -8.2056331047  W2        1924            0.0000000000
      5773      1925  TIP3      OH2           -31.6905862818       13.7207648903       -2.2869131047  W2        1925            0.0000000000
      5774      1925  TIP3      H1            -31.3281162818       14.5753248903       -2.5204731047  W2        1925            0.0000000000
      5775      1925  TIP3      H2            -31.1590662818       13.4289248903       -1.5462831047  W2        1925            0.0000000000
      5776      1926  TIP3      OH2           -33.5221662818       14.5931648903       -9.0568031047  W2        1926            0.0000000000
      5777      1926  TIP3      H1            -34.4721162818       14.6989048903       -9.0054731047  W2        1926            0.0000000000
      5778      1926  TIP3      H2            -33.1703562818       15.4139048903       -8.7120531047  W2        1926            0.0000000000
      5779      1927  TIP3      OH2           -28.1465062818        9.8198348903       -2.5863531047  W2        1927            0.0000000000
      5780      1927  TIP3      H1            -28.5723762818        9.5920048903       -1.7599531047  W2        1927            0.0000000000
      5781      1927  TIP3      H2            -27.5659262818        9.0810148903       -2.7688231047  W2        1927            0.0000000000
      5782      1928  TIP3      OH2           -25.9436162818       10.7488848903      -13.5124531047  W2        1928            0.0000000000
      5783      1928  TIP3      H1            -25.5903062818       10.3688648903      -12.7081031047  W2        1928            0.0000000000
      5784      1928  TIP3      H2            -26.8922662818       10.6553648903      -13.4255231047  W2        1928            0.0000000000
      5785      1929  TIP3      OH2           -25.4880862818       14.3717848903       -0.1168731047  W2        1929            0.0000000000
      5786      1929  TIP3      H1            -26.0897662818       13.8160748903       -0.6122431047  W2        1929            0.0000000000
      5787      1929  TIP3      H2            -25.2067162818       15.0387648903       -0.7431331047  W2        1929            0.0000000000
      5788      1930  TIP3      OH2           -21.4401762818       15.2281348903      -13.3114331047  W2        1930            0.0000000000
      5789      1930  TIP3      H1            -20.6963862818       15.8141848903      -13.4512731047  W2        1930            0.0000000000
      5790      1930  TIP3      H2            -22.1343662818       15.7967148903      -12.9781931047  W2        1930            0.0000000000
      5791      1931  TIP3      OH2           -37.3654962818        1.6045548903       -0.7096131047  W2        1931            0.0000000000
      5792      1931  TIP3      H1            -38.2582662818        1.9430948903       -0.7772131047  W2        1931            0.0000000000
      5793      1931  TIP3      H2            -37.4642162818        0.7491648903       -0.2915331047  W2        1931            0.0000000000
      5794      1932  TIP3      OH2           -25.0776862818        9.4210848903      -11.2856631047  W2        1932            0.0000000000
      5795      1932  TIP3      H1            -25.3549262818        8.6930148903      -10.7295531047  W2        1932            0.0000000000
      5796      1932  TIP3      H2            -24.1503862818        9.5402848903      -11.0804031047  W2        1932            0.0000000000
      5797      1933  TIP3      OH2           -37.7142962818       13.4089948903       -2.2746731047  W2        1933            0.0000000000
      5798      1933  TIP3      H1            -37.4972662818       12.4772348903       -2.3057031047  W2        1933            0.0000000000
      5799      1933  TIP3      H2            -37.4679462818       13.6834948903       -1.3913931047  W2        1933            0.0000000000
      5800      1934  TIP3      OH2           -31.8528362818       11.8604948903      -15.0654531047  W2        1934            0.0000000000
      5801      1934  TIP3      H1            -31.6138562818       11.1123048903      -15.6125631047  W2        1934            0.0000000000
      5802      1934  TIP3      H2            -32.1217062818       11.4726648903      -14.2326731047  W2        1934            0.0000000000
      5803      1935  TIP3      OH2           -32.9157762818       11.4308748903      -12.6091931047  W2        1935            0.0000000000
      5804      1935  TIP3      H1            -32.7689762818       10.9108548903      -11.8191031047  W2        1935            0.0000000000
      5805      1935  TIP3      H2            -32.9186062818       12.3376348903      -12.3026031047  W2        1935            0.0000000000
      5806      1936  TIP3      OH2           -36.4626662818        8.6832048903      -12.0986531047  W2        1936            0.0000000000
      5807      1936  TIP3      H1            -37.1487362818        9.0354548903      -11.5316831047  W2        1936            0.0000000000
      5808      1936  TIP3      H2            -35.9398762818        9.4461648903      -12.3452231047  W2        1936            0.0000000000
      5809      1937  TIP3      OH2           -28.6311562818        1.3455848903       -1.8197531047  W2        1937            0.0000000000
      5810      1937  TIP3      H1            -27.9323662818        1.4194548903       -1.1697831047  W2        1937            0.0000000000
      5811      1937  TIP3      H2            -29.0120162818        0.4810848903       -1.6654631047  W2        1937            0.0000000000
      5812      1938  TIP3      OH2           -27.8466662818        0.9977548903      -10.7225231047  W2        1938            0.0000000000
      5813      1938  TIP3      H1            -27.6268362818        1.4692948903      -11.5259831047  W2        1938            0.0000000000
      5814      1938  TIP3      H2            -27.2882662818        1.3920148903      -10.0524631047  W2        1938            0.0000000000
      5815      1939  TIP3      OH2           -30.1780562818       13.1282348903      -11.8597731047  W2        1939            0.0000000000
      5816      1939  TIP3      H1            -30.9944462818       13.6252048903      -11.8073431047  W2        1939            0.0000000000
      5817      1939  TIP3      H2            -29.6484262818       13.6035848903      -12.4998931047  W2        1939            0.0000000000
      5818      1940  TIP3      OH2           -30.6466762818        2.7256348903       -9.8876831047  W2        1940            0.0000000000
      5819      1940  TIP3      H1            -29.8344162818        3.2299548903       -9.8415131047  W2        1940            0.0000000000
      5820      1940  TIP3      H2            -30.8913762818        2.5806048903       -8.9737231047  W2        1940            0.0000000000
      5821      1941  TIP3      OH2           -30.1110362818        3.7119048903       -0.7030231047  W2        1941            0.0000000000
      5822      1941  TIP3      H1            -29.9920062818        4.2854448903        0.0540168953  W2        1941            0.0000000000
      5823      1941  TIP3      H2            -29.4555762818        3.0238448903       -0.5882431047  W2        1941            0.0000000000
      5824      1942  TIP3      OH2           -29.7630062818       -0.1930651097       -8.9495731047  W2        1942            0.0000000000
      5825      1942  TIP3      H1            -30.1096562818        0.4239948903       -8.3051431047  W2        1942            0.0000000000
      5826      1942  TIP3      H2            -29.1043162818        0.3075048903       -9.4310231047  W2        1942            0.0000000000
      5827      1943  TIP3      OH2           -32.8397462818       14.1719548903      -11.8780831047  W2        1943            0.0000000000
      5828      1943  TIP3      H1            -32.6788762818       14.9717048903      -12.3788231047  W2        1943            0.0000000000
      5829      1943  TIP3      H2            -33.0369662818       14.4785548903      -10.9930231047  W2        1943            0.0000000000
      5830      1944  TIP3      OH2           -34.1053062818        0.8698748903      -12.2623231047  W2        1944            0.0000000000
      5831      1944  TIP3      H1            -34.1888262818        1.7581848903      -11.9156831047  W2        1944            0.0000000000
      5832      1944  TIP3      H2            -33.2152762818        0.6045448903      -12.0306431047  W2        1944            0.0000000000
      5833      1945  TIP3      OH2           -23.9064562818        1.6189348903        0.1319468953  W2        1945            0.0000000000
      5834      1945  TIP3      H1            -24.8228762818        1.8811048903        0.0443168953  W2        1945            0.0000000000
      5835      1945  TIP3      H2            -23.5709562818        1.6158348903       -0.7645231047  W2        1945            0.0000000000
      5836      1946  TIP3      OH2           -25.3043562818        5.3690348903       -5.7723231047  W2        1946            0.0000000000
      5837      1946  TIP3      H1            -26.1019162818        4.9540548903       -6.1008231047  W2        1946            0.0000000000
      5838      1946  TIP3      H2            -24.8592462818        4.6784048903       -5.2812731047  W2        1946            0.0000000000
      5839      1947  TIP3      OH2           -35.8467762818       11.2970948903      -13.2018731047  W2        1947            0.0000000000
      5840      1947  TIP3      H1            -35.2546262818       11.9965748903      -12.9256331047  W2        1947            0.0000000000
      5841      1947  TIP3      H2            -35.3874762818       10.8640448903      -13.9214131047  W2        1947            0.0000000000
      5842      1948  TIP3      OH2           -37.5308562818        3.9613948903      -14.0859331047  W2        1948            0.0000000000
      5843      1948  TIP3      H1            -37.5755962818        4.9007048903      -13.9072331047  W2        1948            0.0000000000
      5844      1948  TIP3      H2            -38.4185362818        3.7258848903      -14.3557231047  W2        1948            0.0000000000
      5845      1949  TIP3      OH2           -24.2178962818       14.6252848903       -4.1499731047  W2        1949            0.0000000000
      5846      1949  TIP3      H1            -24.3734662818       15.3037248903       -4.8070431047  W2        1949            0.0000000000
      5847      1949  TIP3      H2            -23.2852562818       14.6972148903       -3.9469131047  W2        1949            0.0000000000
      5848      1950  TIP3      OH2           -36.7226562818       -1.2569451097       -5.4128331047  W2        1950            0.0000000000
      5849      1950  TIP3      H1            -36.9516762818       -1.1976951097       -6.3403331047  W2        1950            0.0000000000
      5850      1950  TIP3      H2            -37.1653162818       -2.0483951097       -5.1064231047  W2        1950            0.0000000000
      5851      1951  TIP3      OH2           -37.7923262818       12.6837648903       -9.2522531047  W2        1951            0.0000000000
      5852      1951  TIP3      H1            -38.6244662818       13.1560348903       -9.2251131047  W2        1951            0.0000000000
      5853      1951  TIP3      H2            -37.2464962818       13.1935248903       -9.8509431047  W2        1951            0.0000000000
      5854      1952  TIP3      OH2           -38.5039562818       15.2961348903        2.0775468953  W2        1952            0.0000000000
      5855      1952  TIP3      H1            -37.9637362818       15.0795348903        2.8374668953  W2        1952            0.0000000000
      5856      1952  TIP3      H2            -38.9851562818       14.4907348903        1.8877968953  W2        1952            0.0000000000
      5857      1953  TIP3      OH2           -33.9066162818       14.2155748903        3.6979668953  W2        1953            0.0000000000
      5858      1953  TIP3      H1            -33.1388962818       13.7566548903        4.0388868953  W2        1953            0.0000000000
      5859      1953  TIP3      H2            -33.9279962818       13.9895548903        2.7680868953  W2        1953            0.0000000000
      5860      1954  TIP3      OH2           -29.8146562818       13.7236348903      -14.9268531047  W2        1954            0.0000000000
      5861      1954  TIP3      H1            -30.4585562818       13.0924948903      -14.6054831047  W2        1954            0.0000000000
      5862      1954  TIP3      H2            -29.0528262818       13.1924348903      -15.1585031047  W2        1954            0.0000000000
      5863      1955  TIP3      OH2           -27.3297462818       12.5956848903        2.4271168953  W2        1955            0.0000000000
      5864      1955  TIP3      H1            -27.6807962818       11.7389848903        2.6701568953  W2        1955            0.0000000000
      5865      1955  TIP3      H2            -26.6034262818       12.7383548903        3.0340168953  W2        1955            0.0000000000
      5866      1956  TIP3      OH2           -25.2103662818       13.5406248903      -14.6930531047  W2        1956            0.0000000000
      5867      1956  TIP3      H1            -24.9273262818       12.7461448903      -14.2403631047  W2        1956            0.0000000000
      5868      1956  TIP3      H2            -24.4705762818       13.7737248903      -15.2539431047  W2        1956            0.0000000000
      5869      1957  TIP3      OH2           -38.5970062818        9.1065448903        3.0319768953  W2        1957            0.0000000000
      5870      1957  TIP3      H1            -38.4529562818        8.2046148903        2.7456468953  W2        1957            0.0000000000
      5871      1957  TIP3      H2            -39.3692662818        9.3927548903        2.5442068953  W2        1957            0.0000000000
      5872      1958  TIP3      OH2           -34.2556362818        9.4501148903      -14.8355631047  W2        1958            0.0000000000
      5873      1958  TIP3      H1            -34.1912262818        8.6560748903      -14.3049231047  W2        1958            0.0000000000
      5874      1958  TIP3      H2            -33.6027162818        9.3313948903      -15.5253631047  W2        1958            0.0000000000
      5875      1959  TIP3      OH2           -31.9413962818        9.0763548903        2.4646168953  W2        1959            0.0000000000
      5876      1959  TIP3      H1            -32.2700162818        9.3471648903        1.6073568953  W2        1959            0.0000000000
      5877      1959  TIP3      H2            -31.7895762818        8.1353348903        2.3771168953  W2        1959            0.0000000000
      5878      1960  TIP3      OH2           -28.9032962818       10.4972848903      -15.0997631047  W2        1960            0.0000000000
      5879      1960  TIP3      H1            -29.1718862818       10.6774948903      -14.1988731047  W2        1960            0.0000000000
      5880      1960  TIP3      H2            -29.1097362818        9.5719048903      -15.2311831047  W2        1960            0.0000000000
      5881      1961  TIP3      OH2           -26.2068762818        8.9920848903       -0.1521531047  W2        1961            0.0000000000
      5882      1961  TIP3      H1            -25.4613962818        9.5804548903       -0.2717531047  W2        1961            0.0000000000
      5883      1961  TIP3      H2            -26.9641962818        9.5740548903       -0.0888431047  W2        1961            0.0000000000
      5884      1962  TIP3      OH2           -37.7643562818        6.3068748903        2.4519068953  W2        1962            0.0000000000
      5885      1962  TIP3      H1            -37.3562362818        5.4495348903        2.3309668953  W2        1962            0.0000000000
      5886      1962  TIP3      H2            -38.0245962818        6.3210048903        3.3729368953  W2        1962            0.0000000000
      5887      1963  TIP3      OH2           -33.1062562818        7.4227348903      -12.5297631047  W2        1963            0.0000000000
      5888      1963  TIP3      H1            -33.5660562818        6.9385648903      -11.8439131047  W2        1963            0.0000000000
      5889      1963  TIP3      H2            -32.8513862818        6.7542748903      -13.1657131047  W2        1963            0.0000000000
      5890      1964  TIP3      OH2           -33.8173262818        5.3154448903       -0.1738031047  W2        1964            0.0000000000
      5891      1964  TIP3      H1            -34.4357162818        5.9901048903        0.1066668953  W2        1964            0.0000000000
      5892      1964  TIP3      H2            -33.4732062818        5.6368348903       -1.0071831047  W2        1964            0.0000000000
      5893      1965  TIP3      OH2           -32.0352162818        5.6659148903      -14.2674431047  W2        1965            0.0000000000
      5894      1965  TIP3      H1            -32.2157162818        5.5110348903      -15.1946131047  W2        1965            0.0000000000
      5895      1965  TIP3      H2            -31.0851662818        5.7737848903      -14.2226531047  W2        1965            0.0000000000
      5896      1966  TIP3      OH2           -28.7975062818        7.7869748903        3.1036768953  W2        1966            0.0000000000
      5897      1966  TIP3      H1            -27.8443862818        7.8708848903        3.0762768953  W2        1966            0.0000000000
      5898      1966  TIP3      H2            -28.9580462818        7.0751548903        3.7231668953  W2        1966            0.0000000000
      5899      1967  TIP3      OH2           -22.6453862818        8.0203348903      -14.8216331047  W2        1967            0.0000000000
      5900      1967  TIP3      H1            -22.9189062818        7.5958848903      -15.6348031047  W2        1967            0.0000000000
      5901      1967  TIP3      H2            -22.6059762818        8.9517848903      -15.0385931047  W2        1967            0.0000000000
      5902      1968  TIP3      OH2           -33.4779562818        2.6705248903        0.9085068953  W2        1968            0.0000000000
      5903      1968  TIP3      H1            -33.3278662818        1.9416548903        0.3064768953  W2        1968            0.0000000000
      5904      1968  TIP3      H2            -33.4757162818        3.4476948903        0.3497268953  W2        1968            0.0000000000
      5905      1969  TIP3      OH2           -33.0653862818        1.0401048903       -1.5987531047  W2        1969            0.0000000000
      5906      1969  TIP3      H1            -32.5296362818        1.4917748903       -2.2508231047  W2        1969            0.0000000000
      5907      1969  TIP3      H2            -33.9174262818        0.9320848903       -2.0213431047  W2        1969            0.0000000000
      5908      1970  TIP3      OH2           -31.4835462818        6.4797248903       -1.3592331047  W2        1970            0.0000000000
      5909      1970  TIP3      H1            -30.7330662818        6.3234748903       -1.9324531047  W2        1970            0.0000000000
      5910      1970  TIP3      H2            -31.8227162818        7.3313848903       -1.6346831047  W2        1970            0.0000000000
      5911      1971  TIP3      OH2           -27.0679262818        4.2949048903        3.6692968953  W2        1971            0.0000000000
      5912      1971  TIP3      H1            -26.8757962818        3.3638448903        3.5577468953  W2        1971            0.0000000000
      5913      1971  TIP3      H2            -26.2102962818        4.7198548903        3.6588368953  W2        1971            0.0000000000
      5914      1972  TIP3      OH2           -25.7512062818        7.0834248903        1.7465668953  W2        1972            0.0000000000
      5915      1972  TIP3      H1            -26.0327062818        7.7928848903        1.1689468953  W2        1972            0.0000000000
      5916      1972  TIP3      H2            -24.8087762818        7.0107248903        1.5956868953  W2        1972            0.0000000000
      5917      1973  TIP3      OH2           -34.9993262818        3.8688748903        2.8200668953  W2        1973            0.0000000000
      5918      1973  TIP3      H1            -35.7664262818        3.3363548903        2.6098268953  W2        1973            0.0000000000
      5919      1973  TIP3      H2            -34.3204262818        3.5589148903        2.2206968953  W2        1973            0.0000000000
      5920      1974  TIP3      OH2           -32.2598362818       -1.5033251097       -1.1673931047  W2        1974            0.0000000000
      5921      1974  TIP3      H1            -32.3578762818       -0.5570051097       -1.2727731047  W2        1974            0.0000000000
      5922      1974  TIP3      H2            -33.0022162818       -1.8759451097       -1.6430431047  W2        1974            0.0000000000
      5923      1975  TIP3      OH2           -30.9957862818        2.8182148903        2.3964468953  W2        1975            0.0000000000
      5924      1975  TIP3      H1            -31.2312462818        2.5988848903        3.2979368953  W2        1975            0.0000000000
      5925      1975  TIP3      H2            -31.7790962818        2.6113348903        1.8866968953  W2        1975            0.0000000000
      5926      1976  TIP3      OH2           -28.2801262818        1.9455648903        1.4717968953  W2        1976            0.0000000000
      5927      1976  TIP3      H1            -29.2275862818        1.9775348903        1.6041268953  W2        1976            0.0000000000
      5928      1976  TIP3      H2            -27.9674562818        1.3202748903        2.1256168953  W2        1976            0.0000000000
      5929      1977  TIP3      OH2           -26.6459762818        0.5796748903        3.4769868953  W2        1977            0.0000000000
      5930      1977  TIP3      H1            -26.7427962818       -0.3725951097        3.4711768953  W2        1977            0.0000000000
      5931      1977  TIP3      H2            -26.9676662818        0.8483548903        4.3375368953  W2        1977            0.0000000000
      5932      1978  TIP3      OH2           -36.8190462818        1.7892548903        2.5245368953  W2        1978            0.0000000000
      5933      1978  TIP3      H1            -36.6073062818        1.0828648903        1.9142868953  W2        1978            0.0000000000
      5934      1978  TIP3      H2            -36.9302962818        1.3518548903        3.3686568953  W2        1978            0.0000000000
      5935      1979  TIP3      OH2           -32.0380262818       -2.2095851097        1.5038868953  W2        1979            0.0000000000
      5936      1979  TIP3      H1            -31.3261862818       -2.8493651097        1.4897968953  W2        1979            0.0000000000
      5937      1979  TIP3      H2            -32.1389862818       -1.9427551097        0.5901968953  W2        1979            0.0000000000
      5938      1980  TIP3      OH2           -31.6842762818       -0.5267451097        3.5575168953  W2        1980            0.0000000000
      5939      1980  TIP3      H1            -31.8160562818       -1.0023651097        2.7373668953  W2        1980            0.0000000000
      5940      1980  TIP3      H2            -32.2835362818        0.2176148903        3.5022268953  W2        1980            0.0000000000
      5941      1981  TIP3      OH2           -32.1380462818       16.3562848903      -13.2660831047  W2        1981            0.0000000000
      5942      1981  TIP3      H1            -31.2049762818       16.5141548903      -13.1222431047  W2        1981            0.0000000000
      5943      1981  TIP3      H2            -32.4021662818       17.0315848903      -13.8909331047  W2        1981            0.0000000000
      5944      1982  TIP3      OH2           -38.5695562818       10.9926648903      -13.7832731047  W2        1982            0.0000000000
      5945      1982  TIP3      H1            -37.6556362818       11.0715548903      -13.5098831047  W2        1982            0.0000000000
      5946      1982  TIP3      H2            -38.5622462818       10.3056248903      -14.4497131047  W2        1982            0.0000000000
      5947      1983  TIP3      OH2           -39.9204962818       16.3855148903       -8.7058831047  W2        1983            0.0000000000
      5948      1983  TIP3      H1            -40.5677862818       15.9236848903       -9.2387631047  W2        1983            0.0000000000
      5949      1983  TIP3      H2            -39.5660362818       15.7138448903       -8.1232631047  W2        1983            0.0000000000
      5950      1984  TIP3      OH2           -39.0505762818       14.4662148903       -6.9012631047  W2        1984            0.0000000000
      5951      1984  TIP3      H1            -39.3848962818       13.5859448903       -6.7292431047  W2        1984            0.0000000000
      5952      1984  TIP3      H2            -38.8283362818       14.8117148903       -6.0367031047  W2        1984            0.0000000000
      5953      1985  TIP3      OH2           -21.5020962818       15.2758548903       -3.9207831047  W2        1985            0.0000000000
      5954      1985  TIP3      H1            -21.5234262818       15.4606948903       -2.9818431047  W2        1985            0.0000000000
      5955      1985  TIP3      H2            -20.8114762818       15.8442548903       -4.2616431047  W2        1985            0.0000000000
      5956      1986  TIP3      OH2           -21.9388062818       14.8429648903       -0.9988731047  W2        1986            0.0000000000
      5957      1986  TIP3      H1            -22.4259362818       14.1073748903       -1.3701331047  W2        1986            0.0000000000
      5958      1986  TIP3      H2            -21.3895362818       14.4493548903       -0.3209331047  W2        1986            0.0000000000
      5959      1987  TIP3      OH2           -23.4880762818       10.6327748903        3.6391568953  W2        1987            0.0000000000
      5960      1987  TIP3      H1            -24.3539662818       10.5277448903        4.0333868953  W2        1987            0.0000000000
      5961      1987  TIP3      H2            -23.1114862818       11.3911048903        4.0856268953  W2        1987            0.0000000000
      5962      1988  TIP3      OH2           -22.1871062818        8.8891448903      -10.8465931047  W2        1988            0.0000000000
      5963      1988  TIP3      H1            -21.3369662818        9.3102348903      -10.7194331047  W2        1988            0.0000000000
      5964      1988  TIP3      H2            -22.1815962818        8.1491548903      -10.2394531047  W2        1988            0.0000000000
      5965      1989  TIP3      OH2           -21.7925462818        6.9428848903       -9.0230231047  W2        1989            0.0000000000
      5966      1989  TIP3      H1            -22.5190862818        6.4631448903       -8.6252631047  W2        1989            0.0000000000
      5967      1989  TIP3      H2            -21.2112162818        7.1483548903       -8.2908631047  W2        1989            0.0000000000
      5968      1990  TIP3      OH2           -22.0334262818        9.7276348903       -4.0752631047  W2        1990            0.0000000000
      5969      1990  TIP3      H1            -21.2000062818        9.3496348903       -4.3559031047  W2        1990            0.0000000000
      5970      1990  TIP3      H2            -21.9213962818       10.6707548903       -4.1943531047  W2        1990            0.0000000000
      5971      1991  TIP3      OH2           -23.5471962818       12.6053848903       -1.7684231047  W2        1991            0.0000000000
      5972      1991  TIP3      H1            -24.1946662818       12.9305348903       -1.1429031047  W2        1991            0.0000000000
      5973      1991  TIP3      H2            -24.0647962818       12.1651548903       -2.4425931047  W2        1991            0.0000000000
      5974      1992  TIP3      OH2           -21.5242362818        6.8437348903      -12.6318931047  W2        1992            0.0000000000
      5975      1992  TIP3      H1            -22.0461262818        7.2001448903      -13.3508031047  W2        1992            0.0000000000
      5976      1992  TIP3      H2            -21.5573162818        7.5185148903      -11.9538031047  W2        1992            0.0000000000
      5977      1993  TIP3      OH2           -23.1753362818        4.0832948903      -14.0811831047  W2        1993            0.0000000000
      5978      1993  TIP3      H1            -23.0788962818        4.7499948903      -14.7612131047  W2        1993            0.0000000000
      5979      1993  TIP3      H2            -23.3153762818        3.2679248903      -14.5626331047  W2        1993            0.0000000000
      5980      1994  TIP3      OH2           -24.0058662818        5.4635348903       -8.4601531047  W2        1994            0.0000000000
      5981      1994  TIP3      H1            -24.1559862818        4.5183948903       -8.4803731047  W2        1994            0.0000000000
      5982      1994  TIP3      H2            -24.3594162818        5.7446748903       -7.6162431047  W2        1994            0.0000000000
      5983      1995  TIP3      OH2           -38.9706262818        7.5417548903       -4.4497731047  W2        1995            0.0000000000
      5984      1995  TIP3      H1            -38.7863362818        7.4599248903       -5.3854831047  W2        1995            0.0000000000
      5985      1995  TIP3      H2            -38.1213362818        7.4174548903       -4.0261331047  W2        1995            0.0000000000
      5986      1996  TIP3      OH2           -23.1495762818        7.4338648903        1.1786768953  W2        1996            0.0000000000
      5987      1996  TIP3      H1            -22.5668462818        6.6990948903        1.3703968953  W2        1996            0.0000000000
      5988      1996  TIP3      H2            -22.5856462818        8.2058948903        1.2252568953  W2        1996            0.0000000000
      5989      1997  TIP3      OH2           -21.6528662818        5.3364448903        1.8632168953  W2        1997            0.0000000000
      5990      1997  TIP3      H1            -22.5161962818        4.9576548903        1.6976868953  W2        1997            0.0000000000
      5991      1997  TIP3      H2            -21.0484962818        4.5979248903        1.7887968953  W2        1997            0.0000000000
      5992      1998  TIP3      OH2           -23.9279562818        1.4912748903      -14.9636331047  W2        1998            0.0000000000
      5993      1998  TIP3      H1            -23.3173762818        1.1199548903      -14.3268131047  W2        1998            0.0000000000
      5994      1998  TIP3      H2            -24.7648062818        1.0699648903      -14.7676331047  W2        1998            0.0000000000
      5995      1999  TIP3      OH2           -24.2953862818        3.0461148903       -9.9976431047  W2        1999            0.0000000000
      5996      1999  TIP3      H1            -24.0156762818        2.1391548903       -9.8734731047  W2        1999            0.0000000000
      5997      1999  TIP3      H2            -23.5362162818        3.4802648903      -10.3867231047  W2        1999            0.0000000000
      5998      2000  TIP3      OH2           -23.6835562818        3.6278548903       -4.5617531047  W2        2000            0.0000000000
      5999      2000  TIP3      H1            -22.7507562818        3.8398448903       -4.5961531047  W2        2000            0.0000000000
      6000      2000  TIP3      H2            -23.9188062818        3.7290648903       -3.6394531047  W2        2000            0.0000000000
      6001      2001  TIP3      OH2           -23.6543662818        4.3643848903       -1.7858131047  W2        2001            0.0000000000
      6002      2001  TIP3      H1            -24.4972362818        4.6324248903       -1.4198331047  W2        2001            0.0000000000
      6003      2001  TIP3      H2            -23.2119362818        5.1865748903       -1.9967031047  W2        2001            0.0000000000
      6004      2002  TIP3      OH2           -39.3731462818        2.8122548903        1.6911068953  W2        2002            0.0000000000
      6005      2002  TIP3      H1            -38.4536562818        2.6900848903        1.9274168953  W2        2002            0.0000000000
      6006      2002  TIP3      H2            -39.8226962818        2.0622248903        2.0804568953  W2        2002            0.0000000000
      6007      2003  TIP3      OH2           -21.3712062818       -1.6555951097        3.5676868953  W2        2003            0.0000000000
      6008      2003  TIP3      H1            -21.0215062818       -2.3092451097        2.9621568953  W2        2003            0.0000000000
      6009      2003  TIP3      H2            -21.2242562818       -0.8181851097        3.1279468953  W2        2003            0.0000000000
      6010      2004  TIP3      OH2           -23.6819062818        0.3090448903       -9.9494431047  W2        2004            0.0000000000
      6011      2004  TIP3      H1            -23.4994062818       -0.1398051097       -9.1239431047  W2        2004            0.0000000000
      6012      2004  TIP3      H2            -24.2816162818       -0.2755151097      -10.4129831047  W2        2004            0.0000000000
      6013      2005  TIP3      OH2           -38.1518962818        1.1244148903       -5.4176031047  W2        2005            0.0000000000
      6014      2005  TIP3      H1            -37.7067362818        0.3326648903       -5.1156331047  W2        2005            0.0000000000
      6015      2005  TIP3      H2            -37.6855962818        1.8409348903       -4.9870431047  W2        2005            0.0000000000
      6016      2006  TIP3      OH2           -39.8478662818        4.1237148903       -4.3485831047  W2        2006            0.0000000000
      6017      2006  TIP3      H1            -39.3558862818        3.9027648903       -5.1393831047  W2        2006            0.0000000000
      6018      2006  TIP3      H2            -39.4857762818        4.9640548903       -4.0676331047  W2        2006            0.0000000000
      6019      2007  TIP3      OH2           -21.8514862818        0.4538648903        1.9168168953  W2        2007            0.0000000000
      6020      2007  TIP3      H1            -22.7689162818        0.7245748903        1.8811668953  W2        2007            0.0000000000
      6021      2007  TIP3      H2            -21.7285462818       -0.0812951097        1.1327868953  W2        2007            0.0000000000
      6022      2008  TIP3      OH2           -21.8152862818        0.3768548903      -13.4214131047  W2        2008            0.0000000000
      6023      2008  TIP3      H1            -21.4030262818       -0.3445751097      -13.8966131047  W2        2008            0.0000000000
      6024      2008  TIP3      H2            -21.1336362818        1.0463148903      -13.3629831047  W2        2008            0.0000000000
      6025      2009  TIP3      OH2           -39.5342162818        0.3816248903      -10.2943431047  W2        2009            0.0000000000
      6026      2009  TIP3      H1            -40.4593762818        0.5902848903      -10.4237931047  W2        2009            0.0000000000
      6027      2009  TIP3      H2            -39.0802262818        0.8657048903      -10.9841131047  W2        2009            0.0000000000
      6028      2010  TIP3      OH2           -24.7634962818       15.3657948903       -8.3486031047  W2        2010            0.0000000000
      6029      2010  TIP3      H1            -24.1112062818       15.0180048903       -8.9566931047  W2        2010            0.0000000000
      6030      2010  TIP3      H2            -24.2531162818       15.8541148903       -7.7026331047  W2        2010            0.0000000000
      6031      2011  TIP3      OH2           -39.5706762818       -0.8804751097       -1.9500931047  W2        2011            0.0000000000
      6032      2011  TIP3      H1            -40.2356262818       -1.1264451097       -1.3070031047  W2        2011            0.0000000000
      6033      2011  TIP3      H2            -40.0135462818       -0.2584351097       -2.5272931047  W2        2011            0.0000000000
      6034      2012  TIP3      OH2           -37.3787462818       12.2949348903        2.1944868953  W2        2012            0.0000000000
      6035      2012  TIP3      H1            -38.1994962818       12.4695848903        1.7339568953  W2        2012            0.0000000000
      6036      2012  TIP3      H2            -37.6309662818       12.2214048903        3.1149268953  W2        2012            0.0000000000
      6037      2013  TIP3      OH2           -34.4244562818       13.2690548903       -1.5471131047  W2        2013            0.0000000000
      6038      2013  TIP3      H1            -34.8493462818       14.0789048903       -1.8296531047  W2        2013            0.0000000000
      6039      2013  TIP3      H2            -33.5201762818       13.3544648903       -1.8491331047  W2        2013            0.0000000000
      6040      2014  TIP3      OH2           -30.1133162818       14.6680548903        1.4122568953  W2        2014            0.0000000000
      6041      2014  TIP3      H1            -29.9285662818       14.3346648903        2.2902868953  W2        2014            0.0000000000
      6042      2014  TIP3      H2            -29.2668662818       14.9779148903        1.0901768953  W2        2014            0.0000000000
      6043      2015  TIP3      OH2           -27.7682762818       15.9539448903        0.6563968953  W2        2015            0.0000000000
      6044      2015  TIP3      H1            -27.0913862818       15.3211748903        0.4163168953  W2        2015            0.0000000000
      6045      2015  TIP3      H2            -27.4463962818       16.3549948903        1.4637268953  W2        2015            0.0000000000
      6046      2016  TIP3      OH2           -22.8508962818       -1.4565051097       -0.2641031047  W2        2016            0.0000000000
      6047      2016  TIP3      H1            -23.6635462818       -1.1314751097       -0.6516331047  W2        2016            0.0000000000
      6048      2016  TIP3      H2            -22.6180462818       -2.2166551097       -0.7971931047  W2        2016            0.0000000000
      6049      2017  TIP3      OH2           -37.0227862818       16.5254448903       -1.4995831047  W2        2017            0.0000000000
      6050      2017  TIP3      H1            -37.7431462818       16.9655448903       -1.9508131047  W2        2017            0.0000000000
      6051      2017  TIP3      H2            -37.3883862818       16.2749148903       -0.6511831047  W2        2017            0.0000000000
      6052      2018  TIP3      OH2           -34.5555262818       16.1258348903       -2.4698631047  W2        2018            0.0000000000
      6053      2018  TIP3      H1            -35.4203062818       16.1976848903       -2.0658531047  W2        2018            0.0000000000
      6054      2018  TIP3      H2            -34.6106262818       16.6725648903       -3.2536131047  W2        2018            0.0000000000
      6055      2019  TIP3      OH2           -29.8449662818       16.0137248903       -3.2942631047  W2        2019            0.0000000000
      6056      2019  TIP3      H1            -30.3015662818       16.5426948903       -3.9484231047  W2        2019            0.0000000000
      6057      2019  TIP3      H2            -29.6821662818       16.6168648903       -2.5690331047  W2        2019            0.0000000000
      6058      2020  TIP3      OH2           -27.5173362818       14.8916848903       -2.3492331047  W2        2020            0.0000000000
      6059      2020  TIP3      H1            -28.4219662818       15.0567048903       -2.6150231047  W2        2020            0.0000000000
      6060      2020  TIP3      H2            -27.0884762818       15.7449048903       -2.4148931047  W2        2020            0.0000000000
      6061      2021  TIP3      OH2           -24.9131462818       16.4615948903       -2.0544531047  W2        2021            0.0000000000
      6062      2021  TIP3      H1            -25.0949462818       17.3774848903       -2.2649631047  W2        2021            0.0000000000
      6063      2021  TIP3      H2            -24.7363662818       16.0513048903       -2.9009931047  W2        2021            0.0000000000
      6064      2022  TIP3      OH2           -37.6079762818       15.1486948903       -4.5894031047  W2        2022            0.0000000000
      6065      2022  TIP3      H1            -37.6263762818       14.7232048903       -3.7321731047  W2        2022            0.0000000000
      6066      2022  TIP3      H2            -36.8031862818       14.8301948903       -4.9981831047  W2        2022            0.0000000000
      6067      2023  TIP3      OH2           -35.4666662818       13.8585648903       -5.9344131047  W2        2023            0.0000000000
      6068      2023  TIP3      H1            -35.6855962818       12.9423048903       -5.7648131047  W2        2023            0.0000000000
      6069      2023  TIP3      H2            -34.6424462818       13.9986048903       -5.4682731047  W2        2023            0.0000000000
      6070      2024  TIP3      OH2           -32.9294162818       14.3284948903       -5.0856131047  W2        2024            0.0000000000
      6071      2024  TIP3      H1            -32.7168462818       13.4403948903       -5.3725231047  W2        2024            0.0000000000
      6072      2024  TIP3      H2            -32.8649062818       14.2942648903       -4.1312131047  W2        2024            0.0000000000
      6073      2025  TIP3      OH2           -29.4210462818       -0.0074451097       -5.9412831047  W2        2025            0.0000000000
      6074      2025  TIP3      H1            -30.0953662818       -0.6368851097       -5.6857031047  W2        2025            0.0000000000
      6075      2025  TIP3      H2            -28.8571262818       -0.4915551097       -6.5444931047  W2        2025            0.0000000000
      6076      2026  TIP3      OH2           -24.2783262818       -1.9000451097       -5.8285731047  W2        2026            0.0000000000
      6077      2026  TIP3      H1            -23.6745662818       -1.3525051097       -6.3304731047  W2        2026            0.0000000000
      6078      2026  TIP3      H2            -25.1481262818       -1.5810051097       -6.0691631047  W2        2026            0.0000000000
      6079      2027  TIP3      OH2           -22.5512862818       -0.7611751097       -7.4954831047  W2        2027            0.0000000000
      6080      2027  TIP3      H1            -21.9395362818       -1.2756051097       -8.0221231047  W2        2027            0.0000000000
      6081      2027  TIP3      H2            -22.1689462818        0.1160348903       -7.4720431047  W2        2027            0.0000000000
      6082      2028  TIP3      OH2           -37.0942962818       -1.3734151097       -8.1192931047  W2        2028            0.0000000000
      6083      2028  TIP3      H1            -37.8713162818       -1.6079251097       -8.6267031047  W2        2028            0.0000000000
      6084      2028  TIP3      H2            -36.5639362818       -2.1702051097       -8.1104931047  W2        2028            0.0000000000
      6085      2029  TIP3      OH2           -38.2579562818       -1.5756051097      -12.3156831047  W2        2029            0.0000000000
      6086      2029  TIP3      H1            -37.8188862818       -0.9645551097      -12.9073331047  W2        2029            0.0000000000
      6087      2029  TIP3      H2            -38.8917162818       -1.0371951097      -11.8416831047  W2        2029            0.0000000000
      6088      2030  TIP3      OH2           -32.5150362818       -1.4467051097       -8.3059831047  W2        2030            0.0000000000
      6089      2030  TIP3      H1            -31.6406962818       -1.0582751097       -8.3355531047  W2        2030            0.0000000000
      6090      2030  TIP3      H2            -32.6509562818       -1.6619251097       -7.3832631047  W2        2030            0.0000000000
      6091      2031  TIP3      OH2           -26.9581962818       -1.4167251097       -6.6568131047  W2        2031            0.0000000000
      6092      2031  TIP3      H1            -26.8820362818       -1.3215651097       -7.6062131047  W2        2031            0.0000000000
      6093      2031  TIP3      H2            -27.2332762818       -2.3244351097       -6.5279031047  W2        2031            0.0000000000
      6094      2032  TIP3      OH2           -25.6049362818       -1.3909451097      -10.9643131047  W2        2032            0.0000000000
      6095      2032  TIP3      H1            -26.3078262818       -0.7760251097      -11.1741731047  W2        2032            0.0000000000
      6096      2032  TIP3      H2            -26.0497962818       -2.2282751097      -10.8332231047  W2        2032            0.0000000000
      6097      2033  TIP3      OH2           -38.3570062818       14.3726148903      -11.4181731047  W2        2033            0.0000000000
      6098      2033  TIP3      H1            -39.0420162818       14.3345048903      -12.0856631047  W2        2033            0.0000000000
      6099      2033  TIP3      H2            -38.3532862818       15.2853748903      -11.1299631047  W2        2033            0.0000000000
      6100      2034  TIP3      OH2           -36.3970462818        0.3405448903      -13.8732731047  W2        2034            0.0000000000
      6101      2034  TIP3      H1            -35.9057062818       -0.2892151097      -14.4007231047  W2        2034            0.0000000000
      6102      2034  TIP3      H2            -35.7734162818        0.6364848903      -13.2101531047  W2        2034            0.0000000000
      6103      2035  TIP3      OH2           -31.3710362818        0.6336948903      -11.4162231047  W2        2035            0.0000000000
      6104      2035  TIP3      H1            -31.1929062818       -0.0129851097      -10.7333631047  W2        2035            0.0000000000
      6105      2035  TIP3      H2            -31.4244162818        1.4674648903      -10.9491131047  W2        2035            0.0000000000
      6106      2036  TIP3      OH2           -29.4926562818       15.5821048903      -13.0205531047  W2        2036            0.0000000000
      6107      2036  TIP3      H1            -28.6266362818       15.9488448903      -13.1987331047  W2        2036            0.0000000000
      6108      2036  TIP3      H2            -29.7393762818       15.1429048903      -13.8344731047  W2        2036            0.0000000000
      6109      2037  TIP3      OH2           -22.7836962818       15.1451348903      -10.3414431047  W2        2037            0.0000000000
      6110      2037  TIP3      H1            -22.9779862818       14.3973448903      -10.9064831047  W2        2037            0.0000000000
      6111      2037  TIP3      H2            -22.8226862818       15.9031448903      -10.9246531047  W2        2037            0.0000000000
      6112      2038  TIP3      OH2           -37.1364962818       -0.8592251097        1.3983268953  W2        2038            0.0000000000
      6113      2038  TIP3      H1            -37.5026762818       -1.6249651097        1.8407968953  W2        2038            0.0000000000
      6114      2038  TIP3      H2            -36.2236462818       -0.8302051097        1.6848368953  W2        2038            0.0000000000
      6115      2039  TIP3      OH2           -35.1634162818       -1.5087851097        2.9340368953  W2        2039            0.0000000000
      6116      2039  TIP3      H1            -34.2650562818       -1.7827651097        2.7493768953  W2        2039            0.0000000000
      6117      2039  TIP3      H2            -35.5501062818       -2.2511851097        3.3982968953  W2        2039            0.0000000000
      6118      2040  TIP3      OH2           -36.5388862818       15.2926948903      -14.3929631047  W2        2040            0.0000000000
      6119      2040  TIP3      H1            -36.8064262818       15.5789848903      -13.5196531047  W2        2040            0.0000000000
      6120      2040  TIP3      H2            -35.7676262818       14.7466148903      -14.2407131047  W2        2040            0.0000000000
      6121      2041  TIP3      OH2           -26.7421862818       -2.1762551097        3.1163168953  W2        2041            0.0000000000
      6122      2041  TIP3      H1            -26.6654662818       -2.6021851097        3.9700868953  W2        2041            0.0000000000
      6123      2041  TIP3      H2            -25.8485262818       -2.1627851097        2.7736668953  W2        2041            0.0000000000
      6124      2042  TIP3      OH2           -23.5660762818       13.8963748903        1.8087368953  W2        2042            0.0000000000
      6125      2042  TIP3      H1            -24.3478862818       13.7101748903        1.2887968953  W2        2042            0.0000000000
      6126      2042  TIP3      H2            -23.6380862818       14.8258048903        2.0259868953  W2        2042            0.0000000000
      6127      2043  TIP3      OH2            -9.1600362818        7.7828148903       -8.1605431047  W2        2043            0.0000000000
      6128      2043  TIP3      H1             -9.0709262818        8.7266348903       -8.2928331047  W2        2043            0.0000000000
      6129      2043  TIP3      H2             -9.7982762818        7.5074548903       -8.8186031047  W2        2043            0.0000000000
      6130      2044  TIP3      OH2           -10.2269062818        7.0378848903       -4.7417231047  W2        2044            0.0000000000
      6131      2044  TIP3      H1            -10.2651562818        6.3915148903       -4.0367631047  W2        2044            0.0000000000
      6132      2044  TIP3      H2            -10.5492562818        6.5713248903       -5.5128531047  W2        2044            0.0000000000
      6133      2045  TIP3      OH2           -17.8584062818        6.6520948903       -3.1487331047  W2        2045            0.0000000000
      6134      2045  TIP3      H1            -17.8171962818        6.0264248903       -2.4254931047  W2        2045            0.0000000000
      6135      2045  TIP3      H2            -17.1556362818        7.2759548903       -2.9666931047  W2        2045            0.0000000000
      6136      2046  TIP3      OH2            -6.5208862818        9.9769248903       -6.4402131047  W2        2046            0.0000000000
      6137      2046  TIP3      H1             -6.9616162818        9.2565248903       -5.9896531047  W2        2046            0.0000000000
      6138      2046  TIP3      H2             -6.5339162818       10.6976448903       -5.8104431047  W2        2046            0.0000000000
      6139      2047  TIP3      OH2           -16.9350962818       11.1019848903       -4.6138231047  W2        2047            0.0000000000
      6140      2047  TIP3      H1            -17.3045762818       10.3000348903       -4.9833931047  W2        2047            0.0000000000
      6141      2047  TIP3      H2            -15.9939862818       10.9334748903       -4.5674831047  W2        2047            0.0000000000
      6142      2048  TIP3      OH2           -20.3250462818        4.7622448903       -9.2209431047  W2        2048            0.0000000000
      6143      2048  TIP3      H1            -20.7727062818        5.6081148903       -9.2392931047  W2        2048            0.0000000000
      6144      2048  TIP3      H2            -20.8859262818        4.1826648903       -9.7364331047  W2        2048            0.0000000000
      6145      2049  TIP3      OH2           -19.6144362818        6.9242048903       -7.0951431047  W2        2049            0.0000000000
      6146      2049  TIP3      H1            -19.4010862818        6.1543648903       -6.5678431047  W2        2049            0.0000000000
      6147      2049  TIP3      H2            -18.8766762818        7.0138748903       -7.6983831047  W2        2049            0.0000000000
      6148      2050  TIP3      OH2            -9.4093362818       15.0810948903       -6.2281731047  W2        2050            0.0000000000
      6149      2050  TIP3      H1             -8.7896962818       14.4045648903       -6.5012531047  W2        2050            0.0000000000
      6150      2050  TIP3      H2             -9.6175962818       14.8631748903       -5.3196831047  W2        2050            0.0000000000
      6151      2051  TIP3      OH2           -11.8374662818        9.4700248903       -4.3356231047  W2        2051            0.0000000000
      6152      2051  TIP3      H1            -11.5336762818        8.7841648903       -4.9302131047  W2        2051            0.0000000000
      6153      2051  TIP3      H2            -11.1160662818        9.5888948903       -3.7178231047  W2        2051            0.0000000000
      6154      2052  TIP3      OH2            -3.1744862818        1.0715548903       -3.4750031047  W2        2052            0.0000000000
      6155      2052  TIP3      H1             -3.1252662818        1.6816748903       -2.7390931047  W2        2052            0.0000000000
      6156      2052  TIP3      H2             -2.7489762818        1.5326448903       -4.1978931047  W2        2052            0.0000000000
      6157      2053  TIP3      OH2            -8.6967662818        3.8642648903       -4.0081431047  W2        2053            0.0000000000
      6158      2053  TIP3      H1             -8.5541762818        2.9179648903       -3.9879831047  W2        2053            0.0000000000
      6159      2053  TIP3      H2             -8.8028662818        4.0712448903       -4.9366531047  W2        2053            0.0000000000
      6160      2054  TIP3      OH2           -15.5419362818        1.9659048903       -6.7356631047  W2        2054            0.0000000000
      6161      2054  TIP3      H1            -15.4988262818        2.8257548903       -7.1540331047  W2        2054            0.0000000000
      6162      2054  TIP3      H2            -15.9995262818        1.4133748903       -7.3693431047  W2        2054            0.0000000000
      6163      2055  TIP3      OH2            -7.8196662818        2.0964648903       -8.3348331047  W2        2055            0.0000000000
      6164      2055  TIP3      H1             -7.1732362818        1.7677848903       -7.7100731047  W2        2055            0.0000000000
      6165      2055  TIP3      H2             -7.3097262818        2.6143648903       -8.9576931047  W2        2055            0.0000000000
      6166      2056  TIP3      OH2           -18.9217862818        4.3624848903       -5.9735231047  W2        2056            0.0000000000
      6167      2056  TIP3      H1            -18.2681262818        3.8126548903       -5.5415131047  W2        2056            0.0000000000
      6168      2056  TIP3      H2            -18.8978562818        4.0883848903       -6.8903231047  W2        2056            0.0000000000
      6169      2057  TIP3      OH2           -13.7653362818        5.9126148903       -6.7583731047  W2        2057            0.0000000000
      6170      2057  TIP3      H1            -13.1492362818        5.3861548903       -6.2489731047  W2        2057            0.0000000000
      6171      2057  TIP3      H2            -14.3514562818        5.2724848903       -7.1620131047  W2        2057            0.0000000000
      6172      2058  TIP3      OH2            -2.7830262818        2.5494748903       -1.2390231047  W2        2058            0.0000000000
      6173      2058  TIP3      H1             -3.4715662818        3.2075448903       -1.3343631047  W2        2058            0.0000000000
      6174      2058  TIP3      H2             -2.7675662818        2.3522648903       -0.3024831047  W2        2058            0.0000000000
      6175      2059  TIP3      OH2           -16.7317462818        0.8837448903       -2.6615831047  W2        2059            0.0000000000
      6176      2059  TIP3      H1            -16.9505762818        1.4138048903       -3.4279831047  W2        2059            0.0000000000
      6177      2059  TIP3      H2            -17.3996562818        1.1102948903       -2.0144431047  W2        2059            0.0000000000
      6178      2060  TIP3      OH2            -9.3627662818       10.3838548903       -9.1176731047  W2        2060            0.0000000000
      6179      2060  TIP3      H1             -9.6582562818       10.0610848903       -9.9689831047  W2        2060            0.0000000000
      6180      2060  TIP3      H2             -9.6869862818       11.2835248903       -9.0764131047  W2        2060            0.0000000000
      6181      2061  TIP3      OH2           -14.1626062818        8.5593148903       -2.3742131047  W2        2061            0.0000000000
      6182      2061  TIP3      H1            -14.9026962818        9.1574648903       -2.2706931047  W2        2061            0.0000000000
      6183      2061  TIP3      H2            -13.4486562818        9.1132748903       -2.6898531047  W2        2061            0.0000000000
      6184      2062  TIP3      OH2            -6.0558262818        1.3873948903       -6.3542431047  W2        2062            0.0000000000
      6185      2062  TIP3      H1             -6.2710262818        0.6217348903       -5.8216431047  W2        2062            0.0000000000
      6186      2062  TIP3      H2             -5.4000862818        1.8598548903       -5.8413931047  W2        2062            0.0000000000
      6187      2063  TIP3      OH2           -17.1380162818        2.7759248903       -4.7093631047  W2        2063            0.0000000000
      6188      2063  TIP3      H1            -16.5243862818        3.4086848903       -4.3361231047  W2        2063            0.0000000000
      6189      2063  TIP3      H2            -16.6259462818        2.3034248903       -5.3656731047  W2        2063            0.0000000000
      6190      2064  TIP3      OH2           -15.7551762818       10.5236148903       -1.5870631047  W2        2064            0.0000000000
      6191      2064  TIP3      H1            -15.7604162818       11.4029648903       -1.9651331047  W2        2064            0.0000000000
      6192      2064  TIP3      H2            -16.6087662818       10.4400248903       -1.1620731047  W2        2064            0.0000000000
      6193      2065  TIP3      OH2           -19.6340862818       10.1944048903      -10.8051331047  W2        2065            0.0000000000
      6194      2065  TIP3      H1            -19.9059962818       10.4235048903      -11.6938431047  W2        2065            0.0000000000
      6195      2065  TIP3      H2            -19.5885162818       11.0322848903      -10.3446031047  W2        2065            0.0000000000
      6196      2066  TIP3      OH2            -6.0091162818       11.8159948903       -4.0922831047  W2        2066            0.0000000000
      6197      2066  TIP3      H1             -6.9507462818       11.8743848903       -3.9305931047  W2        2066            0.0000000000
      6198      2066  TIP3      H2             -5.7325062818       12.7220448903       -4.2293131047  W2        2066            0.0000000000
      6199      2067  TIP3      OH2            -5.7084162818        0.1025248903       -2.6748931047  W2        2067            0.0000000000
      6200      2067  TIP3      H1             -6.4444962818        0.7132348903       -2.7127631047  W2        2067            0.0000000000
      6201      2067  TIP3      H2             -5.0250162818        0.5174248903       -3.2012531047  W2        2067            0.0000000000
      6202      2068  TIP3      OH2           -12.7052762818       -1.8107451097       -5.2090931047  W2        2068            0.0000000000
      6203      2068  TIP3      H1            -12.8228562818       -2.7591451097       -5.2632631047  W2        2068            0.0000000000
      6204      2068  TIP3      H2            -13.5602662818       -1.4781351097       -4.9359831047  W2        2068            0.0000000000
      6205      2069  TIP3      OH2            -7.7569962818       13.5973448903       -7.4671231047  W2        2069            0.0000000000
      6206      2069  TIP3      H1             -7.3317662818       12.8901348903       -7.9521631047  W2        2069            0.0000000000
      6207      2069  TIP3      H2             -7.4399962818       14.3986148903       -7.8839031047  W2        2069            0.0000000000
      6208      2070  TIP3      OH2            -6.5973462818       11.4981948903       -8.9584631047  W2        2070            0.0000000000
      6209      2070  TIP3      H1             -6.8548662818       10.8082048903       -9.5698731047  W2        2070            0.0000000000
      6210      2070  TIP3      H2             -6.5262662818       11.0553148903       -8.1128731047  W2        2070            0.0000000000
      6211      2071  TIP3      OH2            -4.9113262818       10.0648648903       -0.4811131047  W2        2071            0.0000000000
      6212      2071  TIP3      H1             -4.7716962818        9.4731148903       -1.2204131047  W2        2071            0.0000000000
      6213      2071  TIP3      H2             -4.7440462818       10.9374548903       -0.8372331047  W2        2071            0.0000000000
      6214      2072  TIP3      OH2           -10.4387862818        7.0268148903      -10.7085131047  W2        2072            0.0000000000
      6215      2072  TIP3      H1            -11.1502362818        7.5617848903      -11.0604631047  W2        2072            0.0000000000
      6216      2072  TIP3      H2             -9.7478262818        7.0820248903      -11.3686231047  W2        2072            0.0000000000
      6217      2073  TIP3      OH2           -10.3848662818        5.4842448903      -13.6700131047  W2        2073            0.0000000000
      6218      2073  TIP3      H1             -9.6838762818        5.5069348903      -13.0186131047  W2        2073            0.0000000000
      6219      2073  TIP3      H2            -10.0825762818        4.8562148903      -14.3260831047  W2        2073            0.0000000000
      6220      2074  TIP3      OH2            -3.0693962818        6.4046648903       -2.4150731047  W2        2074            0.0000000000
      6221      2074  TIP3      H1             -3.7219862818        7.0992248903       -2.3259831047  W2        2074            0.0000000000
      6222      2074  TIP3      H2             -2.6043662818        6.6147548903       -3.2249131047  W2        2074            0.0000000000
      6223      2075  TIP3      OH2            -7.0330162818        7.2361448903       -9.7569231047  W2        2075            0.0000000000
      6224      2075  TIP3      H1             -7.7649162818        7.4645148903       -9.1838631047  W2        2075            0.0000000000
      6225      2075  TIP3      H2             -6.5857962818        6.5224148903       -9.3021731047  W2        2075            0.0000000000
      6226      2076  TIP3      OH2            -7.1356662818        5.4104048903       -0.6892231047  W2        2076            0.0000000000
      6227      2076  TIP3      H1             -7.0557562818        6.1738448903       -0.1173731047  W2        2076            0.0000000000
      6228      2076  TIP3      H2             -7.7368962818        5.6896448903       -1.3797131047  W2        2076            0.0000000000
      6229      2077  TIP3      OH2           -15.3876462818        7.8667648903       -7.8744231047  W2        2077            0.0000000000
      6230      2077  TIP3      H1            -15.7181262818        7.4961048903       -8.6927231047  W2        2077            0.0000000000
      6231      2077  TIP3      H2            -14.7992362818        7.1961648903       -7.5275931047  W2        2077            0.0000000000
      6232      2078  TIP3      OH2           -14.0208962818       11.2948248903       -5.1932031047  W2        2078            0.0000000000
      6233      2078  TIP3      H1            -14.1157662818       10.7161348903       -5.9497431047  W2        2078            0.0000000000
      6234      2078  TIP3      H2            -13.2915362818       10.9233948903       -4.6969231047  W2        2078            0.0000000000
      6235      2079  TIP3      OH2           -15.0210962818        6.6353248903       -4.2409231047  W2        2079            0.0000000000
      6236      2079  TIP3      H1            -14.4558462818        6.7567448903       -5.0038031047  W2        2079            0.0000000000
      6237      2079  TIP3      H2            -14.7022062818        7.2728248903       -3.6020731047  W2        2079            0.0000000000
      6238      2080  TIP3      OH2            -8.7118762818       12.1385148903       -3.5068731047  W2        2080            0.0000000000
      6239      2080  TIP3      H1             -8.9522162818       12.8008248903       -2.8589531047  W2        2080            0.0000000000
      6240      2080  TIP3      H2             -8.9100562818       11.3040348903       -3.0819131047  W2        2080            0.0000000000
      6241      2081  TIP3      OH2           -14.1410262818       11.0345948903        0.4762668953  W2        2081            0.0000000000
      6242      2081  TIP3      H1            -14.4522762818       11.8169148903        0.9315868953  W2        2081            0.0000000000
      6243      2081  TIP3      H2            -14.7910062818       10.8815048903       -0.2095331047  W2        2081            0.0000000000
      6244      2082  TIP3      OH2            -8.1620662818        6.3984348903      -12.0718031047  W2        2082            0.0000000000
      6245      2082  TIP3      H1             -7.5825162818        6.5484648903      -11.3249131047  W2        2082            0.0000000000
      6246      2082  TIP3      H2             -7.7480662818        6.8691748903      -12.7951631047  W2        2082            0.0000000000
      6247      2083  TIP3      OH2           -17.2210362818        7.2327048903       -0.2951631047  W2        2083            0.0000000000
      6248      2083  TIP3      H1            -17.1507162818        7.8833848903        0.4033368953  W2        2083            0.0000000000
      6249      2083  TIP3      H2            -18.1118162818        7.3354548903       -0.6300731047  W2        2083            0.0000000000
      6250      2084  TIP3      OH2           -10.4355762818       13.1352848903       -8.6364931047  W2        2084            0.0000000000
      6251      2084  TIP3      H1             -9.9618162818       13.4309148903       -7.8590731047  W2        2084            0.0000000000
      6252      2084  TIP3      H2            -10.9986462818       13.8734448903       -8.8695331047  W2        2084            0.0000000000
      6253      2085  TIP3      OH2           -15.9014362818       13.1060948903        1.2396468953  W2        2085            0.0000000000
      6254      2085  TIP3      H1            -15.8939062818       12.9700648903        0.2921968953  W2        2085            0.0000000000
      6255      2085  TIP3      H2            -16.8173962818       12.9889048903        1.4916468953  W2        2085            0.0000000000
      6256      2086  TIP3      OH2            -4.4632262818       -1.8515251097      -12.2588331047  W2        2086            0.0000000000
      6257      2086  TIP3      H1             -5.3631562818       -1.7126251097      -11.9637731047  W2        2086            0.0000000000
      6258      2086  TIP3      H2             -4.2113862818       -1.0200651097      -12.6606631047  W2        2086            0.0000000000
      6259      2087  TIP3      OH2           -16.3973762818        6.9361948903      -10.2851431047  W2        2087            0.0000000000
      6260      2087  TIP3      H1            -16.6892462818        7.7043648903      -10.7760131047  W2        2087            0.0000000000
      6261      2087  TIP3      H2            -17.0718562818        6.2768148903      -10.4480031047  W2        2087            0.0000000000
      6262      2088  TIP3      OH2            -3.2740862818       12.5147148903      -13.8824431047  W2        2088            0.0000000000
      6263      2088  TIP3      H1             -3.2007362818       13.4537348903      -13.7119131047  W2        2088            0.0000000000
      6264      2088  TIP3      H2             -2.3685762818       12.2095748903      -13.9387131047  W2        2088            0.0000000000
      6265      2089  TIP3      OH2           -20.3043662818        9.2991148903       -1.4701631047  W2        2089            0.0000000000
      6266      2089  TIP3      H1            -20.8055262818        9.2710548903       -2.2851931047  W2        2089            0.0000000000
      6267      2089  TIP3      H2            -20.2989962818        8.3934348903       -1.1604331047  W2        2089            0.0000000000
      6268      2090  TIP3      OH2           -20.5540962818       12.0794948903       -4.5861431047  W2        2090            0.0000000000
      6269      2090  TIP3      H1            -19.6080362818       11.9351948903       -4.6051931047  W2        2090            0.0000000000
      6270      2090  TIP3      H2            -20.6664662818       12.8637748903       -4.0490231047  W2        2090            0.0000000000
      6271      2091  TIP3      OH2            -2.3562462818       12.7454648903        1.0962268953  W2        2091            0.0000000000
      6272      2091  TIP3      H1             -2.4055662818       11.7902748903        1.0589868953  W2        2091            0.0000000000
      6273      2091  TIP3      H2             -3.1830162818       13.0129948903        1.4976068953  W2        2091            0.0000000000
      6274      2092  TIP3      OH2           -11.3778462818       12.3193848903       -0.0276331047  W2        2092            0.0000000000
      6275      2092  TIP3      H1            -11.2903862818       13.1458448903        0.4472768953  W2        2092            0.0000000000
      6276      2092  TIP3      H2            -12.2413362818       11.9897648903        0.2212968953  W2        2092            0.0000000000
      6277      2093  TIP3      OH2           -10.9632662818       16.0917548903      -10.2215731047  W2        2093            0.0000000000
      6278      2093  TIP3      H1            -11.0386662818       15.9704748903      -11.1680531047  W2        2093            0.0000000000
      6279      2093  TIP3      H2            -10.9303962818       17.0410248903      -10.1031131047  W2        2093            0.0000000000
      6280      2094  TIP3      OH2           -17.3098862818       14.8804548903       -8.4406731047  W2        2094            0.0000000000
      6281      2094  TIP3      H1            -17.1578462818       14.5324948903       -7.5620231047  W2        2094            0.0000000000
      6282      2094  TIP3      H2            -18.1608462818       14.5241848903       -8.6959531047  W2        2094            0.0000000000
      6283      2095  TIP3      OH2            -7.8616662818       15.2457748903      -13.2193331047  W2        2095            0.0000000000
      6284      2095  TIP3      H1             -7.4868262818       14.5013848903      -13.6900731047  W2        2095            0.0000000000
      6285      2095  TIP3      H2             -7.8572962818       14.9758348903      -12.3010031047  W2        2095            0.0000000000
      6286      2096  TIP3      OH2            -8.1928562818       15.1714848903      -10.4701131047  W2        2096            0.0000000000
      6287      2096  TIP3      H1             -9.1278762818       15.2716748903      -10.2914131047  W2        2096            0.0000000000
      6288      2096  TIP3      H2             -7.9126662818       14.4620848903       -9.8917931047  W2        2096            0.0000000000
      6289      2097  TIP3      OH2            -5.2042662818        4.2387148903        1.5764468953  W2        2097            0.0000000000
      6290      2097  TIP3      H1             -5.6115862818        4.7192748903        0.8557768953  W2        2097            0.0000000000
      6291      2097  TIP3      H2             -5.1636962818        3.3333148903        1.2685268953  W2        2097            0.0000000000
      6292      2098  TIP3      OH2           -18.0553162818       10.6226548903       -0.4268831047  W2        2098            0.0000000000
      6293      2098  TIP3      H1            -17.8391862818       10.2612148903        0.4326968953  W2        2098            0.0000000000
      6294      2098  TIP3      H2            -18.9108462818       10.2480348903       -0.6365331047  W2        2098            0.0000000000
      6295      2099  TIP3      OH2           -15.4365162818       -0.9072951097       -4.4314631047  W2        2099            0.0000000000
      6296      2099  TIP3      H1            -16.2981462818       -0.9944751097       -4.8391731047  W2        2099            0.0000000000
      6297      2099  TIP3      H2            -15.4589462818       -0.0512851097       -4.0037031047  W2        2099            0.0000000000
      6298      2100  TIP3      OH2           -10.7737362818       -1.1852551097       -1.0567631047  W2        2100            0.0000000000
      6299      2100  TIP3      H1            -10.3534262818       -1.6005451097       -0.3037031047  W2        2100            0.0000000000
      6300      2100  TIP3      H2            -11.7067762818       -1.3639251097       -0.9395631047  W2        2100            0.0000000000
      6301      2101  TIP3      OH2            -7.4472462818        2.5702648903       -0.2033131047  W2        2101            0.0000000000
      6302      2101  TIP3      H1             -7.9612962818        2.4444848903        0.5942868953  W2        2101            0.0000000000
      6303      2101  TIP3      H2             -7.6027762818        3.4825748903       -0.4476931047  W2        2101            0.0000000000
      6304      2102  TIP3      OH2            -6.6847562818        7.4312648903      -14.4420131047  W2        2102            0.0000000000
      6305      2102  TIP3      H1             -6.6426762818        7.2086548903      -15.3720131047  W2        2102            0.0000000000
      6306      2102  TIP3      H2             -5.8355462818        7.8299748903      -14.2520231047  W2        2102            0.0000000000
      6307      2103  TIP3      OH2           -11.1120062818        1.3070848903      -13.7716831047  W2        2103            0.0000000000
      6308      2103  TIP3      H1            -11.3655262818        1.3262448903      -12.8488731047  W2        2103            0.0000000000
      6309      2103  TIP3      H2            -11.3687962818        0.4356248903      -14.0730631047  W2        2103            0.0000000000
      6310      2104  TIP3      OH2           -15.3455062818        4.0581548903       -3.3364431047  W2        2104            0.0000000000
      6311      2104  TIP3      H1            -15.9872962818        4.0178848903       -2.6274331047  W2        2104            0.0000000000
      6312      2104  TIP3      H2            -15.3083062818        4.9846248903       -3.5741431047  W2        2104            0.0000000000
      6313      2105  TIP3      OH2           -15.3485962818        4.2791648903       -8.4244431047  W2        2105            0.0000000000
      6314      2105  TIP3      H1            -16.2413062818        3.9387748903       -8.4830631047  W2        2105            0.0000000000
      6315      2105  TIP3      H2            -14.8979362818        3.9022548903       -9.1801231047  W2        2105            0.0000000000
      6316      2106  TIP3      OH2            -9.8130462818        4.6951948903       -9.6073631047  W2        2106            0.0000000000
      6317      2106  TIP3      H1            -10.2220162818        5.5100548903       -9.8988831047  W2        2106            0.0000000000
      6318      2106  TIP3      H2             -9.0924262818        4.5552048903      -10.2216531047  W2        2106            0.0000000000
      6319      2107  TIP3      OH2           -10.7108862818        4.8708348903        1.8807068953  W2        2107            0.0000000000
      6320      2107  TIP3      H1            -11.2735062818        4.1659948903        2.2014868953  W2        2107            0.0000000000
      6321      2107  TIP3      H2             -9.8845462818        4.7500248903        2.3484668953  W2        2107            0.0000000000
      6322      2108  TIP3      OH2            -8.8082762818        4.1412348903       -6.7933931047  W2        2108            0.0000000000
      6323      2108  TIP3      H1             -9.0038262818        4.7469148903       -7.5083331047  W2        2108            0.0000000000
      6324      2108  TIP3      H2             -8.6270162818        3.3077548903       -7.2277631047  W2        2108            0.0000000000
      6325      2109  TIP3      OH2           -17.5954562818        4.3785048903       -1.4692431047  W2        2109            0.0000000000
      6326      2109  TIP3      H1            -17.6335162818        4.7786648903       -0.6005331047  W2        2109            0.0000000000
      6327      2109  TIP3      H2            -18.0863462818        3.5617448903       -1.3789531047  W2        2109            0.0000000000
      6328      2110  TIP3      OH2           -14.2297162818        1.7527348903      -14.6706431047  W2        2110            0.0000000000
      6329      2110  TIP3      H1            -14.6606462818        1.3077448903      -13.9409031047  W2        2110            0.0000000000
      6330      2110  TIP3      H2            -14.9478462818        2.1243648903      -15.1828931047  W2        2110            0.0000000000
      6331      2111  TIP3      OH2           -20.9873762818        1.4946848903       -7.6187731047  W2        2111            0.0000000000
      6332      2111  TIP3      H1            -20.3566062818        1.4658948903       -6.8993831047  W2        2111            0.0000000000
      6333      2111  TIP3      H2            -20.5379462818        1.0695548903       -8.3491831047  W2        2111            0.0000000000
      6334      2112  TIP3      OH2           -19.7131662818        2.2408848903      -12.1947331047  W2        2112            0.0000000000
      6335      2112  TIP3      H1            -19.2389962818        2.8318748903      -12.7796431047  W2        2112            0.0000000000
      6336      2112  TIP3      H2            -20.4305262818        2.7711748903      -11.8477231047  W2        2112            0.0000000000
      6337      2113  TIP3      OH2            -9.5443562818        5.7793648903       -2.1221531047  W2        2113            0.0000000000
      6338      2113  TIP3      H1             -9.2208762818        5.1483348903       -2.7651031047  W2        2113            0.0000000000
      6339      2113  TIP3      H2             -9.9844262818        5.2445848903       -1.4614131047  W2        2113            0.0000000000
      6340      2114  TIP3      OH2           -12.7670662818        1.7069148903       -7.3380331047  W2        2114            0.0000000000
      6341      2114  TIP3      H1            -13.6779562818        1.7635948903       -7.0494331047  W2        2114            0.0000000000
      6342      2114  TIP3      H2            -12.2617762818        1.6464648903       -6.5273131047  W2        2114            0.0000000000
      6343      2115  TIP3      OH2           -17.9387262818        3.3355448903       -8.5112731047  W2        2115            0.0000000000
      6344      2115  TIP3      H1            -18.8279262818        3.4350948903       -8.8513131047  W2        2115            0.0000000000
      6345      2115  TIP3      H2            -17.6422362818        2.4938448903       -8.8574831047  W2        2115            0.0000000000
      6346      2116  TIP3      OH2           -14.2855462818        3.3358048903      -10.8548131047  W2        2116            0.0000000000
      6347      2116  TIP3      H1            -13.3539962818        3.4648048903      -10.6765031047  W2        2116            0.0000000000
      6348      2116  TIP3      H2            -14.5005162818        4.0052348903      -11.5043431047  W2        2116            0.0000000000
      6349      2117  TIP3      OH2            -8.3618762818        0.9415448903       -4.0738531047  W2        2117            0.0000000000
      6350      2117  TIP3      H1             -9.0387162818        1.0728548903       -3.4098831047  W2        2117            0.0000000000
      6351      2117  TIP3      H2             -8.8473862818        0.7864948903       -4.8840831047  W2        2117            0.0000000000
      6352      2118  TIP3      OH2           -15.6115262818        4.5300248903      -13.2882031047  W2        2118            0.0000000000
      6353      2118  TIP3      H1            -16.1540162818        4.1504048903      -13.9794431047  W2        2118            0.0000000000
      6354      2118  TIP3      H2            -14.7780362818        4.7244948903      -13.7167931047  W2        2118            0.0000000000
      6355      2119  TIP3      OH2            -5.0743662818       16.6130848903        2.2029068953  W2        2119            0.0000000000
      6356      2119  TIP3      H1             -4.8744962818       17.0372748903        1.3684368953  W2        2119            0.0000000000
      6357      2119  TIP3      H2             -4.4189962818       16.9569048903        2.8099468953  W2        2119            0.0000000000
      6358      2120  TIP3      OH2           -17.4763862818        9.0872148903        1.8109568953  W2        2120            0.0000000000
      6359      2120  TIP3      H1            -16.7441462818        9.3418048903        2.3724068953  W2        2120            0.0000000000
      6360      2120  TIP3      H2            -18.2565162818        9.2917548903        2.3264968953  W2        2120            0.0000000000
      6361      2121  TIP3      OH2           -11.4470962818        4.4942148903       -5.4510731047  W2        2121            0.0000000000
      6362      2121  TIP3      H1            -10.8827562818        3.9478748903       -5.9981131047  W2        2121            0.0000000000
      6363      2121  TIP3      H2            -11.5947562818        3.9724048903       -4.6623131047  W2        2121            0.0000000000
      6364      2122  TIP3      OH2           -16.4451262818        0.6308248903       -9.0325931047  W2        2122            0.0000000000
      6365      2122  TIP3      H1            -16.7621762818       -0.2716451097       -9.0680531047  W2        2122            0.0000000000
      6366      2122  TIP3      H2            -15.6637162818        0.6325648903       -9.5854331047  W2        2122            0.0000000000
      6367      2123  TIP3      OH2           -12.8205062818        2.8828248903       -3.0370331047  W2        2123            0.0000000000
      6368      2123  TIP3      H1            -13.6559762818        3.3367748903       -2.9267931047  W2        2123            0.0000000000
      6369      2123  TIP3      H2            -12.2964462818        3.1586748903       -2.2850431047  W2        2123            0.0000000000
      6370      2124  TIP3      OH2           -12.2762462818        9.0955948903      -11.3523931047  W2        2124            0.0000000000
      6371      2124  TIP3      H1            -13.0211462818        8.5881248903      -11.6746031047  W2        2124            0.0000000000
      6372      2124  TIP3      H2            -12.4105262818        9.1443948903      -10.4059131047  W2        2124            0.0000000000
      6373      2125  TIP3      OH2            -5.1263562818        8.2284148903       -2.5656331047  W2        2125            0.0000000000
      6374      2125  TIP3      H1             -4.4844762818        8.6850448903       -3.1094131047  W2        2125            0.0000000000
      6375      2125  TIP3      H2             -5.9566662818        8.3416548903       -3.0282231047  W2        2125            0.0000000000
      6376      2126  TIP3      OH2            -8.3785662818        1.9095848903      -13.1531331047  W2        2126            0.0000000000
      6377      2126  TIP3      H1             -9.3171462818        2.0211448903      -13.3042531047  W2        2126            0.0000000000
      6378      2126  TIP3      H2             -8.0813562818        2.7662748903      -12.8465631047  W2        2126            0.0000000000
      6379      2127  TIP3      OH2           -10.7570362818        9.2799248903       -0.1154831047  W2        2127            0.0000000000
      6380      2127  TIP3      H1            -11.1024262818        8.8981648903        0.6914768953  W2        2127            0.0000000000
      6381      2127  TIP3      H2            -10.9570262818       10.2132848903       -0.0441931047  W2        2127            0.0000000000
      6382      2128  TIP3      OH2            -7.6602162818        3.7768548903      -11.4923931047  W2        2128            0.0000000000
      6383      2128  TIP3      H1             -6.7683162818        3.6393548903      -11.1732731047  W2        2128            0.0000000000
      6384      2128  TIP3      H2             -7.6038562818        4.5674648903      -12.0290431047  W2        2128            0.0000000000
      6385      2129  TIP3      OH2           -17.1514162818        8.3905948903       -5.5826031047  W2        2129            0.0000000000
      6386      2129  TIP3      H1            -16.4066962818        8.3881648903       -6.1839531047  W2        2129            0.0000000000
      6387      2129  TIP3      H2            -17.0737562818        7.5669748903       -5.1010931047  W2        2129            0.0000000000
      6388      2130  TIP3      OH2           -10.1508362818       10.5540248903      -12.3269331047  W2        2130            0.0000000000
      6389      2130  TIP3      H1            -10.4459962818       11.3808148903      -11.9454531047  W2        2130            0.0000000000
      6390      2130  TIP3      H2            -10.8538362818        9.9347148903      -12.1307931047  W2        2130            0.0000000000
      6391      2131  TIP3      OH2           -20.1434462818        6.8512848903       -0.2677531047  W2        2131            0.0000000000
      6392      2131  TIP3      H1            -19.9205862818        6.4332448903        0.5639968953  W2        2131            0.0000000000
      6393      2131  TIP3      H2            -20.7454362818        6.2387848903       -0.6904731047  W2        2131            0.0000000000
      6394      2132  TIP3      OH2           -13.1269562818        6.3682748903        1.9452168953  W2        2132            0.0000000000
      6395      2132  TIP3      H1            -13.4228762818        6.2025748903        1.0501268953  W2        2132            0.0000000000
      6396      2132  TIP3      H2            -12.1954362818        6.1483048903        1.9346068953  W2        2132            0.0000000000
      6397      2133  TIP3      OH2            -8.5066762818       11.7414748903       -0.1649831047  W2        2133            0.0000000000
      6398      2133  TIP3      H1             -9.4072462818       11.9247348903       -0.4325931047  W2        2133            0.0000000000
      6399      2133  TIP3      H2             -8.4725662818       12.0004048903        0.7558968953  W2        2133            0.0000000000
      6400      2134  TIP3      OH2            -2.7753462818        3.9862648903      -11.7977231047  W2        2134            0.0000000000
      6401      2134  TIP3      H1             -3.3297162818        3.5900648903      -12.4699731047  W2        2134            0.0000000000
      6402      2134  TIP3      H2             -2.6749862818        4.8967848903      -12.0753931047  W2        2134            0.0000000000
      6403      2135  TIP3      OH2            -2.8121462818        9.7864348903        1.0394268953  W2        2135            0.0000000000
      6404      2135  TIP3      H1             -3.6632962818       10.0248148903        0.6720668953  W2        2135            0.0000000000
      6405      2135  TIP3      H2             -2.2218062818        9.7697548903        0.2861368953  W2        2135            0.0000000000
      6406      2136  TIP3      OH2            -4.4801762818       12.7723048903      -11.3325131047  W2        2136            0.0000000000
      6407      2136  TIP3      H1             -4.8530662818       11.9466848903      -11.0234531047  W2        2136            0.0000000000
      6408      2136  TIP3      H2             -4.2028262818       12.5892448903      -12.2301731047  W2        2136            0.0000000000
      6409      2137  TIP3      OH2            -7.3197862818        7.5802548903       -4.3113231047  W2        2137            0.0000000000
      6410      2137  TIP3      H1             -8.2480962818        7.3484448903       -4.3383931047  W2        2137            0.0000000000
      6411      2137  TIP3      H2             -6.8686762818        6.8032348903       -4.6414431047  W2        2137            0.0000000000
      6412      2138  TIP3      OH2           -14.7764762818       11.9084148903       -8.1784531047  W2        2138            0.0000000000
      6413      2138  TIP3      H1            -14.2492562818       12.6818548903       -8.3785731047  W2        2138            0.0000000000
      6414      2138  TIP3      H2            -15.6566262818       12.1333348903       -8.4800531047  W2        2138            0.0000000000
      6415      2139  TIP3      OH2           -19.0217062818        6.7708248903      -13.5912131047  W2        2139            0.0000000000
      6416      2139  TIP3      H1            -18.4057162818        7.3975448903      -13.2117331047  W2        2139            0.0000000000
      6417      2139  TIP3      H2            -19.8834462818        7.0868048903      -13.3195631047  W2        2139            0.0000000000
      6418      2140  TIP3      OH2           -13.3492462818        9.5714048903       -8.6020231047  W2        2140            0.0000000000
      6419      2140  TIP3      H1            -13.5902462818       10.4968448903       -8.5604931047  W2        2140            0.0000000000
      6420      2140  TIP3      H2            -14.0898862818        9.1125348903       -8.2056331047  W2        2140            0.0000000000
      6421      2141  TIP3      OH2           -12.8345862818       13.7207648903       -2.2869131047  W2        2141            0.0000000000
      6422      2141  TIP3      H1            -12.4721162818       14.5753248903       -2.5204731047  W2        2141            0.0000000000
      6423      2141  TIP3      H2            -12.3030662818       13.4289248903       -1.5462831047  W2        2141            0.0000000000
      6424      2142  TIP3      OH2           -14.6661662818       14.5931648903       -9.0568031047  W2        2142            0.0000000000
      6425      2142  TIP3      H1            -15.6161162818       14.6989048903       -9.0054731047  W2        2142            0.0000000000
      6426      2142  TIP3      H2            -14.3143562818       15.4139048903       -8.7120531047  W2        2142            0.0000000000
      6427      2143  TIP3      OH2            -9.2905062818        9.8198348903       -2.5863531047  W2        2143            0.0000000000
      6428      2143  TIP3      H1             -9.7163762818        9.5920048903       -1.7599531047  W2        2143            0.0000000000
      6429      2143  TIP3      H2             -8.7099262818        9.0810148903       -2.7688231047  W2        2143            0.0000000000
      6430      2144  TIP3      OH2            -7.0876162818       10.7488848903      -13.5124531047  W2        2144            0.0000000000
      6431      2144  TIP3      H1             -6.7343062818       10.3688648903      -12.7081031047  W2        2144            0.0000000000
      6432      2144  TIP3      H2             -8.0362662818       10.6553648903      -13.4255231047  W2        2144            0.0000000000
      6433      2145  TIP3      OH2            -6.6320862818       14.3717848903       -0.1168731047  W2        2145            0.0000000000
      6434      2145  TIP3      H1             -7.2337662818       13.8160748903       -0.6122431047  W2        2145            0.0000000000
      6435      2145  TIP3      H2             -6.3507162818       15.0387648903       -0.7431331047  W2        2145            0.0000000000
      6436      2146  TIP3      OH2            -2.5841762818       15.2281348903      -13.3114331047  W2        2146            0.0000000000
      6437      2146  TIP3      H1             -1.8403862818       15.8141848903      -13.4512731047  W2        2146            0.0000000000
      6438      2146  TIP3      H2             -3.2783662818       15.7967148903      -12.9781931047  W2        2146            0.0000000000
      6439      2147  TIP3      OH2           -18.5094962818        1.6045548903       -0.7096131047  W2        2147            0.0000000000
      6440      2147  TIP3      H1            -19.4022662818        1.9430948903       -0.7772131047  W2        2147            0.0000000000
      6441      2147  TIP3      H2            -18.6082162818        0.7491648903       -0.2915331047  W2        2147            0.0000000000
      6442      2148  TIP3      OH2            -6.2216862818        9.4210848903      -11.2856631047  W2        2148            0.0000000000
      6443      2148  TIP3      H1             -6.4989262818        8.6930148903      -10.7295531047  W2        2148            0.0000000000
      6444      2148  TIP3      H2             -5.2943862818        9.5402848903      -11.0804031047  W2        2148            0.0000000000
      6445      2149  TIP3      OH2           -18.8582962818       13.4089948903       -2.2746731047  W2        2149            0.0000000000
      6446      2149  TIP3      H1            -18.6412662818       12.4772348903       -2.3057031047  W2        2149            0.0000000000
      6447      2149  TIP3      H2            -18.6119462818       13.6834948903       -1.3913931047  W2        2149            0.0000000000
      6448      2150  TIP3      OH2           -12.9968362818       11.8604948903      -15.0654531047  W2        2150            0.0000000000
      6449      2150  TIP3      H1            -12.7578562818       11.1123048903      -15.6125631047  W2        2150            0.0000000000
      6450      2150  TIP3      H2            -13.2657062818       11.4726648903      -14.2326731047  W2        2150            0.0000000000
      6451      2151  TIP3      OH2           -14.0597762818       11.4308748903      -12.6091931047  W2        2151            0.0000000000
      6452      2151  TIP3      H1            -13.9129762818       10.9108548903      -11.8191031047  W2        2151            0.0000000000
      6453      2151  TIP3      H2            -14.0626062818       12.3376348903      -12.3026031047  W2        2151            0.0000000000
      6454      2152  TIP3      OH2           -17.6066662818        8.6832048903      -12.0986531047  W2        2152            0.0000000000
      6455      2152  TIP3      H1            -18.2927362818        9.0354548903      -11.5316831047  W2        2152            0.0000000000
      6456      2152  TIP3      H2            -17.0838762818        9.4461648903      -12.3452231047  W2        2152            0.0000000000
      6457      2153  TIP3      OH2            -9.7751562818        1.3455848903       -1.8197531047  W2        2153            0.0000000000
      6458      2153  TIP3      H1             -9.0763662818        1.4194548903       -1.1697831047  W2        2153            0.0000000000
      6459      2153  TIP3      H2            -10.1560162818        0.4810848903       -1.6654631047  W2        2153            0.0000000000
      6460      2154  TIP3      OH2            -8.9906662818        0.9977548903      -10.7225231047  W2        2154            0.0000000000
      6461      2154  TIP3      H1             -8.7708362818        1.4692948903      -11.5259831047  W2        2154            0.0000000000
      6462      2154  TIP3      H2             -8.4322662818        1.3920148903      -10.0524631047  W2        2154            0.0000000000
      6463      2155  TIP3      OH2           -11.3220562818       13.1282348903      -11.8597731047  W2        2155            0.0000000000
      6464      2155  TIP3      H1            -12.1384462818       13.6252048903      -11.8073431047  W2        2155            0.0000000000
      6465      2155  TIP3      H2            -10.7924262818       13.6035848903      -12.4998931047  W2        2155            0.0000000000
      6466      2156  TIP3      OH2           -11.7906762818        2.7256348903       -9.8876831047  W2        2156            0.0000000000
      6467      2156  TIP3      H1            -10.9784162818        3.2299548903       -9.8415131047  W2        2156            0.0000000000
      6468      2156  TIP3      H2            -12.0353762818        2.5806048903       -8.9737231047  W2        2156            0.0000000000
      6469      2157  TIP3      OH2           -11.2550362818        3.7119048903       -0.7030231047  W2        2157            0.0000000000
      6470      2157  TIP3      H1            -11.1360062818        4.2854448903        0.0540168953  W2        2157            0.0000000000
      6471      2157  TIP3      H2            -10.5995762818        3.0238448903       -0.5882431047  W2        2157            0.0000000000
      6472      2158  TIP3      OH2           -10.9070062818       -0.1930651097       -8.9495731047  W2        2158            0.0000000000
      6473      2158  TIP3      H1            -11.2536562818        0.4239948903       -8.3051431047  W2        2158            0.0000000000
      6474      2158  TIP3      H2            -10.2483162818        0.3075048903       -9.4310231047  W2        2158            0.0000000000
      6475      2159  TIP3      OH2           -13.9837462818       14.1719548903      -11.8780831047  W2        2159            0.0000000000
      6476      2159  TIP3      H1            -13.8228762818       14.9717048903      -12.3788231047  W2        2159            0.0000000000
      6477      2159  TIP3      H2            -14.1809662818       14.4785548903      -10.9930231047  W2        2159            0.0000000000
      6478      2160  TIP3      OH2           -15.2493062818        0.8698748903      -12.2623231047  W2        2160            0.0000000000
      6479      2160  TIP3      H1            -15.3328262818        1.7581848903      -11.9156831047  W2        2160            0.0000000000
      6480      2160  TIP3      H2            -14.3592762818        0.6045448903      -12.0306431047  W2        2160            0.0000000000
      6481      2161  TIP3      OH2            -5.0504562818        1.6189348903        0.1319468953  W2        2161            0.0000000000
      6482      2161  TIP3      H1             -5.9668762818        1.8811048903        0.0443168953  W2        2161            0.0000000000
      6483      2161  TIP3      H2             -4.7149562818        1.6158348903       -0.7645231047  W2        2161            0.0000000000
      6484      2162  TIP3      OH2            -6.4483562818        5.3690348903       -5.7723231047  W2        2162            0.0000000000
      6485      2162  TIP3      H1             -7.2459162818        4.9540548903       -6.1008231047  W2        2162            0.0000000000
      6486      2162  TIP3      H2             -6.0032462818        4.6784048903       -5.2812731047  W2        2162            0.0000000000
      6487      2163  TIP3      OH2           -16.9907762818       11.2970948903      -13.2018731047  W2        2163            0.0000000000
      6488      2163  TIP3      H1            -16.3986262818       11.9965748903      -12.9256331047  W2        2163            0.0000000000
      6489      2163  TIP3      H2            -16.5314762818       10.8640448903      -13.9214131047  W2        2163            0.0000000000
      6490      2164  TIP3      OH2           -18.6748562818        3.9613948903      -14.0859331047  W2        2164            0.0000000000
      6491      2164  TIP3      H1            -18.7195962818        4.9007048903      -13.9072331047  W2        2164            0.0000000000
      6492      2164  TIP3      H2            -19.5625362818        3.7258848903      -14.3557231047  W2        2164            0.0000000000
      6493      2165  TIP3      OH2            -5.3618962818       14.6252848903       -4.1499731047  W2        2165            0.0000000000
      6494      2165  TIP3      H1             -5.5174662818       15.3037248903       -4.8070431047  W2        2165            0.0000000000
      6495      2165  TIP3      H2             -4.4292562818       14.6972148903       -3.9469131047  W2        2165            0.0000000000
      6496      2166  TIP3      OH2           -17.8666562818       -1.2569451097       -5.4128331047  W2        2166            0.0000000000
      6497      2166  TIP3      H1            -18.0956762818       -1.1976951097       -6.3403331047  W2        2166            0.0000000000
      6498      2166  TIP3      H2            -18.3093162818       -2.0483951097       -5.1064231047  W2        2166            0.0000000000
      6499      2167  TIP3      OH2           -18.9363262818       12.6837648903       -9.2522531047  W2        2167            0.0000000000
      6500      2167  TIP3      H1            -19.7684662818       13.1560348903       -9.2251131047  W2        2167            0.0000000000
      6501      2167  TIP3      H2            -18.3904962818       13.1935248903       -9.8509431047  W2        2167            0.0000000000
      6502      2168  TIP3      OH2           -19.6479562818       15.2961348903        2.0775468953  W2        2168            0.0000000000
      6503      2168  TIP3      H1            -19.1077362818       15.0795348903        2.8374668953  W2        2168            0.0000000000
      6504      2168  TIP3      H2            -20.1291562818       14.4907348903        1.8877968953  W2        2168            0.0000000000
      6505      2169  TIP3      OH2           -15.0506162818       14.2155748903        3.6979668953  W2        2169            0.0000000000
      6506      2169  TIP3      H1            -14.2828962818       13.7566548903        4.0388868953  W2        2169            0.0000000000
      6507      2169  TIP3      H2            -15.0719962818       13.9895548903        2.7680868953  W2        2169            0.0000000000
      6508      2170  TIP3      OH2           -10.9586562818       13.7236348903      -14.9268531047  W2        2170            0.0000000000
      6509      2170  TIP3      H1            -11.6025562818       13.0924948903      -14.6054831047  W2        2170            0.0000000000
      6510      2170  TIP3      H2            -10.1968262818       13.1924348903      -15.1585031047  W2        2170            0.0000000000
      6511      2171  TIP3      OH2            -8.4737462818       12.5956848903        2.4271168953  W2        2171            0.0000000000
      6512      2171  TIP3      H1             -8.8247962818       11.7389848903        2.6701568953  W2        2171            0.0000000000
      6513      2171  TIP3      H2             -7.7474262818       12.7383548903        3.0340168953  W2        2171            0.0000000000
      6514      2172  TIP3      OH2            -6.3543662818       13.5406248903      -14.6930531047  W2        2172            0.0000000000
      6515      2172  TIP3      H1             -6.0713262818       12.7461448903      -14.2403631047  W2        2172            0.0000000000
      6516      2172  TIP3      H2             -5.6145762818       13.7737248903      -15.2539431047  W2        2172            0.0000000000
      6517      2173  TIP3      OH2           -19.7410062818        9.1065448903        3.0319768953  W2        2173            0.0000000000
      6518      2173  TIP3      H1            -19.5969562818        8.2046148903        2.7456468953  W2        2173            0.0000000000
      6519      2173  TIP3      H2            -20.5132662818        9.3927548903        2.5442068953  W2        2173            0.0000000000
      6520      2174  TIP3      OH2           -15.3996362818        9.4501148903      -14.8355631047  W2        2174            0.0000000000
      6521      2174  TIP3      H1            -15.3352262818        8.6560748903      -14.3049231047  W2        2174            0.0000000000
      6522      2174  TIP3      H2            -14.7467162818        9.3313948903      -15.5253631047  W2        2174            0.0000000000
      6523      2175  TIP3      OH2           -13.0853962818        9.0763548903        2.4646168953  W2        2175            0.0000000000
      6524      2175  TIP3      H1            -13.4140162818        9.3471648903        1.6073568953  W2        2175            0.0000000000
      6525      2175  TIP3      H2            -12.9335762818        8.1353348903        2.3771168953  W2        2175            0.0000000000
      6526      2176  TIP3      OH2           -10.0472962818       10.4972848903      -15.0997631047  W2        2176            0.0000000000
      6527      2176  TIP3      H1            -10.3158862818       10.6774948903      -14.1988731047  W2        2176            0.0000000000
      6528      2176  TIP3      H2            -10.2537362818        9.5719048903      -15.2311831047  W2        2176            0.0000000000
      6529      2177  TIP3      OH2            -7.3508762818        8.9920848903       -0.1521531047  W2        2177            0.0000000000
      6530      2177  TIP3      H1             -6.6053962818        9.5804548903       -0.2717531047  W2        2177            0.0000000000
      6531      2177  TIP3      H2             -8.1081962818        9.5740548903       -0.0888431047  W2        2177            0.0000000000
      6532      2178  TIP3      OH2           -18.9083562818        6.3068748903        2.4519068953  W2        2178            0.0000000000
      6533      2178  TIP3      H1            -18.5002362818        5.4495348903        2.3309668953  W2        2178            0.0000000000
      6534      2178  TIP3      H2            -19.1685962818        6.3210048903        3.3729368953  W2        2178            0.0000000000
      6535      2179  TIP3      OH2           -14.2502562818        7.4227348903      -12.5297631047  W2        2179            0.0000000000
      6536      2179  TIP3      H1            -14.7100562818        6.9385648903      -11.8439131047  W2        2179            0.0000000000
      6537      2179  TIP3      H2            -13.9953862818        6.7542748903      -13.1657131047  W2        2179            0.0000000000
      6538      2180  TIP3      OH2           -14.9613262818        5.3154448903       -0.1738031047  W2        2180            0.0000000000
      6539      2180  TIP3      H1            -15.5797162818        5.9901048903        0.1066668953  W2        2180            0.0000000000
      6540      2180  TIP3      H2            -14.6172062818        5.6368348903       -1.0071831047  W2        2180            0.0000000000
      6541      2181  TIP3      OH2           -13.1792162818        5.6659148903      -14.2674431047  W2        2181            0.0000000000
      6542      2181  TIP3      H1            -13.3597162818        5.5110348903      -15.1946131047  W2        2181            0.0000000000
      6543      2181  TIP3      H2            -12.2291662818        5.7737848903      -14.2226531047  W2        2181            0.0000000000
      6544      2182  TIP3      OH2            -9.9415062818        7.7869748903        3.1036768953  W2        2182            0.0000000000
      6545      2182  TIP3      H1             -8.9883862818        7.8708848903        3.0762768953  W2        2182            0.0000000000
      6546      2182  TIP3      H2            -10.1020462818        7.0751548903        3.7231668953  W2        2182            0.0000000000
      6547      2183  TIP3      OH2            -3.7893862818        8.0203348903      -14.8216331047  W2        2183            0.0000000000
      6548      2183  TIP3      H1             -4.0629062818        7.5958848903      -15.6348031047  W2        2183            0.0000000000
      6549      2183  TIP3      H2             -3.7499762818        8.9517848903      -15.0385931047  W2        2183            0.0000000000
      6550      2184  TIP3      OH2           -14.6219562818        2.6705248903        0.9085068953  W2        2184            0.0000000000
      6551      2184  TIP3      H1            -14.4718662818        1.9416548903        0.3064768953  W2        2184            0.0000000000
      6552      2184  TIP3      H2            -14.6197162818        3.4476948903        0.3497268953  W2        2184            0.0000000000
      6553      2185  TIP3      OH2           -14.2093862818        1.0401048903       -1.5987531047  W2        2185            0.0000000000
      6554      2185  TIP3      H1            -13.6736362818        1.4917748903       -2.2508231047  W2        2185            0.0000000000
      6555      2185  TIP3      H2            -15.0614262818        0.9320848903       -2.0213431047  W2        2185            0.0000000000
      6556      2186  TIP3      OH2           -12.6275462818        6.4797248903       -1.3592331047  W2        2186            0.0000000000
      6557      2186  TIP3      H1            -11.8770662818        6.3234748903       -1.9324531047  W2        2186            0.0000000000
      6558      2186  TIP3      H2            -12.9667162818        7.3313848903       -1.6346831047  W2        2186            0.0000000000
      6559      2187  TIP3      OH2            -8.2119262818        4.2949048903        3.6692968953  W2        2187            0.0000000000
      6560      2187  TIP3      H1             -8.0197962818        3.3638448903        3.5577468953  W2        2187            0.0000000000
      6561      2187  TIP3      H2             -7.3542962818        4.7198548903        3.6588368953  W2        2187            0.0000000000
      6562      2188  TIP3      OH2            -6.8952062818        7.0834248903        1.7465668953  W2        2188            0.0000000000
      6563      2188  TIP3      H1             -7.1767062818        7.7928848903        1.1689468953  W2        2188            0.0000000000
      6564      2188  TIP3      H2             -5.9527762818        7.0107248903        1.5956868953  W2        2188            0.0000000000
      6565      2189  TIP3      OH2           -16.1433262818        3.8688748903        2.8200668953  W2        2189            0.0000000000
      6566      2189  TIP3      H1            -16.9104262818        3.3363548903        2.6098268953  W2        2189            0.0000000000
      6567      2189  TIP3      H2            -15.4644262818        3.5589148903        2.2206968953  W2        2189            0.0000000000
      6568      2190  TIP3      OH2           -13.4038362818       -1.5033251097       -1.1673931047  W2        2190            0.0000000000
      6569      2190  TIP3      H1            -13.5018762818       -0.5570051097       -1.2727731047  W2        2190            0.0000000000
      6570      2190  TIP3      H2            -14.1462162818       -1.8759451097       -1.6430431047  W2        2190            0.0000000000
      6571      2191  TIP3      OH2           -12.1397862818        2.8182148903        2.3964468953  W2        2191            0.0000000000
      6572      2191  TIP3      H1            -12.3752462818        2.5988848903        3.2979368953  W2        2191            0.0000000000
      6573      2191  TIP3      H2            -12.9230962818        2.6113348903        1.8866968953  W2        2191            0.0000000000
      6574      2192  TIP3      OH2            -9.4241262818        1.9455648903        1.4717968953  W2        2192            0.0000000000
      6575      2192  TIP3      H1            -10.3715862818        1.9775348903        1.6041268953  W2        2192            0.0000000000
      6576      2192  TIP3      H2             -9.1114562818        1.3202748903        2.1256168953  W2        2192            0.0000000000
      6577      2193  TIP3      OH2            -7.7899762818        0.5796748903        3.4769868953  W2        2193            0.0000000000
      6578      2193  TIP3      H1             -7.8867962818       -0.3725951097        3.4711768953  W2        2193            0.0000000000
      6579      2193  TIP3      H2             -8.1116662818        0.8483548903        4.3375368953  W2        2193            0.0000000000
      6580      2194  TIP3      OH2           -17.9630462818        1.7892548903        2.5245368953  W2        2194            0.0000000000
      6581      2194  TIP3      H1            -17.7513062818        1.0828648903        1.9142868953  W2        2194            0.0000000000
      6582      2194  TIP3      H2            -18.0742962818        1.3518548903        3.3686568953  W2        2194            0.0000000000
      6583      2195  TIP3      OH2           -13.1820262818       -2.2095851097        1.5038868953  W2        2195            0.0000000000
      6584      2195  TIP3      H1            -12.4701862818       -2.8493651097        1.4897968953  W2        2195            0.0000000000
      6585      2195  TIP3      H2            -13.2829862818       -1.9427551097        0.5901968953  W2        2195            0.0000000000
      6586      2196  TIP3      OH2           -12.8282762818       -0.5267451097        3.5575168953  W2        2196            0.0000000000
      6587      2196  TIP3      H1            -12.9600562818       -1.0023651097        2.7373668953  W2        2196            0.0000000000
      6588      2196  TIP3      H2            -13.4275362818        0.2176148903        3.5022268953  W2        2196            0.0000000000
      6589      2197  TIP3      OH2           -13.2820462818       16.3562848903      -13.2660831047  W2        2197            0.0000000000
      6590      2197  TIP3      H1            -12.3489762818       16.5141548903      -13.1222431047  W2        2197            0.0000000000
      6591      2197  TIP3      H2            -13.5461662818       17.0315848903      -13.8909331047  W2        2197            0.0000000000
      6592      2198  TIP3      OH2           -19.7135562818       10.9926648903      -13.7832731047  W2        2198            0.0000000000
      6593      2198  TIP3      H1            -18.7996362818       11.0715548903      -13.5098831047  W2        2198            0.0000000000
      6594      2198  TIP3      H2            -19.7062462818       10.3056248903      -14.4497131047  W2        2198            0.0000000000
      6595      2199  TIP3      OH2           -21.0644962818       16.3855148903       -8.7058831047  W2        2199            0.0000000000
      6596      2199  TIP3      H1            -21.7117862818       15.9236848903       -9.2387631047  W2        2199            0.0000000000
      6597      2199  TIP3      H2            -20.7100362818       15.7138448903       -8.1232631047  W2        2199            0.0000000000
      6598      2200  TIP3      OH2           -20.1945762818       14.4662148903       -6.9012631047  W2        2200            0.0000000000
      6599      2200  TIP3      H1            -20.5288962818       13.5859448903       -6.7292431047  W2        2200            0.0000000000
      6600      2200  TIP3      H2            -19.9723362818       14.8117148903       -6.0367031047  W2        2200            0.0000000000
      6601      2201  TIP3      OH2            -2.6460962818       15.2758548903       -3.9207831047  W2        2201            0.0000000000
      6602      2201  TIP3      H1             -2.6674262818       15.4606948903       -2.9818431047  W2        2201            0.0000000000
      6603      2201  TIP3      H2             -1.9554762818       15.8442548903       -4.2616431047  W2        2201            0.0000000000
      6604      2202  TIP3      OH2            -3.0828062818       14.8429648903       -0.9988731047  W2        2202            0.0000000000
      6605      2202  TIP3      H1             -3.5699362818       14.1073748903       -1.3701331047  W2        2202            0.0000000000
      6606      2202  TIP3      H2             -2.5335362818       14.4493548903       -0.3209331047  W2        2202            0.0000000000
      6607      2203  TIP3      OH2            -4.6320762818       10.6327748903        3.6391568953  W2        2203            0.0000000000
      6608      2203  TIP3      H1             -5.4979662818       10.5277448903        4.0333868953  W2        2203            0.0000000000
      6609      2203  TIP3      H2             -4.2554862818       11.3911048903        4.0856268953  W2        2203            0.0000000000
      6610      2204  TIP3      OH2            -3.3311062818        8.8891448903      -10.8465931047  W2        2204            0.0000000000
      6611      2204  TIP3      H1             -2.4809662818        9.3102348903      -10.7194331047  W2        2204            0.0000000000
      6612      2204  TIP3      H2             -3.3255962818        8.1491548903      -10.2394531047  W2        2204            0.0000000000
      6613      2205  TIP3      OH2            -2.9365462818        6.9428848903       -9.0230231047  W2        2205            0.0000000000
      6614      2205  TIP3      H1             -3.6630862818        6.4631448903       -8.6252631047  W2        2205            0.0000000000
      6615      2205  TIP3      H2             -2.3552162818        7.1483548903       -8.2908631047  W2        2205            0.0000000000
      6616      2206  TIP3      OH2            -3.1774262818        9.7276348903       -4.0752631047  W2        2206            0.0000000000
      6617      2206  TIP3      H1             -2.3440062818        9.3496348903       -4.3559031047  W2        2206            0.0000000000
      6618      2206  TIP3      H2             -3.0653962818       10.6707548903       -4.1943531047  W2        2206            0.0000000000
      6619      2207  TIP3      OH2            -4.6911962818       12.6053848903       -1.7684231047  W2        2207            0.0000000000
      6620      2207  TIP3      H1             -5.3386662818       12.9305348903       -1.1429031047  W2        2207            0.0000000000
      6621      2207  TIP3      H2             -5.2087962818       12.1651548903       -2.4425931047  W2        2207            0.0000000000
      6622      2208  TIP3      OH2            -2.6682362818        6.8437348903      -12.6318931047  W2        2208            0.0000000000
      6623      2208  TIP3      H1             -3.1901262818        7.2001448903      -13.3508031047  W2        2208            0.0000000000
      6624      2208  TIP3      H2             -2.7013162818        7.5185148903      -11.9538031047  W2        2208            0.0000000000
      6625      2209  TIP3      OH2            -4.3193362818        4.0832948903      -14.0811831047  W2        2209            0.0000000000
      6626      2209  TIP3      H1             -4.2228962818        4.7499948903      -14.7612131047  W2        2209            0.0000000000
      6627      2209  TIP3      H2             -4.4593762818        3.2679248903      -14.5626331047  W2        2209            0.0000000000
      6628      2210  TIP3      OH2            -5.1498662818        5.4635348903       -8.4601531047  W2        2210            0.0000000000
      6629      2210  TIP3      H1             -5.2999862818        4.5183948903       -8.4803731047  W2        2210            0.0000000000
      6630      2210  TIP3      H2             -5.5034162818        5.7446748903       -7.6162431047  W2        2210            0.0000000000
      6631      2211  TIP3      OH2           -20.1146262818        7.5417548903       -4.4497731047  W2        2211            0.0000000000
      6632      2211  TIP3      H1            -19.9303362818        7.4599248903       -5.3854831047  W2        2211            0.0000000000
      6633      2211  TIP3      H2            -19.2653362818        7.4174548903       -4.0261331047  W2        2211            0.0000000000
      6634      2212  TIP3      OH2            -4.2935762818        7.4338648903        1.1786768953  W2        2212            0.0000000000
      6635      2212  TIP3      H1             -3.7108462818        6.6990948903        1.3703968953  W2        2212            0.0000000000
      6636      2212  TIP3      H2             -3.7296462818        8.2058948903        1.2252568953  W2        2212            0.0000000000
      6637      2213  TIP3      OH2            -2.7968662818        5.3364448903        1.8632168953  W2        2213            0.0000000000
      6638      2213  TIP3      H1             -3.6601962818        4.9576548903        1.6976868953  W2        2213            0.0000000000
      6639      2213  TIP3      H2             -2.1924962818        4.5979248903        1.7887968953  W2        2213            0.0000000000
      6640      2214  TIP3      OH2            -5.0719562818        1.4912748903      -14.9636331047  W2        2214            0.0000000000
      6641      2214  TIP3      H1             -4.4613762818        1.1199548903      -14.3268131047  W2        2214            0.0000000000
      6642      2214  TIP3      H2             -5.9088062818        1.0699648903      -14.7676331047  W2        2214            0.0000000000
      6643      2215  TIP3      OH2            -5.4393862818        3.0461148903       -9.9976431047  W2        2215            0.0000000000
      6644      2215  TIP3      H1             -5.1596762818        2.1391548903       -9.8734731047  W2        2215            0.0000000000
      6645      2215  TIP3      H2             -4.6802162818        3.4802648903      -10.3867231047  W2        2215            0.0000000000
      6646      2216  TIP3      OH2            -4.8275562818        3.6278548903       -4.5617531047  W2        2216            0.0000000000
      6647      2216  TIP3      H1             -3.8947562818        3.8398448903       -4.5961531047  W2        2216            0.0000000000
      6648      2216  TIP3      H2             -5.0628062818        3.7290648903       -3.6394531047  W2        2216            0.0000000000
      6649      2217  TIP3      OH2            -4.7983662818        4.3643848903       -1.7858131047  W2        2217            0.0000000000
      6650      2217  TIP3      H1             -5.6412362818        4.6324248903       -1.4198331047  W2        2217            0.0000000000
      6651      2217  TIP3      H2             -4.3559362818        5.1865748903       -1.9967031047  W2        2217            0.0000000000
      6652      2218  TIP3      OH2           -20.5171462818        2.8122548903        1.6911068953  W2        2218            0.0000000000
      6653      2218  TIP3      H1            -19.5976562818        2.6900848903        1.9274168953  W2        2218            0.0000000000
      6654      2218  TIP3      H2            -20.9666962818        2.0622248903        2.0804568953  W2        2218            0.0000000000
      6655      2219  TIP3      OH2            -2.5152062818       -1.6555951097        3.5676868953  W2        2219            0.0000000000
      6656      2219  TIP3      H1             -2.1655062818       -2.3092451097        2.9621568953  W2        2219            0.0000000000
      6657      2219  TIP3      H2             -2.3682562818       -0.8181851097        3.1279468953  W2        2219            0.0000000000
      6658      2220  TIP3      OH2            -4.8259062818        0.3090448903       -9.9494431047  W2        2220            0.0000000000
      6659      2220  TIP3      H1             -4.6434062818       -0.1398051097       -9.1239431047  W2        2220            0.0000000000
      6660      2220  TIP3      H2             -5.4256162818       -0.2755151097      -10.4129831047  W2        2220            0.0000000000
      6661      2221  TIP3      OH2           -19.2958962818        1.1244148903       -5.4176031047  W2        2221            0.0000000000
      6662      2221  TIP3      H1            -18.8507362818        0.3326648903       -5.1156331047  W2        2221            0.0000000000
      6663      2221  TIP3      H2            -18.8295962818        1.8409348903       -4.9870431047  W2        2221            0.0000000000
      6664      2222  TIP3      OH2           -20.9918662818        4.1237148903       -4.3485831047  W2        2222            0.0000000000
      6665      2222  TIP3      H1            -20.4998862818        3.9027648903       -5.1393831047  W2        2222            0.0000000000
      6666      2222  TIP3      H2            -20.6297762818        4.9640548903       -4.0676331047  W2        2222            0.0000000000
      6667      2223  TIP3      OH2            -2.9954862818        0.4538648903        1.9168168953  W2        2223            0.0000000000
      6668      2223  TIP3      H1             -3.9129162818        0.7245748903        1.8811668953  W2        2223            0.0000000000
      6669      2223  TIP3      H2             -2.8725462818       -0.0812951097        1.1327868953  W2        2223            0.0000000000
      6670      2224  TIP3      OH2            -2.9592862818        0.3768548903      -13.4214131047  W2        2224            0.0000000000
      6671      2224  TIP3      H1             -2.5470262818       -0.3445751097      -13.8966131047  W2        2224            0.0000000000
      6672      2224  TIP3      H2             -2.2776362818        1.0463148903      -13.3629831047  W2        2224            0.0000000000
      6673      2225  TIP3      OH2           -20.6782162818        0.3816248903      -10.2943431047  W2        2225            0.0000000000
      6674      2225  TIP3      H1            -21.6033762818        0.5902848903      -10.4237931047  W2        2225            0.0000000000
      6675      2225  TIP3      H2            -20.2242262818        0.8657048903      -10.9841131047  W2        2225            0.0000000000
      6676      2226  TIP3      OH2            -5.9074962818       15.3657948903       -8.3486031047  W2        2226            0.0000000000
      6677      2226  TIP3      H1             -5.2552062818       15.0180048903       -8.9566931047  W2        2226            0.0000000000
      6678      2226  TIP3      H2             -5.3971162818       15.8541148903       -7.7026331047  W2        2226            0.0000000000
      6679      2227  TIP3      OH2           -20.7146762818       -0.8804751097       -1.9500931047  W2        2227            0.0000000000
      6680      2227  TIP3      H1            -21.3796262818       -1.1264451097       -1.3070031047  W2        2227            0.0000000000
      6681      2227  TIP3      H2            -21.1575462818       -0.2584351097       -2.5272931047  W2        2227            0.0000000000
      6682      2228  TIP3      OH2           -18.5227462818       12.2949348903        2.1944868953  W2        2228            0.0000000000
      6683      2228  TIP3      H1            -19.3434962818       12.4695848903        1.7339568953  W2        2228            0.0000000000
      6684      2228  TIP3      H2            -18.7749662818       12.2214048903        3.1149268953  W2        2228            0.0000000000
      6685      2229  TIP3      OH2           -15.5684562818       13.2690548903       -1.5471131047  W2        2229            0.0000000000
      6686      2229  TIP3      H1            -15.9933462818       14.0789048903       -1.8296531047  W2        2229            0.0000000000
      6687      2229  TIP3      H2            -14.6641762818       13.3544648903       -1.8491331047  W2        2229            0.0000000000
      6688      2230  TIP3      OH2           -11.2573162818       14.6680548903        1.4122568953  W2        2230            0.0000000000
      6689      2230  TIP3      H1            -11.0725662818       14.3346648903        2.2902868953  W2        2230            0.0000000000
      6690      2230  TIP3      H2            -10.4108662818       14.9779148903        1.0901768953  W2        2230            0.0000000000
      6691      2231  TIP3      OH2            -8.9122762818       15.9539448903        0.6563968953  W2        2231            0.0000000000
      6692      2231  TIP3      H1             -8.2353862818       15.3211748903        0.4163168953  W2        2231            0.0000000000
      6693      2231  TIP3      H2             -8.5903962818       16.3549948903        1.4637268953  W2        2231            0.0000000000
      6694      2232  TIP3      OH2            -3.9948962818       -1.4565051097       -0.2641031047  W2        2232            0.0000000000
      6695      2232  TIP3      H1             -4.8075462818       -1.1314751097       -0.6516331047  W2        2232            0.0000000000
      6696      2232  TIP3      H2             -3.7620462818       -2.2166551097       -0.7971931047  W2        2232            0.0000000000
      6697      2233  TIP3      OH2           -18.1667862818       16.5254448903       -1.4995831047  W2        2233            0.0000000000
      6698      2233  TIP3      H1            -18.8871462818       16.9655448903       -1.9508131047  W2        2233            0.0000000000
      6699      2233  TIP3      H2            -18.5323862818       16.2749148903       -0.6511831047  W2        2233            0.0000000000
      6700      2234  TIP3      OH2           -15.6995262818       16.1258348903       -2.4698631047  W2        2234            0.0000000000
      6701      2234  TIP3      H1            -16.5643062818       16.1976848903       -2.0658531047  W2        2234            0.0000000000
      6702      2234  TIP3      H2            -15.7546262818       16.6725648903       -3.2536131047  W2        2234            0.0000000000
      6703      2235  TIP3      OH2           -10.9889662818       16.0137248903       -3.2942631047  W2        2235            0.0000000000
      6704      2235  TIP3      H1            -11.4455662818       16.5426948903       -3.9484231047  W2        2235            0.0000000000
      6705      2235  TIP3      H2            -10.8261662818       16.6168648903       -2.5690331047  W2        2235            0.0000000000
      6706      2236  TIP3      OH2            -8.6613362818       14.8916848903       -2.3492331047  W2        2236            0.0000000000
      6707      2236  TIP3      H1             -9.5659662818       15.0567048903       -2.6150231047  W2        2236            0.0000000000
      6708      2236  TIP3      H2             -8.2324762818       15.7449048903       -2.4148931047  W2        2236            0.0000000000
      6709      2237  TIP3      OH2            -6.0571462818       16.4615948903       -2.0544531047  W2        2237            0.0000000000
      6710      2237  TIP3      H1             -6.2389462818       17.3774848903       -2.2649631047  W2        2237            0.0000000000
      6711      2237  TIP3      H2             -5.8803662818       16.0513048903       -2.9009931047  W2        2237            0.0000000000
      6712      2238  TIP3      OH2           -18.7519762818       15.1486948903       -4.5894031047  W2        2238            0.0000000000
      6713      2238  TIP3      H1            -18.7703762818       14.7232048903       -3.7321731047  W2        2238            0.0000000000
      6714      2238  TIP3      H2            -17.9471862818       14.8301948903       -4.9981831047  W2        2238            0.0000000000
      6715      2239  TIP3      OH2           -16.6106662818       13.8585648903       -5.9344131047  W2        2239            0.0000000000
      6716      2239  TIP3      H1            -16.8295962818       12.9423048903       -5.7648131047  W2        2239            0.0000000000
      6717      2239  TIP3      H2            -15.7864462818       13.9986048903       -5.4682731047  W2        2239            0.0000000000
      6718      2240  TIP3      OH2           -14.0734162818       14.3284948903       -5.0856131047  W2        2240            0.0000000000
      6719      2240  TIP3      H1            -13.8608462818       13.4403948903       -5.3725231047  W2        2240            0.0000000000
      6720      2240  TIP3      H2            -14.0089062818       14.2942648903       -4.1312131047  W2        2240            0.0000000000
      6721      2241  TIP3      OH2           -10.5650462818       -0.0074451097       -5.9412831047  W2        2241            0.0000000000
      6722      2241  TIP3      H1            -11.2393662818       -0.6368851097       -5.6857031047  W2        2241            0.0000000000
      6723      2241  TIP3      H2            -10.0011262818       -0.4915551097       -6.5444931047  W2        2241            0.0000000000
      6724      2242  TIP3      OH2            -5.4223262818       -1.9000451097       -5.8285731047  W2        2242            0.0000000000
      6725      2242  TIP3      H1             -4.8185662818       -1.3525051097       -6.3304731047  W2        2242            0.0000000000
      6726      2242  TIP3      H2             -6.2921262818       -1.5810051097       -6.0691631047  W2        2242            0.0000000000
      6727      2243  TIP3      OH2            -3.6952862818       -0.7611751097       -7.4954831047  W2        2243            0.0000000000
      6728      2243  TIP3      H1             -3.0835362818       -1.2756051097       -8.0221231047  W2        2243            0.0000000000
      6729      2243  TIP3      H2             -3.3129462818        0.1160348903       -7.4720431047  W2        2243            0.0000000000
      6730      2244  TIP3      OH2           -18.2382962818       -1.3734151097       -8.1192931047  W2        2244            0.0000000000
      6731      2244  TIP3      H1            -19.0153162818       -1.6079251097       -8.6267031047  W2        2244            0.0000000000
      6732      2244  TIP3      H2            -17.7079362818       -2.1702051097       -8.1104931047  W2        2244            0.0000000000
      6733      2245  TIP3      OH2           -19.4019562818       -1.5756051097      -12.3156831047  W2        2245            0.0000000000
      6734      2245  TIP3      H1            -18.9628862818       -0.9645551097      -12.9073331047  W2        2245            0.0000000000
      6735      2245  TIP3      H2            -20.0357162818       -1.0371951097      -11.8416831047  W2        2245            0.0000000000
      6736      2246  TIP3      OH2           -13.6590362818       -1.4467051097       -8.3059831047  W2        2246            0.0000000000
      6737      2246  TIP3      H1            -12.7846962818       -1.0582751097       -8.3355531047  W2        2246            0.0000000000
      6738      2246  TIP3      H2            -13.7949562818       -1.6619251097       -7.3832631047  W2        2246            0.0000000000
      6739      2247  TIP3      OH2            -8.1021962818       -1.4167251097       -6.6568131047  W2        2247            0.0000000000
      6740      2247  TIP3      H1             -8.0260362818       -1.3215651097       -7.6062131047  W2        2247            0.0000000000
      6741      2247  TIP3      H2             -8.3772762818       -2.3244351097       -6.5279031047  W2        2247            0.0000000000
      6742      2248  TIP3      OH2            -6.7489362818       -1.3909451097      -10.9643131047  W2        2248            0.0000000000
      6743      2248  TIP3      H1             -7.4518262818       -0.7760251097      -11.1741731047  W2        2248            0.0000000000
      6744      2248  TIP3      H2             -7.1937962818       -2.2282751097      -10.8332231047  W2        2248            0.0000000000
      6745      2249  TIP3      OH2           -19.5010062818       14.3726148903      -11.4181731047  W2        2249            0.0000000000
      6746      2249  TIP3      H1            -20.1860162818       14.3345048903      -12.0856631047  W2        2249            0.0000000000
      6747      2249  TIP3      H2            -19.4972862818       15.2853748903      -11.1299631047  W2        2249            0.0000000000
      6748      2250  TIP3      OH2           -17.5410462818        0.3405448903      -13.8732731047  W2        2250            0.0000000000
      6749      2250  TIP3      H1            -17.0497062818       -0.2892151097      -14.4007231047  W2        2250            0.0000000000
      6750      2250  TIP3      H2            -16.9174162818        0.6364848903      -13.2101531047  W2        2250            0.0000000000
      6751      2251  TIP3      OH2           -12.5150362818        0.6336948903      -11.4162231047  W2        2251            0.0000000000
      6752      2251  TIP3      H1            -12.3369062818       -0.0129851097      -10.7333631047  W2        2251            0.0000000000
      6753      2251  TIP3      H2            -12.5684162818        1.4674648903      -10.9491131047  W2        2251            0.0000000000
      6754      2252  TIP3      OH2           -10.6366562818       15.5821048903      -13.0205531047  W2        2252            0.0000000000
      6755      2252  TIP3      H1             -9.7706362818       15.9488448903      -13.1987331047  W2        2252            0.0000000000
      6756      2252  TIP3      H2            -10.8833762818       15.1429048903      -13.8344731047  W2        2252            0.0000000000
      6757      2253  TIP3      OH2            -3.9276962818       15.1451348903      -10.3414431047  W2        2253            0.0000000000
      6758      2253  TIP3      H1             -4.1219862818       14.3973448903      -10.9064831047  W2        2253            0.0000000000
      6759      2253  TIP3      H2             -3.9666862818       15.9031448903      -10.9246531047  W2        2253            0.0000000000
      6760      2254  TIP3      OH2           -18.2804962818       -0.8592251097        1.3983268953  W2        2254            0.0000000000
      6761      2254  TIP3      H1            -18.6466762818       -1.6249651097        1.8407968953  W2        2254            0.0000000000
      6762      2254  TIP3      H2            -17.3676462818       -0.8302051097        1.6848368953  W2        2254            0.0000000000
      6763      2255  TIP3      OH2           -16.3074162818       -1.5087851097        2.9340368953  W2        2255            0.0000000000
      6764      2255  TIP3      H1            -15.4090562818       -1.7827651097        2.7493768953  W2        2255            0.0000000000
      6765      2255  TIP3      H2            -16.6941062818       -2.2511851097        3.3982968953  W2        2255            0.0000000000
      6766      2256  TIP3      OH2           -17.6828862818       15.2926948903      -14.3929631047  W2        2256            0.0000000000
      6767      2256  TIP3      H1            -17.9504262818       15.5789848903      -13.5196531047  W2        2256            0.0000000000
      6768      2256  TIP3      H2            -16.9116262818       14.7466148903      -14.2407131047  W2        2256            0.0000000000
      6769      2257  TIP3      OH2            -7.8861862818       -2.1762551097        3.1163168953  W2        2257            0.0000000000
      6770      2257  TIP3      H1             -7.8094662818       -2.6021851097        3.9700868953  W2        2257            0.0000000000
      6771      2257  TIP3      H2             -6.9925262818       -2.1627851097        2.7736668953  W2        2257            0.0000000000
      6772      2258  TIP3      OH2            -4.7100762818       13.8963748903        1.8087368953  W2        2258            0.0000000000
      6773      2258  TIP3      H1             -5.4918862818       13.7101748903        1.2887968953  W2        2258            0.0000000000
      6774      2258  TIP3      H2             -4.7820862818       14.8258048903        2.0259868953  W2        2258            0.0000000000
      6775      2259  TIP3      OH2             9.6959637182        7.7828148903       -8.1605431047  W2        2259            0.0000000000
      6776      2259  TIP3      H1              9.7850737182        8.7266348903       -8.2928331047  W2        2259            0.0000000000
      6777      2259  TIP3      H2              9.0577237182        7.5074548903       -8.8186031047  W2        2259            0.0000000000
      6778      2260  TIP3      OH2             8.6290937182        7.0378848903       -4.7417231047  W2        2260            0.0000000000
      6779      2260  TIP3      H1              8.5908437182        6.3915148903       -4.0367631047  W2        2260            0.0000000000
      6780      2260  TIP3      H2              8.3067437182        6.5713248903       -5.5128531047  W2        2260            0.0000000000
      6781      2261  TIP3      OH2             0.9975937182        6.6520948903       -3.1487331047  W2        2261            0.0000000000
      6782      2261  TIP3      H1              1.0388037182        6.0264248903       -2.4254931047  W2        2261            0.0000000000
      6783      2261  TIP3      H2              1.7003637182        7.2759548903       -2.9666931047  W2        2261            0.0000000000
      6784      2262  TIP3      OH2            12.3351137182        9.9769248903       -6.4402131047  W2        2262            0.0000000000
      6785      2262  TIP3      H1             11.8943837182        9.2565248903       -5.9896531047  W2        2262            0.0000000000
      6786      2262  TIP3      H2             12.3220837182       10.6976448903       -5.8104431047  W2        2262            0.0000000000
      6787      2263  TIP3      OH2             1.9209037182       11.1019848903       -4.6138231047  W2        2263            0.0000000000
      6788      2263  TIP3      H1              1.5514237182       10.3000348903       -4.9833931047  W2        2263            0.0000000000
      6789      2263  TIP3      H2              2.8620137182       10.9334748903       -4.5674831047  W2        2263            0.0000000000
      6790      2264  TIP3      OH2            -1.4690462818        4.7622448903       -9.2209431047  W2        2264            0.0000000000
      6791      2264  TIP3      H1             -1.9167062818        5.6081148903       -9.2392931047  W2        2264            0.0000000000
      6792      2264  TIP3      H2             -2.0299262818        4.1826648903       -9.7364331047  W2        2264            0.0000000000
      6793      2265  TIP3      OH2            -0.7584362818        6.9242048903       -7.0951431047  W2        2265            0.0000000000
      6794      2265  TIP3      H1             -0.5450862818        6.1543648903       -6.5678431047  W2        2265            0.0000000000
      6795      2265  TIP3      H2             -0.0206762818        7.0138748903       -7.6983831047  W2        2265            0.0000000000
      6796      2266  TIP3      OH2             9.4466637182       15.0810948903       -6.2281731047  W2        2266            0.0000000000
      6797      2266  TIP3      H1             10.0663037182       14.4045648903       -6.5012531047  W2        2266            0.0000000000
      6798      2266  TIP3      H2              9.2384037182       14.8631748903       -5.3196831047  W2        2266            0.0000000000
      6799      2267  TIP3      OH2             7.0185337182        9.4700248903       -4.3356231047  W2        2267            0.0000000000
      6800      2267  TIP3      H1              7.3223237182        8.7841648903       -4.9302131047  W2        2267            0.0000000000
      6801      2267  TIP3      H2              7.7399337182        9.5888948903       -3.7178231047  W2        2267            0.0000000000
      6802      2268  TIP3      OH2            15.6815137182        1.0715548903       -3.4750031047  W2        2268            0.0000000000
      6803      2268  TIP3      H1             15.7307337182        1.6816748903       -2.7390931047  W2        2268            0.0000000000
      6804      2268  TIP3      H2             16.1070237182        1.5326448903       -4.1978931047  W2        2268            0.0000000000
      6805      2269  TIP3      OH2            10.1592337182        3.8642648903       -4.0081431047  W2        2269            0.0000000000
      6806      2269  TIP3      H1             10.3018237182        2.9179648903       -3.9879831047  W2        2269            0.0000000000
      6807      2269  TIP3      H2             10.0531337182        4.0712448903       -4.9366531047  W2        2269            0.0000000000
      6808      2270  TIP3      OH2             3.3140637182        1.9659048903       -6.7356631047  W2        2270            0.0000000000
      6809      2270  TIP3      H1              3.3571737182        2.8257548903       -7.1540331047  W2        2270            0.0000000000
      6810      2270  TIP3      H2              2.8564737182        1.4133748903       -7.3693431047  W2        2270            0.0000000000
      6811      2271  TIP3      OH2            11.0363337182        2.0964648903       -8.3348331047  W2        2271            0.0000000000
      6812      2271  TIP3      H1             11.6827637182        1.7677848903       -7.7100731047  W2        2271            0.0000000000
      6813      2271  TIP3      H2             11.5462737182        2.6143648903       -8.9576931047  W2        2271            0.0000000000
      6814      2272  TIP3      OH2            -0.0657862818        4.3624848903       -5.9735231047  W2        2272            0.0000000000
      6815      2272  TIP3      H1              0.5878737182        3.8126548903       -5.5415131047  W2        2272            0.0000000000
      6816      2272  TIP3      H2             -0.0418562818        4.0883848903       -6.8903231047  W2        2272            0.0000000000
      6817      2273  TIP3      OH2             5.0906637182        5.9126148903       -6.7583731047  W2        2273            0.0000000000
      6818      2273  TIP3      H1              5.7067637182        5.3861548903       -6.2489731047  W2        2273            0.0000000000
      6819      2273  TIP3      H2              4.5045437182        5.2724848903       -7.1620131047  W2        2273            0.0000000000
      6820      2274  TIP3      OH2            16.0729737182        2.5494748903       -1.2390231047  W2        2274            0.0000000000
      6821      2274  TIP3      H1             15.3844337182        3.2075448903       -1.3343631047  W2        2274            0.0000000000
      6822      2274  TIP3      H2             16.0884337182        2.3522648903       -0.3024831047  W2        2274            0.0000000000
      6823      2275  TIP3      OH2             2.1242537182        0.8837448903       -2.6615831047  W2        2275            0.0000000000
      6824      2275  TIP3      H1              1.9054237182        1.4138048903       -3.4279831047  W2        2275            0.0000000000
      6825      2275  TIP3      H2              1.4563437182        1.1102948903       -2.0144431047  W2        2275            0.0000000000
      6826      2276  TIP3      OH2             9.4932337182       10.3838548903       -9.1176731047  W2        2276            0.0000000000
      6827      2276  TIP3      H1              9.1977437182       10.0610848903       -9.9689831047  W2        2276            0.0000000000
      6828      2276  TIP3      H2              9.1690137182       11.2835248903       -9.0764131047  W2        2276            0.0000000000
      6829      2277  TIP3      OH2             4.6933937182        8.5593148903       -2.3742131047  W2        2277            0.0000000000
      6830      2277  TIP3      H1              3.9533037182        9.1574648903       -2.2706931047  W2        2277            0.0000000000
      6831      2277  TIP3      H2              5.4073437182        9.1132748903       -2.6898531047  W2        2277            0.0000000000
      6832      2278  TIP3      OH2            12.8001737182        1.3873948903       -6.3542431047  W2        2278            0.0000000000
      6833      2278  TIP3      H1             12.5849737182        0.6217348903       -5.8216431047  W2        2278            0.0000000000
      6834      2278  TIP3      H2             13.4559137182        1.8598548903       -5.8413931047  W2        2278            0.0000000000
      6835      2279  TIP3      OH2             1.7179837182        2.7759248903       -4.7093631047  W2        2279            0.0000000000
      6836      2279  TIP3      H1              2.3316137182        3.4086848903       -4.3361231047  W2        2279            0.0000000000
      6837      2279  TIP3      H2              2.2300537182        2.3034248903       -5.3656731047  W2        2279            0.0000000000
      6838      2280  TIP3      OH2             3.1008237182       10.5236148903       -1.5870631047  W2        2280            0.0000000000
      6839      2280  TIP3      H1              3.0955837182       11.4029648903       -1.9651331047  W2        2280            0.0000000000
      6840      2280  TIP3      H2              2.2472337182       10.4400248903       -1.1620731047  W2        2280            0.0000000000
      6841      2281  TIP3      OH2            -0.7780862818       10.1944048903      -10.8051331047  W2        2281            0.0000000000
      6842      2281  TIP3      H1             -1.0499962818       10.4235048903      -11.6938431047  W2        2281            0.0000000000
      6843      2281  TIP3      H2             -0.7325162818       11.0322848903      -10.3446031047  W2        2281            0.0000000000
      6844      2282  TIP3      OH2            12.8468837182       11.8159948903       -4.0922831047  W2        2282            0.0000000000
      6845      2282  TIP3      H1             11.9052537182       11.8743848903       -3.9305931047  W2        2282            0.0000000000
      6846      2282  TIP3      H2             13.1234937182       12.7220448903       -4.2293131047  W2        2282            0.0000000000
      6847      2283  TIP3      OH2            13.1475837182        0.1025248903       -2.6748931047  W2        2283            0.0000000000
      6848      2283  TIP3      H1             12.4115037182        0.7132348903       -2.7127631047  W2        2283            0.0000000000
      6849      2283  TIP3      H2             13.8309837182        0.5174248903       -3.2012531047  W2        2283            0.0000000000
      6850      2284  TIP3      OH2             6.1507237182       -1.8107451097       -5.2090931047  W2        2284            0.0000000000
      6851      2284  TIP3      H1              6.0331437182       -2.7591451097       -5.2632631047  W2        2284            0.0000000000
      6852      2284  TIP3      H2              5.2957337182       -1.4781351097       -4.9359831047  W2        2284            0.0000000000
      6853      2285  TIP3      OH2            11.0990037182       13.5973448903       -7.4671231047  W2        2285            0.0000000000
      6854      2285  TIP3      H1             11.5242337182       12.8901348903       -7.9521631047  W2        2285            0.0000000000
      6855      2285  TIP3      H2             11.4160037182       14.3986148903       -7.8839031047  W2        2285            0.0000000000
      6856      2286  TIP3      OH2            12.2586537182       11.4981948903       -8.9584631047  W2        2286            0.0000000000
      6857      2286  TIP3      H1             12.0011337182       10.8082048903       -9.5698731047  W2        2286            0.0000000000
      6858      2286  TIP3      H2             12.3297337182       11.0553148903       -8.1128731047  W2        2286            0.0000000000
      6859      2287  TIP3      OH2            13.9446737182       10.0648648903       -0.4811131047  W2        2287            0.0000000000
      6860      2287  TIP3      H1             14.0843037182        9.4731148903       -1.2204131047  W2        2287            0.0000000000
      6861      2287  TIP3      H2             14.1119537182       10.9374548903       -0.8372331047  W2        2287            0.0000000000
      6862      2288  TIP3      OH2             8.4172137182        7.0268148903      -10.7085131047  W2        2288            0.0000000000
      6863      2288  TIP3      H1              7.7057637182        7.5617848903      -11.0604631047  W2        2288            0.0000000000
      6864      2288  TIP3      H2              9.1081737182        7.0820248903      -11.3686231047  W2        2288            0.0000000000
      6865      2289  TIP3      OH2             8.4711337182        5.4842448903      -13.6700131047  W2        2289            0.0000000000
      6866      2289  TIP3      H1              9.1721237182        5.5069348903      -13.0186131047  W2        2289            0.0000000000
      6867      2289  TIP3      H2              8.7734237182        4.8562148903      -14.3260831047  W2        2289            0.0000000000
      6868      2290  TIP3      OH2            15.7866037182        6.4046648903       -2.4150731047  W2        2290            0.0000000000
      6869      2290  TIP3      H1             15.1340137182        7.0992248903       -2.3259831047  W2        2290            0.0000000000
      6870      2290  TIP3      H2             16.2516337182        6.6147548903       -3.2249131047  W2        2290            0.0000000000
      6871      2291  TIP3      OH2            11.8229837182        7.2361448903       -9.7569231047  W2        2291            0.0000000000
      6872      2291  TIP3      H1             11.0910837182        7.4645148903       -9.1838631047  W2        2291            0.0000000000
      6873      2291  TIP3      H2             12.2702037182        6.5224148903       -9.3021731047  W2        2291            0.0000000000
      6874      2292  TIP3      OH2            11.7203337182        5.4104048903       -0.6892231047  W2        2292            0.0000000000
      6875      2292  TIP3      H1             11.8002437182        6.1738448903       -0.1173731047  W2        2292            0.0000000000
      6876      2292  TIP3      H2             11.1191037182        5.6896448903       -1.3797131047  W2        2292            0.0000000000
      6877      2293  TIP3      OH2             3.4683537182        7.8667648903       -7.8744231047  W2        2293            0.0000000000
      6878      2293  TIP3      H1              3.1378737182        7.4961048903       -8.6927231047  W2        2293            0.0000000000
      6879      2293  TIP3      H2              4.0567637182        7.1961648903       -7.5275931047  W2        2293            0.0000000000
      6880      2294  TIP3      OH2             4.8351037182       11.2948248903       -5.1932031047  W2        2294            0.0000000000
      6881      2294  TIP3      H1              4.7402337182       10.7161348903       -5.9497431047  W2        2294            0.0000000000
      6882      2294  TIP3      H2              5.5644637182       10.9233948903       -4.6969231047  W2        2294            0.0000000000
      6883      2295  TIP3      OH2             3.8349037182        6.6353248903       -4.2409231047  W2        2295            0.0000000000
      6884      2295  TIP3      H1              4.4001537182        6.7567448903       -5.0038031047  W2        2295            0.0000000000
      6885      2295  TIP3      H2              4.1537937182        7.2728248903       -3.6020731047  W2        2295            0.0000000000
      6886      2296  TIP3      OH2            10.1441237182       12.1385148903       -3.5068731047  W2        2296            0.0000000000
      6887      2296  TIP3      H1              9.9037837182       12.8008248903       -2.8589531047  W2        2296            0.0000000000
      6888      2296  TIP3      H2              9.9459437182       11.3040348903       -3.0819131047  W2        2296            0.0000000000
      6889      2297  TIP3      OH2             4.7149737182       11.0345948903        0.4762668953  W2        2297            0.0000000000
      6890      2297  TIP3      H1              4.4037237182       11.8169148903        0.9315868953  W2        2297            0.0000000000
      6891      2297  TIP3      H2              4.0649937182       10.8815048903       -0.2095331047  W2        2297            0.0000000000
      6892      2298  TIP3      OH2            10.6939337182        6.3984348903      -12.0718031047  W2        2298            0.0000000000
      6893      2298  TIP3      H1             11.2734837182        6.5484648903      -11.3249131047  W2        2298            0.0000000000
      6894      2298  TIP3      H2             11.1079337182        6.8691748903      -12.7951631047  W2        2298            0.0000000000
      6895      2299  TIP3      OH2             1.6349637182        7.2327048903       -0.2951631047  W2        2299            0.0000000000
      6896      2299  TIP3      H1              1.7052837182        7.8833848903        0.4033368953  W2        2299            0.0000000000
      6897      2299  TIP3      H2              0.7441837182        7.3354548903       -0.6300731047  W2        2299            0.0000000000
      6898      2300  TIP3      OH2             8.4204237182       13.1352848903       -8.6364931047  W2        2300            0.0000000000
      6899      2300  TIP3      H1              8.8941837182       13.4309148903       -7.8590731047  W2        2300            0.0000000000
      6900      2300  TIP3      H2              7.8573537182       13.8734448903       -8.8695331047  W2        2300            0.0000000000
      6901      2301  TIP3      OH2             2.9545637182       13.1060948903        1.2396468953  W2        2301            0.0000000000
      6902      2301  TIP3      H1              2.9620937182       12.9700648903        0.2921968953  W2        2301            0.0000000000
      6903      2301  TIP3      H2              2.0386037182       12.9889048903        1.4916468953  W2        2301            0.0000000000
      6904      2302  TIP3      OH2            14.3927737182       -1.8515251097      -12.2588331047  W2        2302            0.0000000000
      6905      2302  TIP3      H1             13.4928437182       -1.7126251097      -11.9637731047  W2        2302            0.0000000000
      6906      2302  TIP3      H2             14.6446137182       -1.0200651097      -12.6606631047  W2        2302            0.0000000000
      6907      2303  TIP3      OH2             2.4586237182        6.9361948903      -10.2851431047  W2        2303            0.0000000000
      6908      2303  TIP3      H1              2.1667537182        7.7043648903      -10.7760131047  W2        2303            0.0000000000
      6909      2303  TIP3      H2              1.7841437182        6.2768148903      -10.4480031047  W2        2303            0.0000000000
      6910      2304  TIP3      OH2            15.5819137182       12.5147148903      -13.8824431047  W2        2304            0.0000000000
      6911      2304  TIP3      H1             15.6552637182       13.4537348903      -13.7119131047  W2        2304            0.0000000000
      6912      2304  TIP3      H2             16.4874237182       12.2095748903      -13.9387131047  W2        2304            0.0000000000
      6913      2305  TIP3      OH2            -1.4483662818        9.2991148903       -1.4701631047  W2        2305            0.0000000000
      6914      2305  TIP3      H1             -1.9495262818        9.2710548903       -2.2851931047  W2        2305            0.0000000000
      6915      2305  TIP3      H2             -1.4429962818        8.3934348903       -1.1604331047  W2        2305            0.0000000000
      6916      2306  TIP3      OH2            -1.6980962818       12.0794948903       -4.5861431047  W2        2306            0.0000000000
      6917      2306  TIP3      H1             -0.7520362818       11.9351948903       -4.6051931047  W2        2306            0.0000000000
      6918      2306  TIP3      H2             -1.8104662818       12.8637748903       -4.0490231047  W2        2306            0.0000000000
      6919      2307  TIP3      OH2            16.4997537182       12.7454648903        1.0962268953  W2        2307            0.0000000000
      6920      2307  TIP3      H1             16.4504337182       11.7902748903        1.0589868953  W2        2307            0.0000000000
      6921      2307  TIP3      H2             15.6729837182       13.0129948903        1.4976068953  W2        2307            0.0000000000
      6922      2308  TIP3      OH2             7.4781537182       12.3193848903       -0.0276331047  W2        2308            0.0000000000
      6923      2308  TIP3      H1              7.5656137182       13.1458448903        0.4472768953  W2        2308            0.0000000000
      6924      2308  TIP3      H2              6.6146637182       11.9897648903        0.2212968953  W2        2308            0.0000000000
      6925      2309  TIP3      OH2             7.8927337182       16.0917548903      -10.2215731047  W2        2309            0.0000000000
      6926      2309  TIP3      H1              7.8173337182       15.9704748903      -11.1680531047  W2        2309            0.0000000000
      6927      2309  TIP3      H2              7.9256037182       17.0410248903      -10.1031131047  W2        2309            0.0000000000
      6928      2310  TIP3      OH2             1.5461137182       14.8804548903       -8.4406731047  W2        2310            0.0000000000
      6929      2310  TIP3      H1              1.6981537182       14.5324948903       -7.5620231047  W2        2310            0.0000000000
      6930      2310  TIP3      H2              0.6951537182       14.5241848903       -8.6959531047  W2        2310            0.0000000000
      6931      2311  TIP3      OH2            10.9943337182       15.2457748903      -13.2193331047  W2        2311            0.0000000000
      6932      2311  TIP3      H1             11.3691737182       14.5013848903      -13.6900731047  W2        2311            0.0000000000
      6933      2311  TIP3      H2             10.9987037182       14.9758348903      -12.3010031047  W2        2311            0.0000000000
      6934      2312  TIP3      OH2            10.6631437182       15.1714848903      -10.4701131047  W2        2312            0.0000000000
      6935      2312  TIP3      H1              9.7281237182       15.2716748903      -10.2914131047  W2        2312            0.0000000000
      6936      2312  TIP3      H2             10.9433337182       14.4620848903       -9.8917931047  W2        2312            0.0000000000
      6937      2313  TIP3      OH2            13.6517337182        4.2387148903        1.5764468953  W2        2313            0.0000000000
      6938      2313  TIP3      H1             13.2444137182        4.7192748903        0.8557768953  W2        2313            0.0000000000
      6939      2313  TIP3      H2             13.6923037182        3.3333148903        1.2685268953  W2        2313            0.0000000000
      6940      2314  TIP3      OH2             0.8006837182       10.6226548903       -0.4268831047  W2        2314            0.0000000000
      6941      2314  TIP3      H1              1.0168137182       10.2612148903        0.4326968953  W2        2314            0.0000000000
      6942      2314  TIP3      H2             -0.0548462818       10.2480348903       -0.6365331047  W2        2314            0.0000000000
      6943      2315  TIP3      OH2             3.4194837182       -0.9072951097       -4.4314631047  W2        2315            0.0000000000
      6944      2315  TIP3      H1              2.5578537182       -0.9944751097       -4.8391731047  W2        2315            0.0000000000
      6945      2315  TIP3      H2              3.3970537182       -0.0512851097       -4.0037031047  W2        2315            0.0000000000
      6946      2316  TIP3      OH2             8.0822637182       -1.1852551097       -1.0567631047  W2        2316            0.0000000000
      6947      2316  TIP3      H1              8.5025737182       -1.6005451097       -0.3037031047  W2        2316            0.0000000000
      6948      2316  TIP3      H2              7.1492237182       -1.3639251097       -0.9395631047  W2        2316            0.0000000000
      6949      2317  TIP3      OH2            11.4087537182        2.5702648903       -0.2033131047  W2        2317            0.0000000000
      6950      2317  TIP3      H1             10.8947037182        2.4444848903        0.5942868953  W2        2317            0.0000000000
      6951      2317  TIP3      H2             11.2532237182        3.4825748903       -0.4476931047  W2        2317            0.0000000000
      6952      2318  TIP3      OH2            12.1712437182        7.4312648903      -14.4420131047  W2        2318            0.0000000000
      6953      2318  TIP3      H1             12.2133237182        7.2086548903      -15.3720131047  W2        2318            0.0000000000
      6954      2318  TIP3      H2             13.0204537182        7.8299748903      -14.2520231047  W2        2318            0.0000000000
      6955      2319  TIP3      OH2             7.7439937182        1.3070848903      -13.7716831047  W2        2319            0.0000000000
      6956      2319  TIP3      H1              7.4904737182        1.3262448903      -12.8488731047  W2        2319            0.0000000000
      6957      2319  TIP3      H2              7.4872037182        0.4356248903      -14.0730631047  W2        2319            0.0000000000
      6958      2320  TIP3      OH2             3.5104937182        4.0581548903       -3.3364431047  W2        2320            0.0000000000
      6959      2320  TIP3      H1              2.8687037182        4.0178848903       -2.6274331047  W2        2320            0.0000000000
      6960      2320  TIP3      H2              3.5476937182        4.9846248903       -3.5741431047  W2        2320            0.0000000000
      6961      2321  TIP3      OH2             3.5074037182        4.2791648903       -8.4244431047  W2        2321            0.0000000000
      6962      2321  TIP3      H1              2.6146937182        3.9387748903       -8.4830631047  W2        2321            0.0000000000
      6963      2321  TIP3      H2              3.9580637182        3.9022548903       -9.1801231047  W2        2321            0.0000000000
      6964      2322  TIP3      OH2             9.0429537182        4.6951948903       -9.6073631047  W2        2322            0.0000000000
      6965      2322  TIP3      H1              8.6339837182        5.5100548903       -9.8988831047  W2        2322            0.0000000000
      6966      2322  TIP3      H2              9.7635737182        4.5552048903      -10.2216531047  W2        2322            0.0000000000
      6967      2323  TIP3      OH2             8.1451137182        4.8708348903        1.8807068953  W2        2323            0.0000000000
      6968      2323  TIP3      H1              7.5824937182        4.1659948903        2.2014868953  W2        2323            0.0000000000
      6969      2323  TIP3      H2              8.9714537182        4.7500248903        2.3484668953  W2        2323            0.0000000000
      6970      2324  TIP3      OH2            10.0477237182        4.1412348903       -6.7933931047  W2        2324            0.0000000000
      6971      2324  TIP3      H1              9.8521737182        4.7469148903       -7.5083331047  W2        2324            0.0000000000
      6972      2324  TIP3      H2             10.2289837182        3.3077548903       -7.2277631047  W2        2324            0.0000000000
      6973      2325  TIP3      OH2             1.2605437182        4.3785048903       -1.4692431047  W2        2325            0.0000000000
      6974      2325  TIP3      H1              1.2224837182        4.7786648903       -0.6005331047  W2        2325            0.0000000000
      6975      2325  TIP3      H2              0.7696537182        3.5617448903       -1.3789531047  W2        2325            0.0000000000
      6976      2326  TIP3      OH2             4.6262837182        1.7527348903      -14.6706431047  W2        2326            0.0000000000
      6977      2326  TIP3      H1              4.1953537182        1.3077448903      -13.9409031047  W2        2326            0.0000000000
      6978      2326  TIP3      H2              3.9081537182        2.1243648903      -15.1828931047  W2        2326            0.0000000000
      6979      2327  TIP3      OH2            -2.1313762818        1.4946848903       -7.6187731047  W2        2327            0.0000000000
      6980      2327  TIP3      H1             -1.5006062818        1.4658948903       -6.8993831047  W2        2327            0.0000000000
      6981      2327  TIP3      H2             -1.6819462818        1.0695548903       -8.3491831047  W2        2327            0.0000000000
      6982      2328  TIP3      OH2            -0.8571662818        2.2408848903      -12.1947331047  W2        2328            0.0000000000
      6983      2328  TIP3      H1             -0.3829962818        2.8318748903      -12.7796431047  W2        2328            0.0000000000
      6984      2328  TIP3      H2             -1.5745262818        2.7711748903      -11.8477231047  W2        2328            0.0000000000
      6985      2329  TIP3      OH2             9.3116437182        5.7793648903       -2.1221531047  W2        2329            0.0000000000
      6986      2329  TIP3      H1              9.6351237182        5.1483348903       -2.7651031047  W2        2329            0.0000000000
      6987      2329  TIP3      H2              8.8715737182        5.2445848903       -1.4614131047  W2        2329            0.0000000000
      6988      2330  TIP3      OH2             6.0889337182        1.7069148903       -7.3380331047  W2        2330            0.0000000000
      6989      2330  TIP3      H1              5.1780437182        1.7635948903       -7.0494331047  W2        2330            0.0000000000
      6990      2330  TIP3      H2              6.5942237182        1.6464648903       -6.5273131047  W2        2330            0.0000000000
      6991      2331  TIP3      OH2             0.9172737182        3.3355448903       -8.5112731047  W2        2331            0.0000000000
      6992      2331  TIP3      H1              0.0280737182        3.4350948903       -8.8513131047  W2        2331            0.0000000000
      6993      2331  TIP3      H2              1.2137637182        2.4938448903       -8.8574831047  W2        2331            0.0000000000
      6994      2332  TIP3      OH2             4.5704537182        3.3358048903      -10.8548131047  W2        2332            0.0000000000
      6995      2332  TIP3      H1              5.5020037182        3.4648048903      -10.6765031047  W2        2332            0.0000000000
      6996      2332  TIP3      H2              4.3554837182        4.0052348903      -11.5043431047  W2        2332            0.0000000000
      6997      2333  TIP3      OH2            10.4941237182        0.9415448903       -4.0738531047  W2        2333            0.0000000000
      6998      2333  TIP3      H1              9.8172837182        1.0728548903       -3.4098831047  W2        2333            0.0000000000
      6999      2333  TIP3      H2             10.0086137182        0.7864948903       -4.8840831047  W2        2333            0.0000000000
      7000      2334  TIP3      OH2             3.2444737182        4.5300248903      -13.2882031047  W2        2334            0.0000000000
      7001      2334  TIP3      H1              2.7019837182        4.1504048903      -13.9794431047  W2        2334            0.0000000000
      7002      2334  TIP3      H2              4.0779637182        4.7244948903      -13.7167931047  W2        2334            0.0000000000
      7003      2335  TIP3      OH2            13.7816337182       16.6130848903        2.2029068953  W2        2335            0.0000000000
      7004      2335  TIP3      H1             13.9815037182       17.0372748903        1.3684368953  W2        2335            0.0000000000
      7005      2335  TIP3      H2             14.4370037182       16.9569048903        2.8099468953  W2        2335            0.0000000000
      7006      2336  TIP3      OH2             1.3796137182        9.0872148903        1.8109568953  W2        2336            0.0000000000
      7007      2336  TIP3      H1              2.1118537182        9.3418048903        2.3724068953  W2        2336            0.0000000000
      7008      2336  TIP3      H2              0.5994837182        9.2917548903        2.3264968953  W2        2336            0.0000000000
      7009      2337  TIP3      OH2             7.4089037182        4.4942148903       -5.4510731047  W2        2337            0.0000000000
      7010      2337  TIP3      H1              7.9732437182        3.9478748903       -5.9981131047  W2        2337            0.0000000000
      7011      2337  TIP3      H2              7.2612437182        3.9724048903       -4.6623131047  W2        2337            0.0000000000
      7012      2338  TIP3      OH2             2.4108737182        0.6308248903       -9.0325931047  W2        2338            0.0000000000
      7013      2338  TIP3      H1              2.0938237182       -0.2716451097       -9.0680531047  W2        2338            0.0000000000
      7014      2338  TIP3      H2              3.1922837182        0.6325648903       -9.5854331047  W2        2338            0.0000000000
      7015      2339  TIP3      OH2             6.0354937182        2.8828248903       -3.0370331047  W2        2339            0.0000000000
      7016      2339  TIP3      H1              5.2000237182        3.3367748903       -2.9267931047  W2        2339            0.0000000000
      7017      2339  TIP3      H2              6.5595537182        3.1586748903       -2.2850431047  W2        2339            0.0000000000
      7018      2340  TIP3      OH2             6.5797537182        9.0955948903      -11.3523931047  W2        2340            0.0000000000
      7019      2340  TIP3      H1              5.8348537182        8.5881248903      -11.6746031047  W2        2340            0.0000000000
      7020      2340  TIP3      H2              6.4454737182        9.1443948903      -10.4059131047  W2        2340            0.0000000000
      7021      2341  TIP3      OH2            13.7296437182        8.2284148903       -2.5656331047  W2        2341            0.0000000000
      7022      2341  TIP3      H1             14.3715237182        8.6850448903       -3.1094131047  W2        2341            0.0000000000
      7023      2341  TIP3      H2             12.8993337182        8.3416548903       -3.0282231047  W2        2341            0.0000000000
      7024      2342  TIP3      OH2            10.4774337182        1.9095848903      -13.1531331047  W2        2342            0.0000000000
      7025      2342  TIP3      H1              9.5388537182        2.0211448903      -13.3042531047  W2        2342            0.0000000000
      7026      2342  TIP3      H2             10.7746437182        2.7662748903      -12.8465631047  W2        2342            0.0000000000
      7027      2343  TIP3      OH2             8.0989637182        9.2799248903       -0.1154831047  W2        2343            0.0000000000
      7028      2343  TIP3      H1              7.7535737182        8.8981648903        0.6914768953  W2        2343            0.0000000000
      7029      2343  TIP3      H2              7.8989737182       10.2132848903       -0.0441931047  W2        2343            0.0000000000
      7030      2344  TIP3      OH2            11.1957837182        3.7768548903      -11.4923931047  W2        2344            0.0000000000
      7031      2344  TIP3      H1             12.0876837182        3.6393548903      -11.1732731047  W2        2344            0.0000000000
      7032      2344  TIP3      H2             11.2521437182        4.5674648903      -12.0290431047  W2        2344            0.0000000000
      7033      2345  TIP3      OH2             1.7045837182        8.3905948903       -5.5826031047  W2        2345            0.0000000000
      7034      2345  TIP3      H1              2.4493037182        8.3881648903       -6.1839531047  W2        2345            0.0000000000
      7035      2345  TIP3      H2              1.7822437182        7.5669748903       -5.1010931047  W2        2345            0.0000000000
      7036      2346  TIP3      OH2             8.7051637182       10.5540248903      -12.3269331047  W2        2346            0.0000000000
      7037      2346  TIP3      H1              8.4100037182       11.3808148903      -11.9454531047  W2        2346            0.0000000000
      7038      2346  TIP3      H2              8.0021637182        9.9347148903      -12.1307931047  W2        2346            0.0000000000
      7039      2347  TIP3      OH2            -1.2874462818        6.8512848903       -0.2677531047  W2        2347            0.0000000000
      7040      2347  TIP3      H1             -1.0645862818        6.4332448903        0.5639968953  W2        2347            0.0000000000
      7041      2347  TIP3      H2             -1.8894362818        6.2387848903       -0.6904731047  W2        2347            0.0000000000
      7042      2348  TIP3      OH2             5.7290437182        6.3682748903        1.9452168953  W2        2348            0.0000000000
      7043      2348  TIP3      H1              5.4331237182        6.2025748903        1.0501268953  W2        2348            0.0000000000
      7044      2348  TIP3      H2              6.6605637182        6.1483048903        1.9346068953  W2        2348            0.0000000000
      7045      2349  TIP3      OH2            10.3493237182       11.7414748903       -0.1649831047  W2        2349            0.0000000000
      7046      2349  TIP3      H1              9.4487537182       11.9247348903       -0.4325931047  W2        2349            0.0000000000
      7047      2349  TIP3      H2             10.3834337182       12.0004048903        0.7558968953  W2        2349            0.0000000000
      7048      2350  TIP3      OH2            16.0806537182        3.9862648903      -11.7977231047  W2        2350            0.0000000000
      7049      2350  TIP3      H1             15.5262837182        3.5900648903      -12.4699731047  W2        2350            0.0000000000
      7050      2350  TIP3      H2             16.1810137182        4.8967848903      -12.0753931047  W2        2350            0.0000000000
      7051      2351  TIP3      OH2            16.0438537182        9.7864348903        1.0394268953  W2        2351            0.0000000000
      7052      2351  TIP3      H1             15.1927037182       10.0248148903        0.6720668953  W2        2351            0.0000000000
      7053      2351  TIP3      H2             16.6341937182        9.7697548903        0.2861368953  W2        2351            0.0000000000
      7054      2352  TIP3      OH2            14.3758237182       12.7723048903      -11.3325131047  W2        2352            0.0000000000
      7055      2352  TIP3      H1             14.0029337182       11.9466848903      -11.0234531047  W2        2352            0.0000000000
      7056      2352  TIP3      H2             14.6531737182       12.5892448903      -12.2301731047  W2        2352            0.0000000000
      7057      2353  TIP3      OH2            11.5362137182        7.5802548903       -4.3113231047  W2        2353            0.0000000000
      7058      2353  TIP3      H1             10.6079037182        7.3484448903       -4.3383931047  W2        2353            0.0000000000
      7059      2353  TIP3      H2             11.9873237182        6.8032348903       -4.6414431047  W2        2353            0.0000000000
      7060      2354  TIP3      OH2             4.0795237182       11.9084148903       -8.1784531047  W2        2354            0.0000000000
      7061      2354  TIP3      H1              4.6067437182       12.6818548903       -8.3785731047  W2        2354            0.0000000000
      7062      2354  TIP3      H2              3.1993737182       12.1333348903       -8.4800531047  W2        2354            0.0000000000
      7063      2355  TIP3      OH2            -0.1657062818        6.7708248903      -13.5912131047  W2        2355            0.0000000000
      7064      2355  TIP3      H1              0.4502837182        7.3975448903      -13.2117331047  W2        2355            0.0000000000
      7065      2355  TIP3      H2             -1.0274462818        7.0868048903      -13.3195631047  W2        2355            0.0000000000
      7066      2356  TIP3      OH2             5.5067537182        9.5714048903       -8.6020231047  W2        2356            0.0000000000
      7067      2356  TIP3      H1              5.2657537182       10.4968448903       -8.5604931047  W2        2356            0.0000000000
      7068      2356  TIP3      H2              4.7661137182        9.1125348903       -8.2056331047  W2        2356            0.0000000000
      7069      2357  TIP3      OH2             6.0214137182       13.7207648903       -2.2869131047  W2        2357            0.0000000000
      7070      2357  TIP3      H1              6.3838837182       14.5753248903       -2.5204731047  W2        2357            0.0000000000
      7071      2357  TIP3      H2              6.5529337182       13.4289248903       -1.5462831047  W2        2357            0.0000000000
      7072      2358  TIP3      OH2             4.1898337182       14.5931648903       -9.0568031047  W2        2358            0.0000000000
      7073      2358  TIP3      H1              3.2398837182       14.6989048903       -9.0054731047  W2        2358            0.0000000000
      7074      2358  TIP3      H2              4.5416437182       15.4139048903       -8.7120531047  W2        2358            0.0000000000
      7075      2359  TIP3      OH2             9.5654937182        9.8198348903       -2.5863531047  W2        2359            0.0000000000
      7076      2359  TIP3      H1              9.1396237182        9.5920048903       -1.7599531047  W2        2359            0.0000000000
      7077      2359  TIP3      H2             10.1460737182        9.0810148903       -2.7688231047  W2        2359            0.0000000000
      7078      2360  TIP3      OH2            11.7683837182       10.7488848903      -13.5124531047  W2        2360            0.0000000000
      7079      2360  TIP3      H1             12.1216937182       10.3688648903      -12.7081031047  W2        2360            0.0000000000
      7080      2360  TIP3      H2             10.8197337182       10.6553648903      -13.4255231047  W2        2360            0.0000000000
      7081      2361  TIP3      OH2            12.2239137182       14.3717848903       -0.1168731047  W2        2361            0.0000000000
      7082      2361  TIP3      H1             11.6222337182       13.8160748903       -0.6122431047  W2        2361            0.0000000000
      7083      2361  TIP3      H2             12.5052837182       15.0387648903       -0.7431331047  W2        2361            0.0000000000
      7084      2362  TIP3      OH2            16.2718237182       15.2281348903      -13.3114331047  W2        2362            0.0000000000
      7085      2362  TIP3      H1             17.0156137182       15.8141848903      -13.4512731047  W2        2362            0.0000000000
      7086      2362  TIP3      H2             15.5776337182       15.7967148903      -12.9781931047  W2        2362            0.0000000000
      7087      2363  TIP3      OH2             0.3465037182        1.6045548903       -0.7096131047  W2        2363            0.0000000000
      7088      2363  TIP3      H1             -0.5462662818        1.9430948903       -0.7772131047  W2        2363            0.0000000000
      7089      2363  TIP3      H2              0.2477837182        0.7491648903       -0.2915331047  W2        2363            0.0000000000
      7090      2364  TIP3      OH2            12.6343137182        9.4210848903      -11.2856631047  W2        2364            0.0000000000
      7091      2364  TIP3      H1             12.3570737182        8.6930148903      -10.7295531047  W2        2364            0.0000000000
      7092      2364  TIP3      H2             13.5616137182        9.5402848903      -11.0804031047  W2        2364            0.0000000000
      7093      2365  TIP3      OH2            -0.0022962818       13.4089948903       -2.2746731047  W2        2365            0.0000000000
      7094      2365  TIP3      H1              0.2147337182       12.4772348903       -2.3057031047  W2        2365            0.0000000000
      7095      2365  TIP3      H2              0.2440537182       13.6834948903       -1.3913931047  W2        2365            0.0000000000
      7096      2366  TIP3      OH2             5.8591637182       11.8604948903      -15.0654531047  W2        2366            0.0000000000
      7097      2366  TIP3      H1              6.0981437182       11.1123048903      -15.6125631047  W2        2366            0.0000000000
      7098      2366  TIP3      H2              5.5902937182       11.4726648903      -14.2326731047  W2        2366            0.0000000000
      7099      2367  TIP3      OH2             4.7962237182       11.4308748903      -12.6091931047  W2        2367            0.0000000000
      7100      2367  TIP3      H1              4.9430237182       10.9108548903      -11.8191031047  W2        2367            0.0000000000
      7101      2367  TIP3      H2              4.7933937182       12.3376348903      -12.3026031047  W2        2367            0.0000000000
      7102      2368  TIP3      OH2             1.2493337182        8.6832048903      -12.0986531047  W2        2368            0.0000000000
      7103      2368  TIP3      H1              0.5632637182        9.0354548903      -11.5316831047  W2        2368            0.0000000000
      7104      2368  TIP3      H2              1.7721237182        9.4461648903      -12.3452231047  W2        2368            0.0000000000
      7105      2369  TIP3      OH2             9.0808437182        1.3455848903       -1.8197531047  W2        2369            0.0000000000
      7106      2369  TIP3      H1              9.7796337182        1.4194548903       -1.1697831047  W2        2369            0.0000000000
      7107      2369  TIP3      H2              8.6999837182        0.4810848903       -1.6654631047  W2        2369            0.0000000000
      7108      2370  TIP3      OH2             9.8653337182        0.9977548903      -10.7225231047  W2        2370            0.0000000000
      7109      2370  TIP3      H1             10.0851637182        1.4692948903      -11.5259831047  W2        2370            0.0000000000
      7110      2370  TIP3      H2             10.4237337182        1.3920148903      -10.0524631047  W2        2370            0.0000000000
      7111      2371  TIP3      OH2             7.5339437182       13.1282348903      -11.8597731047  W2        2371            0.0000000000
      7112      2371  TIP3      H1              6.7175537182       13.6252048903      -11.8073431047  W2        2371            0.0000000000
      7113      2371  TIP3      H2              8.0635737182       13.6035848903      -12.4998931047  W2        2371            0.0000000000
      7114      2372  TIP3      OH2             7.0653237182        2.7256348903       -9.8876831047  W2        2372            0.0000000000
      7115      2372  TIP3      H1              7.8775837182        3.2299548903       -9.8415131047  W2        2372            0.0000000000
      7116      2372  TIP3      H2              6.8206237182        2.5806048903       -8.9737231047  W2        2372            0.0000000000
      7117      2373  TIP3      OH2             7.6009637182        3.7119048903       -0.7030231047  W2        2373            0.0000000000
      7118      2373  TIP3      H1              7.7199937182        4.2854448903        0.0540168953  W2        2373            0.0000000000
      7119      2373  TIP3      H2              8.2564237182        3.0238448903       -0.5882431047  W2        2373            0.0000000000
      7120      2374  TIP3      OH2             7.9489937182       -0.1930651097       -8.9495731047  W2        2374            0.0000000000
      7121      2374  TIP3      H1              7.6023437182        0.4239948903       -8.3051431047  W2        2374            0.0000000000
      7122      2374  TIP3      H2              8.6076837182        0.3075048903       -9.4310231047  W2        2374            0.0000000000
      7123      2375  TIP3      OH2             4.8722537182       14.1719548903      -11.8780831047  W2        2375            0.0000000000
      7124      2375  TIP3      H1              5.0331237182       14.9717048903      -12.3788231047  W2        2375            0.0000000000
      7125      2375  TIP3      H2              4.6750337182       14.4785548903      -10.9930231047  W2        2375            0.0000000000
      7126      2376  TIP3      OH2             3.6066937182        0.8698748903      -12.2623231047  W2        2376            0.0000000000
      7127      2376  TIP3      H1              3.5231737182        1.7581848903      -11.9156831047  W2        2376            0.0000000000
      7128      2376  TIP3      H2              4.4967237182        0.6045448903      -12.0306431047  W2        2376            0.0000000000
      7129      2377  TIP3      OH2            13.8055437182        1.6189348903        0.1319468953  W2        2377            0.0000000000
      7130      2377  TIP3      H1             12.8891237182        1.8811048903        0.0443168953  W2        2377            0.0000000000
      7131      2377  TIP3      H2             14.1410437182        1.6158348903       -0.7645231047  W2        2377            0.0000000000
      7132      2378  TIP3      OH2            12.4076437182        5.3690348903       -5.7723231047  W2        2378            0.0000000000
      7133      2378  TIP3      H1             11.6100837182        4.9540548903       -6.1008231047  W2        2378            0.0000000000
      7134      2378  TIP3      H2             12.8527537182        4.6784048903       -5.2812731047  W2        2378            0.0000000000
      7135      2379  TIP3      OH2             1.8652237182       11.2970948903      -13.2018731047  W2        2379            0.0000000000
      7136      2379  TIP3      H1              2.4573737182       11.9965748903      -12.9256331047  W2        2379            0.0000000000
      7137      2379  TIP3      H2              2.3245237182       10.8640448903      -13.9214131047  W2        2379            0.0000000000
      7138      2380  TIP3      OH2             0.1811437182        3.9613948903      -14.0859331047  W2        2380            0.0000000000
      7139      2380  TIP3      H1              0.1364037182        4.9007048903      -13.9072331047  W2        2380            0.0000000000
      7140      2380  TIP3      H2             -0.7065362818        3.7258848903      -14.3557231047  W2        2380            0.0000000000
      7141      2381  TIP3      OH2            13.4941037182       14.6252848903       -4.1499731047  W2        2381            0.0000000000
      7142      2381  TIP3      H1             13.3385337182       15.3037248903       -4.8070431047  W2        2381            0.0000000000
      7143      2381  TIP3      H2             14.4267437182       14.6972148903       -3.9469131047  W2        2381            0.0000000000
      7144      2382  TIP3      OH2             0.9893437182       -1.2569451097       -5.4128331047  W2        2382            0.0000000000
      7145      2382  TIP3      H1              0.7603237182       -1.1976951097       -6.3403331047  W2        2382            0.0000000000
      7146      2382  TIP3      H2              0.5466837182       -2.0483951097       -5.1064231047  W2        2382            0.0000000000
      7147      2383  TIP3      OH2            -0.0803262818       12.6837648903       -9.2522531047  W2        2383            0.0000000000
      7148      2383  TIP3      H1             -0.9124662818       13.1560348903       -9.2251131047  W2        2383            0.0000000000
      7149      2383  TIP3      H2              0.4655037182       13.1935248903       -9.8509431047  W2        2383            0.0000000000
      7150      2384  TIP3      OH2            -0.7919562818       15.2961348903        2.0775468953  W2        2384            0.0000000000
      7151      2384  TIP3      H1             -0.2517362818       15.0795348903        2.8374668953  W2        2384            0.0000000000
      7152      2384  TIP3      H2             -1.2731562818       14.4907348903        1.8877968953  W2        2384            0.0000000000
      7153      2385  TIP3      OH2             3.8053837182       14.2155748903        3.6979668953  W2        2385            0.0000000000
      7154      2385  TIP3      H1              4.5731037182       13.7566548903        4.0388868953  W2        2385            0.0000000000
      7155      2385  TIP3      H2              3.7840037182       13.9895548903        2.7680868953  W2        2385            0.0000000000
      7156      2386  TIP3      OH2             7.8973437182       13.7236348903      -14.9268531047  W2        2386            0.0000000000
      7157      2386  TIP3      H1              7.2534437182       13.0924948903      -14.6054831047  W2        2386            0.0000000000
      7158      2386  TIP3      H2              8.6591737182       13.1924348903      -15.1585031047  W2        2386            0.0000000000
      7159      2387  TIP3      OH2            10.3822537182       12.5956848903        2.4271168953  W2        2387            0.0000000000
      7160      2387  TIP3      H1             10.0312037182       11.7389848903        2.6701568953  W2        2387            0.0000000000
      7161      2387  TIP3      H2             11.1085737182       12.7383548903        3.0340168953  W2        2387            0.0000000000
      7162      2388  TIP3      OH2            12.5016337182       13.5406248903      -14.6930531047  W2        2388            0.0000000000
      7163      2388  TIP3      H1             12.7846737182       12.7461448903      -14.2403631047  W2        2388            0.0000000000
      7164      2388  TIP3      H2             13.2414237182       13.7737248903      -15.2539431047  W2        2388            0.0000000000
      7165      2389  TIP3      OH2            -0.8850062818        9.1065448903        3.0319768953  W2        2389            0.0000000000
      7166      2389  TIP3      H1             -0.7409562818        8.2046148903        2.7456468953  W2        2389            0.0000000000
      7167      2389  TIP3      H2             -1.6572662818        9.3927548903        2.5442068953  W2        2389            0.0000000000
      7168      2390  TIP3      OH2             3.4563637182        9.4501148903      -14.8355631047  W2        2390            0.0000000000
      7169      2390  TIP3      H1              3.5207737182        8.6560748903      -14.3049231047  W2        2390            0.0000000000
      7170      2390  TIP3      H2              4.1092837182        9.3313948903      -15.5253631047  W2        2390            0.0000000000
      7171      2391  TIP3      OH2             5.7706037182        9.0763548903        2.4646168953  W2        2391            0.0000000000
      7172      2391  TIP3      H1              5.4419837182        9.3471648903        1.6073568953  W2        2391            0.0000000000
      7173      2391  TIP3      H2              5.9224237182        8.1353348903        2.3771168953  W2        2391            0.0000000000
      7174      2392  TIP3      OH2             8.8087037182       10.4972848903      -15.0997631047  W2        2392            0.0000000000
      7175      2392  TIP3      H1              8.5401137182       10.6774948903      -14.1988731047  W2        2392            0.0000000000
      7176      2392  TIP3      H2              8.6022637182        9.5719048903      -15.2311831047  W2        2392            0.0000000000
      7177      2393  TIP3      OH2            11.5051237182        8.9920848903       -0.1521531047  W2        2393            0.0000000000
      7178      2393  TIP3      H1             12.2506037182        9.5804548903       -0.2717531047  W2        2393            0.0000000000
      7179      2393  TIP3      H2             10.7478037182        9.5740548903       -0.0888431047  W2        2393            0.0000000000
      7180      2394  TIP3      OH2            -0.0523562818        6.3068748903        2.4519068953  W2        2394            0.0000000000
      7181      2394  TIP3      H1              0.3557637182        5.4495348903        2.3309668953  W2        2394            0.0000000000
      7182      2394  TIP3      H2             -0.3125962818        6.3210048903        3.3729368953  W2        2394            0.0000000000
      7183      2395  TIP3      OH2             4.6057437182        7.4227348903      -12.5297631047  W2        2395            0.0000000000
      7184      2395  TIP3      H1              4.1459437182        6.9385648903      -11.8439131047  W2        2395            0.0000000000
      7185      2395  TIP3      H2              4.8606137182        6.7542748903      -13.1657131047  W2        2395            0.0000000000
      7186      2396  TIP3      OH2             3.8946737182        5.3154448903       -0.1738031047  W2        2396            0.0000000000
      7187      2396  TIP3      H1              3.2762837182        5.9901048903        0.1066668953  W2        2396            0.0000000000
      7188      2396  TIP3      H2              4.2387937182        5.6368348903       -1.0071831047  W2        2396            0.0000000000
      7189      2397  TIP3      OH2             5.6767837182        5.6659148903      -14.2674431047  W2        2397            0.0000000000
      7190      2397  TIP3      H1              5.4962837182        5.5110348903      -15.1946131047  W2        2397            0.0000000000
      7191      2397  TIP3      H2              6.6268337182        5.7737848903      -14.2226531047  W2        2397            0.0000000000
      7192      2398  TIP3      OH2             8.9144937182        7.7869748903        3.1036768953  W2        2398            0.0000000000
      7193      2398  TIP3      H1              9.8676137182        7.8708848903        3.0762768953  W2        2398            0.0000000000
      7194      2398  TIP3      H2              8.7539537182        7.0751548903        3.7231668953  W2        2398            0.0000000000
      7195      2399  TIP3      OH2            15.0666137182        8.0203348903      -14.8216331047  W2        2399            0.0000000000
      7196      2399  TIP3      H1             14.7930937182        7.5958848903      -15.6348031047  W2        2399            0.0000000000
      7197      2399  TIP3      H2             15.1060237182        8.9517848903      -15.0385931047  W2        2399            0.0000000000
      7198      2400  TIP3      OH2             4.2340437182        2.6705248903        0.9085068953  W2        2400            0.0000000000
      7199      2400  TIP3      H1              4.3841337182        1.9416548903        0.3064768953  W2        2400            0.0000000000
      7200      2400  TIP3      H2              4.2362837182        3.4476948903        0.3497268953  W2        2400            0.0000000000
      7201      2401  TIP3      OH2             4.6466137182        1.0401048903       -1.5987531047  W2        2401            0.0000000000
      7202      2401  TIP3      H1              5.1823637182        1.4917748903       -2.2508231047  W2        2401            0.0000000000
      7203      2401  TIP3      H2              3.7945737182        0.9320848903       -2.0213431047  W2        2401            0.0000000000
      7204      2402  TIP3      OH2             6.2284537182        6.4797248903       -1.3592331047  W2        2402            0.0000000000
      7205      2402  TIP3      H1              6.9789337182        6.3234748903       -1.9324531047  W2        2402            0.0000000000
      7206      2402  TIP3      H2              5.8892837182        7.3313848903       -1.6346831047  W2        2402            0.0000000000
      7207      2403  TIP3      OH2            10.6440737182        4.2949048903        3.6692968953  W2        2403            0.0000000000
      7208      2403  TIP3      H1             10.8362037182        3.3638448903        3.5577468953  W2        2403            0.0000000000
      7209      2403  TIP3      H2             11.5017037182        4.7198548903        3.6588368953  W2        2403            0.0000000000
      7210      2404  TIP3      OH2            11.9607937182        7.0834248903        1.7465668953  W2        2404            0.0000000000
      7211      2404  TIP3      H1             11.6792937182        7.7928848903        1.1689468953  W2        2404            0.0000000000
      7212      2404  TIP3      H2             12.9032237182        7.0107248903        1.5956868953  W2        2404            0.0000000000
      7213      2405  TIP3      OH2             2.7126737182        3.8688748903        2.8200668953  W2        2405            0.0000000000
      7214      2405  TIP3      H1              1.9455737182        3.3363548903        2.6098268953  W2        2405            0.0000000000
      7215      2405  TIP3      H2              3.3915737182        3.5589148903        2.2206968953  W2        2405            0.0000000000
      7216      2406  TIP3      OH2             5.4521637182       -1.5033251097       -1.1673931047  W2        2406            0.0000000000
      7217      2406  TIP3      H1              5.3541237182       -0.5570051097       -1.2727731047  W2        2406            0.0000000000
      7218      2406  TIP3      H2              4.7097837182       -1.8759451097       -1.6430431047  W2        2406            0.0000000000
      7219      2407  TIP3      OH2             6.7162137182        2.8182148903        2.3964468953  W2        2407            0.0000000000
      7220      2407  TIP3      H1              6.4807537182        2.5988848903        3.2979368953  W2        2407            0.0000000000
      7221      2407  TIP3      H2              5.9329037182        2.6113348903        1.8866968953  W2        2407            0.0000000000
      7222      2408  TIP3      OH2             9.4318737182        1.9455648903        1.4717968953  W2        2408            0.0000000000
      7223      2408  TIP3      H1              8.4844137182        1.9775348903        1.6041268953  W2        2408            0.0000000000
      7224      2408  TIP3      H2              9.7445437182        1.3202748903        2.1256168953  W2        2408            0.0000000000
      7225      2409  TIP3      OH2            11.0660237182        0.5796748903        3.4769868953  W2        2409            0.0000000000
      7226      2409  TIP3      H1             10.9692037182       -0.3725951097        3.4711768953  W2        2409            0.0000000000
      7227      2409  TIP3      H2             10.7443337182        0.8483548903        4.3375368953  W2        2409            0.0000000000
      7228      2410  TIP3      OH2             0.8929537182        1.7892548903        2.5245368953  W2        2410            0.0000000000
      7229      2410  TIP3      H1              1.1046937182        1.0828648903        1.9142868953  W2        2410            0.0000000000
      7230      2410  TIP3      H2              0.7817037182        1.3518548903        3.3686568953  W2        2410            0.0000000000
      7231      2411  TIP3      OH2             5.6739737182       -2.2095851097        1.5038868953  W2        2411            0.0000000000
      7232      2411  TIP3      H1              6.3858137182       -2.8493651097        1.4897968953  W2        2411            0.0000000000
      7233      2411  TIP3      H2              5.5730137182       -1.9427551097        0.5901968953  W2        2411            0.0000000000
      7234      2412  TIP3      OH2             6.0277237182       -0.5267451097        3.5575168953  W2        2412            0.0000000000
      7235      2412  TIP3      H1              5.8959437182       -1.0023651097        2.7373668953  W2        2412            0.0000000000
      7236      2412  TIP3      H2              5.4284637182        0.2176148903        3.5022268953  W2        2412            0.0000000000
      7237      2413  TIP3      OH2             5.5739537182       16.3562848903      -13.2660831047  W2        2413            0.0000000000
      7238      2413  TIP3      H1              6.5070237182       16.5141548903      -13.1222431047  W2        2413            0.0000000000
      7239      2413  TIP3      H2              5.3098337182       17.0315848903      -13.8909331047  W2        2413            0.0000000000
      7240      2414  TIP3      OH2            -0.8575562818       10.9926648903      -13.7832731047  W2        2414            0.0000000000
      7241      2414  TIP3      H1              0.0563637182       11.0715548903      -13.5098831047  W2        2414            0.0000000000
      7242      2414  TIP3      H2             -0.8502462818       10.3056248903      -14.4497131047  W2        2414            0.0000000000
      7243      2415  TIP3      OH2            -2.2084962818       16.3855148903       -8.7058831047  W2        2415            0.0000000000
      7244      2415  TIP3      H1             -2.8557862818       15.9236848903       -9.2387631047  W2        2415            0.0000000000
      7245      2415  TIP3      H2             -1.8540362818       15.7138448903       -8.1232631047  W2        2415            0.0000000000
      7246      2416  TIP3      OH2            -1.3385762818       14.4662148903       -6.9012631047  W2        2416            0.0000000000
      7247      2416  TIP3      H1             -1.6728962818       13.5859448903       -6.7292431047  W2        2416            0.0000000000
      7248      2416  TIP3      H2             -1.1163362818       14.8117148903       -6.0367031047  W2        2416            0.0000000000
      7249      2417  TIP3      OH2            16.2099037182       15.2758548903       -3.9207831047  W2        2417            0.0000000000
      7250      2417  TIP3      H1             16.1885737182       15.4606948903       -2.9818431047  W2        2417            0.0000000000
      7251      2417  TIP3      H2             16.9005237182       15.8442548903       -4.2616431047  W2        2417            0.0000000000
      7252      2418  TIP3      OH2            15.7731937182       14.8429648903       -0.9988731047  W2        2418            0.0000000000
      7253      2418  TIP3      H1             15.2860637182       14.1073748903       -1.3701331047  W2        2418            0.0000000000
      7254      2418  TIP3      H2             16.3224637182       14.4493548903       -0.3209331047  W2        2418            0.0000000000
      7255      2419  TIP3      OH2            14.2239237182       10.6327748903        3.6391568953  W2        2419            0.0000000000
      7256      2419  TIP3      H1             13.3580337182       10.5277448903        4.0333868953  W2        2419            0.0000000000
      7257      2419  TIP3      H2             14.6005137182       11.3911048903        4.0856268953  W2        2419            0.0000000000
      7258      2420  TIP3      OH2            15.5248937182        8.8891448903      -10.8465931047  W2        2420            0.0000000000
      7259      2420  TIP3      H1             16.3750337182        9.3102348903      -10.7194331047  W2        2420            0.0000000000
      7260      2420  TIP3      H2             15.5304037182        8.1491548903      -10.2394531047  W2        2420            0.0000000000
      7261      2421  TIP3      OH2            15.9194537182        6.9428848903       -9.0230231047  W2        2421            0.0000000000
      7262      2421  TIP3      H1             15.1929137182        6.4631448903       -8.6252631047  W2        2421            0.0000000000
      7263      2421  TIP3      H2             16.5007837182        7.1483548903       -8.2908631047  W2        2421            0.0000000000
      7264      2422  TIP3      OH2            15.6785737182        9.7276348903       -4.0752631047  W2        2422            0.0000000000
      7265      2422  TIP3      H1             16.5119937182        9.3496348903       -4.3559031047  W2        2422            0.0000000000
      7266      2422  TIP3      H2             15.7906037182       10.6707548903       -4.1943531047  W2        2422            0.0000000000
      7267      2423  TIP3      OH2            14.1648037182       12.6053848903       -1.7684231047  W2        2423            0.0000000000
      7268      2423  TIP3      H1             13.5173337182       12.9305348903       -1.1429031047  W2        2423            0.0000000000
      7269      2423  TIP3      H2             13.6472037182       12.1651548903       -2.4425931047  W2        2423            0.0000000000
      7270      2424  TIP3      OH2            16.1877637182        6.8437348903      -12.6318931047  W2        2424            0.0000000000
      7271      2424  TIP3      H1             15.6658737182        7.2001448903      -13.3508031047  W2        2424            0.0000000000
      7272      2424  TIP3      H2             16.1546837182        7.5185148903      -11.9538031047  W2        2424            0.0000000000
      7273      2425  TIP3      OH2            14.5366637182        4.0832948903      -14.0811831047  W2        2425            0.0000000000
      7274      2425  TIP3      H1             14.6331037182        4.7499948903      -14.7612131047  W2        2425            0.0000000000
      7275      2425  TIP3      H2             14.3966237182        3.2679248903      -14.5626331047  W2        2425            0.0000000000
      7276      2426  TIP3      OH2            13.7061337182        5.4635348903       -8.4601531047  W2        2426            0.0000000000
      7277      2426  TIP3      H1             13.5560137182        4.5183948903       -8.4803731047  W2        2426            0.0000000000
      7278      2426  TIP3      H2             13.3525837182        5.7446748903       -7.6162431047  W2        2426            0.0000000000
      7279      2427  TIP3      OH2            -1.2586262818        7.5417548903       -4.4497731047  W2        2427            0.0000000000
      7280      2427  TIP3      H1             -1.0743362818        7.4599248903       -5.3854831047  W2        2427            0.0000000000
      7281      2427  TIP3      H2             -0.4093362818        7.4174548903       -4.0261331047  W2        2427            0.0000000000
      7282      2428  TIP3      OH2            14.5624237182        7.4338648903        1.1786768953  W2        2428            0.0000000000
      7283      2428  TIP3      H1             15.1451537182        6.6990948903        1.3703968953  W2        2428            0.0000000000
      7284      2428  TIP3      H2             15.1263537182        8.2058948903        1.2252568953  W2        2428            0.0000000000
      7285      2429  TIP3      OH2            16.0591337182        5.3364448903        1.8632168953  W2        2429            0.0000000000
      7286      2429  TIP3      H1             15.1958037182        4.9576548903        1.6976868953  W2        2429            0.0000000000
      7287      2429  TIP3      H2             16.6635037182        4.5979248903        1.7887968953  W2        2429            0.0000000000
      7288      2430  TIP3      OH2            13.7840437182        1.4912748903      -14.9636331047  W2        2430            0.0000000000
      7289      2430  TIP3      H1             14.3946237182        1.1199548903      -14.3268131047  W2        2430            0.0000000000
      7290      2430  TIP3      H2             12.9471937182        1.0699648903      -14.7676331047  W2        2430            0.0000000000
      7291      2431  TIP3      OH2            13.4166137182        3.0461148903       -9.9976431047  W2        2431            0.0000000000
      7292      2431  TIP3      H1             13.6963237182        2.1391548903       -9.8734731047  W2        2431            0.0000000000
      7293      2431  TIP3      H2             14.1757837182        3.4802648903      -10.3867231047  W2        2431            0.0000000000
      7294      2432  TIP3      OH2            14.0284437182        3.6278548903       -4.5617531047  W2        2432            0.0000000000
      7295      2432  TIP3      H1             14.9612437182        3.8398448903       -4.5961531047  W2        2432            0.0000000000
      7296      2432  TIP3      H2             13.7931937182        3.7290648903       -3.6394531047  W2        2432            0.0000000000
      7297      2433  TIP3      OH2            14.0576337182        4.3643848903       -1.7858131047  W2        2433            0.0000000000
      7298      2433  TIP3      H1             13.2147637182        4.6324248903       -1.4198331047  W2        2433            0.0000000000
      7299      2433  TIP3      H2             14.5000637182        5.1865748903       -1.9967031047  W2        2433            0.0000000000
      7300      2434  TIP3      OH2            -1.6611462818        2.8122548903        1.6911068953  W2        2434            0.0000000000
      7301      2434  TIP3      H1             -0.7416562818        2.6900848903        1.9274168953  W2        2434            0.0000000000
      7302      2434  TIP3      H2             -2.1106962818        2.0622248903        2.0804568953  W2        2434            0.0000000000
      7303      2435  TIP3      OH2            16.3407937182       -1.6555951097        3.5676868953  W2        2435            0.0000000000
      7304      2435  TIP3      H1             16.6904937182       -2.3092451097        2.9621568953  W2        2435            0.0000000000
      7305      2435  TIP3      H2             16.4877437182       -0.8181851097        3.1279468953  W2        2435            0.0000000000
      7306      2436  TIP3      OH2            14.0300937182        0.3090448903       -9.9494431047  W2        2436            0.0000000000
      7307      2436  TIP3      H1             14.2125937182       -0.1398051097       -9.1239431047  W2        2436            0.0000000000
      7308      2436  TIP3      H2             13.4303837182       -0.2755151097      -10.4129831047  W2        2436            0.0000000000
      7309      2437  TIP3      OH2            -0.4398962818        1.1244148903       -5.4176031047  W2        2437            0.0000000000
      7310      2437  TIP3      H1              0.0052637182        0.3326648903       -5.1156331047  W2        2437            0.0000000000
      7311      2437  TIP3      H2              0.0264037182        1.8409348903       -4.9870431047  W2        2437            0.0000000000
      7312      2438  TIP3      OH2            -2.1358662818        4.1237148903       -4.3485831047  W2        2438            0.0000000000
      7313      2438  TIP3      H1             -1.6438862818        3.9027648903       -5.1393831047  W2        2438            0.0000000000
      7314      2438  TIP3      H2             -1.7737762818        4.9640548903       -4.0676331047  W2        2438            0.0000000000
      7315      2439  TIP3      OH2            15.8605137182        0.4538648903        1.9168168953  W2        2439            0.0000000000
      7316      2439  TIP3      H1             14.9430837182        0.7245748903        1.8811668953  W2        2439            0.0000000000
      7317      2439  TIP3      H2             15.9834537182       -0.0812951097        1.1327868953  W2        2439            0.0000000000
      7318      2440  TIP3      OH2            15.8967137182        0.3768548903      -13.4214131047  W2        2440            0.0000000000
      7319      2440  TIP3      H1             16.3089737182       -0.3445751097      -13.8966131047  W2        2440            0.0000000000
      7320      2440  TIP3      H2             16.5783637182        1.0463148903      -13.3629831047  W2        2440            0.0000000000
      7321      2441  TIP3      OH2            -1.8222162818        0.3816248903      -10.2943431047  W2        2441            0.0000000000
      7322      2441  TIP3      H1             -2.7473762818        0.5902848903      -10.4237931047  W2        2441            0.0000000000
      7323      2441  TIP3      H2             -1.3682262818        0.8657048903      -10.9841131047  W2        2441            0.0000000000
      7324      2442  TIP3      OH2            12.9485037182       15.3657948903       -8.3486031047  W2        2442            0.0000000000
      7325      2442  TIP3      H1             13.6007937182       15.0180048903       -8.9566931047  W2        2442            0.0000000000
      7326      2442  TIP3      H2             13.4588837182       15.8541148903       -7.7026331047  W2        2442            0.0000000000
      7327      2443  TIP3      OH2            -1.8586762818       -0.8804751097       -1.9500931047  W2        2443            0.0000000000
      7328      2443  TIP3      H1             -2.5236262818       -1.1264451097       -1.3070031047  W2        2443            0.0000000000
      7329      2443  TIP3      H2             -2.3015462818       -0.2584351097       -2.5272931047  W2        2443            0.0000000000
      7330      2444  TIP3      OH2             0.3332537182       12.2949348903        2.1944868953  W2        2444            0.0000000000
      7331      2444  TIP3      H1             -0.4874962818       12.4695848903        1.7339568953  W2        2444            0.0000000000
      7332      2444  TIP3      H2              0.0810337182       12.2214048903        3.1149268953  W2        2444            0.0000000000
      7333      2445  TIP3      OH2             3.2875437182       13.2690548903       -1.5471131047  W2        2445            0.0000000000
      7334      2445  TIP3      H1              2.8626537182       14.0789048903       -1.8296531047  W2        2445            0.0000000000
      7335      2445  TIP3      H2              4.1918237182       13.3544648903       -1.8491331047  W2        2445            0.0000000000
      7336      2446  TIP3      OH2             7.5986837182       14.6680548903        1.4122568953  W2        2446            0.0000000000
      7337      2446  TIP3      H1              7.7834337182       14.3346648903        2.2902868953  W2        2446            0.0000000000
      7338      2446  TIP3      H2              8.4451337182       14.9779148903        1.0901768953  W2        2446            0.0000000000
      7339      2447  TIP3      OH2             9.9437237182       15.9539448903        0.6563968953  W2        2447            0.0000000000
      7340      2447  TIP3      H1             10.6206137182       15.3211748903        0.4163168953  W2        2447            0.0000000000
      7341      2447  TIP3      H2             10.2656037182       16.3549948903        1.4637268953  W2        2447            0.0000000000
      7342      2448  TIP3      OH2            14.8611037182       -1.4565051097       -0.2641031047  W2        2448            0.0000000000
      7343      2448  TIP3      H1             14.0484537182       -1.1314751097       -0.6516331047  W2        2448            0.0000000000
      7344      2448  TIP3      H2             15.0939537182       -2.2166551097       -0.7971931047  W2        2448            0.0000000000
      7345      2449  TIP3      OH2             0.6892137182       16.5254448903       -1.4995831047  W2        2449            0.0000000000
      7346      2449  TIP3      H1             -0.0311462818       16.9655448903       -1.9508131047  W2        2449            0.0000000000
      7347      2449  TIP3      H2              0.3236137182       16.2749148903       -0.6511831047  W2        2449            0.0000000000
      7348      2450  TIP3      OH2             3.1564737182       16.1258348903       -2.4698631047  W2        2450            0.0000000000
      7349      2450  TIP3      H1              2.2916937182       16.1976848903       -2.0658531047  W2        2450            0.0000000000
      7350      2450  TIP3      H2              3.1013737182       16.6725648903       -3.2536131047  W2        2450            0.0000000000
      7351      2451  TIP3      OH2             7.8670337182       16.0137248903       -3.2942631047  W2        2451            0.0000000000
      7352      2451  TIP3      H1              7.4104337182       16.5426948903       -3.9484231047  W2        2451            0.0000000000
      7353      2451  TIP3      H2              8.0298337182       16.6168648903       -2.5690331047  W2        2451            0.0000000000
      7354      2452  TIP3      OH2            10.1946637182       14.8916848903       -2.3492331047  W2        2452            0.0000000000
      7355      2452  TIP3      H1              9.2900337182       15.0567048903       -2.6150231047  W2        2452            0.0000000000
      7356      2452  TIP3      H2             10.6235237182       15.7449048903       -2.4148931047  W2        2452            0.0000000000
      7357      2453  TIP3      OH2            12.7988537182       16.4615948903       -2.0544531047  W2        2453            0.0000000000
      7358      2453  TIP3      H1             12.6170537182       17.3774848903       -2.2649631047  W2        2453            0.0000000000
      7359      2453  TIP3      H2             12.9756337182       16.0513048903       -2.9009931047  W2        2453            0.0000000000
      7360      2454  TIP3      OH2             0.1040237182       15.1486948903       -4.5894031047  W2        2454            0.0000000000
      7361      2454  TIP3      H1              0.0856237182       14.7232048903       -3.7321731047  W2        2454            0.0000000000
      7362      2454  TIP3      H2              0.9088137182       14.8301948903       -4.9981831047  W2        2454            0.0000000000
      7363      2455  TIP3      OH2             2.2453337182       13.8585648903       -5.9344131047  W2        2455            0.0000000000
      7364      2455  TIP3      H1              2.0264037182       12.9423048903       -5.7648131047  W2        2455            0.0000000000
      7365      2455  TIP3      H2              3.0695537182       13.9986048903       -5.4682731047  W2        2455            0.0000000000
      7366      2456  TIP3      OH2             4.7825837182       14.3284948903       -5.0856131047  W2        2456            0.0000000000
      7367      2456  TIP3      H1              4.9951537182       13.4403948903       -5.3725231047  W2        2456            0.0000000000
      7368      2456  TIP3      H2              4.8470937182       14.2942648903       -4.1312131047  W2        2456            0.0000000000
      7369      2457  TIP3      OH2             8.2909537182       -0.0074451097       -5.9412831047  W2        2457            0.0000000000
      7370      2457  TIP3      H1              7.6166337182       -0.6368851097       -5.6857031047  W2        2457            0.0000000000
      7371      2457  TIP3      H2              8.8548737182       -0.4915551097       -6.5444931047  W2        2457            0.0000000000
      7372      2458  TIP3      OH2            13.4336737182       -1.9000451097       -5.8285731047  W2        2458            0.0000000000
      7373      2458  TIP3      H1             14.0374337182       -1.3525051097       -6.3304731047  W2        2458            0.0000000000
      7374      2458  TIP3      H2             12.5638737182       -1.5810051097       -6.0691631047  W2        2458            0.0000000000
      7375      2459  TIP3      OH2            15.1607137182       -0.7611751097       -7.4954831047  W2        2459            0.0000000000
      7376      2459  TIP3      H1             15.7724637182       -1.2756051097       -8.0221231047  W2        2459            0.0000000000
      7377      2459  TIP3      H2             15.5430537182        0.1160348903       -7.4720431047  W2        2459            0.0000000000
      7378      2460  TIP3      OH2             0.6177037182       -1.3734151097       -8.1192931047  W2        2460            0.0000000000
      7379      2460  TIP3      H1             -0.1593162818       -1.6079251097       -8.6267031047  W2        2460            0.0000000000
      7380      2460  TIP3      H2              1.1480637182       -2.1702051097       -8.1104931047  W2        2460            0.0000000000
      7381      2461  TIP3      OH2            -0.5459562818       -1.5756051097      -12.3156831047  W2        2461            0.0000000000
      7382      2461  TIP3      H1             -0.1068862818       -0.9645551097      -12.9073331047  W2        2461            0.0000000000
      7383      2461  TIP3      H2             -1.1797162818       -1.0371951097      -11.8416831047  W2        2461            0.0000000000
      7384      2462  TIP3      OH2             5.1969637182       -1.4467051097       -8.3059831047  W2        2462            0.0000000000
      7385      2462  TIP3      H1              6.0713037182       -1.0582751097       -8.3355531047  W2        2462            0.0000000000
      7386      2462  TIP3      H2              5.0610437182       -1.6619251097       -7.3832631047  W2        2462            0.0000000000
      7387      2463  TIP3      OH2            10.7538037182       -1.4167251097       -6.6568131047  W2        2463            0.0000000000
      7388      2463  TIP3      H1             10.8299637182       -1.3215651097       -7.6062131047  W2        2463            0.0000000000
      7389      2463  TIP3      H2             10.4787237182       -2.3244351097       -6.5279031047  W2        2463            0.0000000000
      7390      2464  TIP3      OH2            12.1070637182       -1.3909451097      -10.9643131047  W2        2464            0.0000000000
      7391      2464  TIP3      H1             11.4041737182       -0.7760251097      -11.1741731047  W2        2464            0.0000000000
      7392      2464  TIP3      H2             11.6622037182       -2.2282751097      -10.8332231047  W2        2464            0.0000000000
      7393      2465  TIP3      OH2            -0.6450062818       14.3726148903      -11.4181731047  W2        2465            0.0000000000
      7394      2465  TIP3      H1             -1.3300162818       14.3345048903      -12.0856631047  W2        2465            0.0000000000
      7395      2465  TIP3      H2             -0.6412862818       15.2853748903      -11.1299631047  W2        2465            0.0000000000
      7396      2466  TIP3      OH2             1.3149537182        0.3405448903      -13.8732731047  W2        2466            0.0000000000
      7397      2466  TIP3      H1              1.8062937182       -0.2892151097      -14.4007231047  W2        2466            0.0000000000
      7398      2466  TIP3      H2              1.9385837182        0.6364848903      -13.2101531047  W2        2466            0.0000000000
      7399      2467  TIP3      OH2             6.3409637182        0.6336948903      -11.4162231047  W2        2467            0.0000000000
      7400      2467  TIP3      H1              6.5190937182       -0.0129851097      -10.7333631047  W2        2467            0.0000000000
      7401      2467  TIP3      H2              6.2875837182        1.4674648903      -10.9491131047  W2        2467            0.0000000000
      7402      2468  TIP3      OH2             8.2193437182       15.5821048903      -13.0205531047  W2        2468            0.0000000000
      7403      2468  TIP3      H1              9.0853637182       15.9488448903      -13.1987331047  W2        2468            0.0000000000
      7404      2468  TIP3      H2              7.9726237182       15.1429048903      -13.8344731047  W2        2468            0.0000000000
      7405      2469  TIP3      OH2            14.9283037182       15.1451348903      -10.3414431047  W2        2469            0.0000000000
      7406      2469  TIP3      H1             14.7340137182       14.3973448903      -10.9064831047  W2        2469            0.0000000000
      7407      2469  TIP3      H2             14.8893137182       15.9031448903      -10.9246531047  W2        2469            0.0000000000
      7408      2470  TIP3      OH2             0.5755037182       -0.8592251097        1.3983268953  W2        2470            0.0000000000
      7409      2470  TIP3      H1              0.2093237182       -1.6249651097        1.8407968953  W2        2470            0.0000000000
      7410      2470  TIP3      H2              1.4883537182       -0.8302051097        1.6848368953  W2        2470            0.0000000000
      7411      2471  TIP3      OH2             2.5485837182       -1.5087851097        2.9340368953  W2        2471            0.0000000000
      7412      2471  TIP3      H1              3.4469437182       -1.7827651097        2.7493768953  W2        2471            0.0000000000
      7413      2471  TIP3      H2              2.1618937182       -2.2511851097        3.3982968953  W2        2471            0.0000000000
      7414      2472  TIP3      OH2             1.1731137182       15.2926948903      -14.3929631047  W2        2472            0.0000000000
      7415      2472  TIP3      H1              0.9055737182       15.5789848903      -13.5196531047  W2        2472            0.0000000000
      7416      2472  TIP3      H2              1.9443737182       14.7466148903      -14.2407131047  W2        2472            0.0000000000
      7417      2473  TIP3      OH2            10.9698137182       -2.1762551097        3.1163168953  W2        2473            0.0000000000
      7418      2473  TIP3      H1             11.0465337182       -2.6021851097        3.9700868953  W2        2473            0.0000000000
      7419      2473  TIP3      H2             11.8634737182       -2.1627851097        2.7736668953  W2        2473            0.0000000000
      7420      2474  TIP3      OH2            14.1459237182       13.8963748903        1.8087368953  W2        2474            0.0000000000
      7421      2474  TIP3      H1             13.3641137182       13.7101748903        1.2887968953  W2        2474            0.0000000000
      7422      2474  TIP3      H2             14.0739137182       14.8258048903        2.0259868953  W2        2474            0.0000000000
      7423      2475  TIP3      OH2            28.5519637182        7.7828148903       -8.1605431047  W2        2475            0.0000000000
      7424      2475  TIP3      H1             28.6410737182        8.7266348903       -8.2928331047  W2        2475            0.0000000000
      7425      2475  TIP3      H2             27.9137237182        7.5074548903       -8.8186031047  W2        2475            0.0000000000
      7426      2476  TIP3      OH2            27.4850937182        7.0378848903       -4.7417231047  W2        2476            0.0000000000
      7427      2476  TIP3      H1             27.4468437182        6.3915148903       -4.0367631047  W2        2476            0.0000000000
      7428      2476  TIP3      H2             27.1627437182        6.5713248903       -5.5128531047  W2        2476            0.0000000000
      7429      2477  TIP3      OH2            19.8535937182        6.6520948903       -3.1487331047  W2        2477            0.0000000000
      7430      2477  TIP3      H1             19.8948037182        6.0264248903       -2.4254931047  W2        2477            0.0000000000
      7431      2477  TIP3      H2             20.5563637182        7.2759548903       -2.9666931047  W2        2477            0.0000000000
      7432      2478  TIP3      OH2            31.1911137182        9.9769248903       -6.4402131047  W2        2478            0.0000000000
      7433      2478  TIP3      H1             30.7503837182        9.2565248903       -5.9896531047  W2        2478            0.0000000000
      7434      2478  TIP3      H2             31.1780837182       10.6976448903       -5.8104431047  W2        2478            0.0000000000
      7435      2479  TIP3      OH2            20.7769037182       11.1019848903       -4.6138231047  W2        2479            0.0000000000
      7436      2479  TIP3      H1             20.4074237182       10.3000348903       -4.9833931047  W2        2479            0.0000000000
      7437      2479  TIP3      H2             21.7180137182       10.9334748903       -4.5674831047  W2        2479            0.0000000000
      7438      2480  TIP3      OH2            17.3869537182        4.7622448903       -9.2209431047  W2        2480            0.0000000000
      7439      2480  TIP3      H1             16.9392937182        5.6081148903       -9.2392931047  W2        2480            0.0000000000
      7440      2480  TIP3      H2             16.8260737182        4.1826648903       -9.7364331047  W2        2480            0.0000000000
      7441      2481  TIP3      OH2            18.0975637182        6.9242048903       -7.0951431047  W2        2481            0.0000000000
      7442      2481  TIP3      H1             18.3109137182        6.1543648903       -6.5678431047  W2        2481            0.0000000000
      7443      2481  TIP3      H2             18.8353237182        7.0138748903       -7.6983831047  W2        2481            0.0000000000
      7444      2482  TIP3      OH2            28.3026637182       15.0810948903       -6.2281731047  W2        2482            0.0000000000
      7445      2482  TIP3      H1             28.9223037182       14.4045648903       -6.5012531047  W2        2482            0.0000000000
      7446      2482  TIP3      H2             28.0944037182       14.8631748903       -5.3196831047  W2        2482            0.0000000000
      7447      2483  TIP3      OH2            25.8745337182        9.4700248903       -4.3356231047  W2        2483            0.0000000000
      7448      2483  TIP3      H1             26.1783237182        8.7841648903       -4.9302131047  W2        2483            0.0000000000
      7449      2483  TIP3      H2             26.5959337182        9.5888948903       -3.7178231047  W2        2483            0.0000000000
      7450      2484  TIP3      OH2            34.5375137182        1.0715548903       -3.4750031047  W2        2484            0.0000000000
      7451      2484  TIP3      H1             34.5867337182        1.6816748903       -2.7390931047  W2        2484            0.0000000000
      7452      2484  TIP3      H2             34.9630237182        1.5326448903       -4.1978931047  W2        2484            0.0000000000
      7453      2485  TIP3      OH2            29.0152337182        3.8642648903       -4.0081431047  W2        2485            0.0000000000
      7454      2485  TIP3      H1             29.1578237182        2.9179648903       -3.9879831047  W2        2485            0.0000000000
      7455      2485  TIP3      H2             28.9091337182        4.0712448903       -4.9366531047  W2        2485            0.0000000000
      7456      2486  TIP3      OH2            22.1700637182        1.9659048903       -6.7356631047  W2        2486            0.0000000000
      7457      2486  TIP3      H1             22.2131737182        2.8257548903       -7.1540331047  W2        2486            0.0000000000
      7458      2486  TIP3      H2             21.7124737182        1.4133748903       -7.3693431047  W2        2486            0.0000000000
      7459      2487  TIP3      OH2            29.8923337182        2.0964648903       -8.3348331047  W2        2487            0.0000000000
      7460      2487  TIP3      H1             30.5387637182        1.7677848903       -7.7100731047  W2        2487            0.0000000000
      7461      2487  TIP3      H2             30.4022737182        2.6143648903       -8.9576931047  W2        2487            0.0000000000
      7462      2488  TIP3      OH2            18.7902137182        4.3624848903       -5.9735231047  W2        2488            0.0000000000
      7463      2488  TIP3      H1             19.4438737182        3.8126548903       -5.5415131047  W2        2488            0.0000000000
      7464      2488  TIP3      H2             18.8141437182        4.0883848903       -6.8903231047  W2        2488            0.0000000000
      7465      2489  TIP3      OH2            23.9466637182        5.9126148903       -6.7583731047  W2        2489            0.0000000000
      7466      2489  TIP3      H1             24.5627637182        5.3861548903       -6.2489731047  W2        2489            0.0000000000
      7467      2489  TIP3      H2             23.3605437182        5.2724848903       -7.1620131047  W2        2489            0.0000000000
      7468      2490  TIP3      OH2            34.9289737182        2.5494748903       -1.2390231047  W2        2490            0.0000000000
      7469      2490  TIP3      H1             34.2404337182        3.2075448903       -1.3343631047  W2        2490            0.0000000000
      7470      2490  TIP3      H2             34.9444337182        2.3522648903       -0.3024831047  W2        2490            0.0000000000
      7471      2491  TIP3      OH2            20.9802537182        0.8837448903       -2.6615831047  W2        2491            0.0000000000
      7472      2491  TIP3      H1             20.7614237182        1.4138048903       -3.4279831047  W2        2491            0.0000000000
      7473      2491  TIP3      H2             20.3123437182        1.1102948903       -2.0144431047  W2        2491            0.0000000000
      7474      2492  TIP3      OH2            28.3492337182       10.3838548903       -9.1176731047  W2        2492            0.0000000000
      7475      2492  TIP3      H1             28.0537437182       10.0610848903       -9.9689831047  W2        2492            0.0000000000
      7476      2492  TIP3      H2             28.0250137182       11.2835248903       -9.0764131047  W2        2492            0.0000000000
      7477      2493  TIP3      OH2            23.5493937182        8.5593148903       -2.3742131047  W2        2493            0.0000000000
      7478      2493  TIP3      H1             22.8093037182        9.1574648903       -2.2706931047  W2        2493            0.0000000000
      7479      2493  TIP3      H2             24.2633437182        9.1132748903       -2.6898531047  W2        2493            0.0000000000
      7480      2494  TIP3      OH2            31.6561737182        1.3873948903       -6.3542431047  W2        2494            0.0000000000
      7481      2494  TIP3      H1             31.4409737182        0.6217348903       -5.8216431047  W2        2494            0.0000000000
      7482      2494  TIP3      H2             32.3119137182        1.8598548903       -5.8413931047  W2        2494            0.0000000000
      7483      2495  TIP3      OH2            20.5739837182        2.7759248903       -4.7093631047  W2        2495            0.0000000000
      7484      2495  TIP3      H1             21.1876137182        3.4086848903       -4.3361231047  W2        2495            0.0000000000
      7485      2495  TIP3      H2             21.0860537182        2.3034248903       -5.3656731047  W2        2495            0.0000000000
      7486      2496  TIP3      OH2            21.9568237182       10.5236148903       -1.5870631047  W2        2496            0.0000000000
      7487      2496  TIP3      H1             21.9515837182       11.4029648903       -1.9651331047  W2        2496            0.0000000000
      7488      2496  TIP3      H2             21.1032337182       10.4400248903       -1.1620731047  W2        2496            0.0000000000
      7489      2497  TIP3      OH2            18.0779137182       10.1944048903      -10.8051331047  W2        2497            0.0000000000
      7490      2497  TIP3      H1             17.8060037182       10.4235048903      -11.6938431047  W2        2497            0.0000000000
      7491      2497  TIP3      H2             18.1234837182       11.0322848903      -10.3446031047  W2        2497            0.0000000000
      7492      2498  TIP3      OH2            31.7028837182       11.8159948903       -4.0922831047  W2        2498            0.0000000000
      7493      2498  TIP3      H1             30.7612537182       11.8743848903       -3.9305931047  W2        2498            0.0000000000
      7494      2498  TIP3      H2             31.9794937182       12.7220448903       -4.2293131047  W2        2498            0.0000000000
      7495      2499  TIP3      OH2            32.0035837182        0.1025248903       -2.6748931047  W2        2499            0.0000000000
      7496      2499  TIP3      H1             31.2675037182        0.7132348903       -2.7127631047  W2        2499            0.0000000000
      7497      2499  TIP3      H2             32.6869837182        0.5174248903       -3.2012531047  W2        2499            0.0000000000
      7498      2500  TIP3      OH2            25.0067237182       -1.8107451097       -5.2090931047  W2        2500            0.0000000000
      7499      2500  TIP3      H1             24.8891437182       -2.7591451097       -5.2632631047  W2        2500            0.0000000000
      7500      2500  TIP3      H2             24.1517337182       -1.4781351097       -4.9359831047  W2        2500            0.0000000000
      7501      2501  TIP3      OH2            29.9550037182       13.5973448903       -7.4671231047  W2        2501            0.0000000000
      7502      2501  TIP3      H1             30.3802337182       12.8901348903       -7.9521631047  W2        2501            0.0000000000
      7503      2501  TIP3      H2             30.2720037182       14.3986148903       -7.8839031047  W2        2501            0.0000000000
      7504      2502  TIP3      OH2            31.1146537182       11.4981948903       -8.9584631047  W2        2502            0.0000000000
      7505      2502  TIP3      H1             30.8571337182       10.8082048903       -9.5698731047  W2        2502            0.0000000000
      7506      2502  TIP3      H2             31.1857337182       11.0553148903       -8.1128731047  W2        2502            0.0000000000
      7507      2503  TIP3      OH2            32.8006737182       10.0648648903       -0.4811131047  W2        2503            0.0000000000
      7508      2503  TIP3      H1             32.9403037182        9.4731148903       -1.2204131047  W2        2503            0.0000000000
      7509      2503  TIP3      H2             32.9679537182       10.9374548903       -0.8372331047  W2        2503            0.0000000000
      7510      2504  TIP3      OH2            27.2732137182        7.0268148903      -10.7085131047  W2        2504            0.0000000000
      7511      2504  TIP3      H1             26.5617637182        7.5617848903      -11.0604631047  W2        2504            0.0000000000
      7512      2504  TIP3      H2             27.9641737182        7.0820248903      -11.3686231047  W2        2504            0.0000000000
      7513      2505  TIP3      OH2            27.3271337182        5.4842448903      -13.6700131047  W2        2505            0.0000000000
      7514      2505  TIP3      H1             28.0281237182        5.5069348903      -13.0186131047  W2        2505            0.0000000000
      7515      2505  TIP3      H2             27.6294237182        4.8562148903      -14.3260831047  W2        2505            0.0000000000
      7516      2506  TIP3      OH2            34.6426037182        6.4046648903       -2.4150731047  W2        2506            0.0000000000
      7517      2506  TIP3      H1             33.9900137182        7.0992248903       -2.3259831047  W2        2506            0.0000000000
      7518      2506  TIP3      H2             35.1076337182        6.6147548903       -3.2249131047  W2        2506            0.0000000000
      7519      2507  TIP3      OH2            30.6789837182        7.2361448903       -9.7569231047  W2        2507            0.0000000000
      7520      2507  TIP3      H1             29.9470837182        7.4645148903       -9.1838631047  W2        2507            0.0000000000
      7521      2507  TIP3      H2             31.1262037182        6.5224148903       -9.3021731047  W2        2507            0.0000000000
      7522      2508  TIP3      OH2            30.5763337182        5.4104048903       -0.6892231047  W2        2508            0.0000000000
      7523      2508  TIP3      H1             30.6562437182        6.1738448903       -0.1173731047  W2        2508            0.0000000000
      7524      2508  TIP3      H2             29.9751037182        5.6896448903       -1.3797131047  W2        2508            0.0000000000
      7525      2509  TIP3      OH2            22.3243537182        7.8667648903       -7.8744231047  W2        2509            0.0000000000
      7526      2509  TIP3      H1             21.9938737182        7.4961048903       -8.6927231047  W2        2509            0.0000000000
      7527      2509  TIP3      H2             22.9127637182        7.1961648903       -7.5275931047  W2        2509            0.0000000000
      7528      2510  TIP3      OH2            23.6911037182       11.2948248903       -5.1932031047  W2        2510            0.0000000000
      7529      2510  TIP3      H1             23.5962337182       10.7161348903       -5.9497431047  W2        2510            0.0000000000
      7530      2510  TIP3      H2             24.4204637182       10.9233948903       -4.6969231047  W2        2510            0.0000000000
      7531      2511  TIP3      OH2            22.6909037182        6.6353248903       -4.2409231047  W2        2511            0.0000000000
      7532      2511  TIP3      H1             23.2561537182        6.7567448903       -5.0038031047  W2        2511            0.0000000000
      7533      2511  TIP3      H2             23.0097937182        7.2728248903       -3.6020731047  W2        2511            0.0000000000
      7534      2512  TIP3      OH2            29.0001237182       12.1385148903       -3.5068731047  W2        2512            0.0000000000
      7535      2512  TIP3      H1             28.7597837182       12.8008248903       -2.8589531047  W2        2512            0.0000000000
      7536      2512  TIP3      H2             28.8019437182       11.3040348903       -3.0819131047  W2        2512            0.0000000000
      7537      2513  TIP3      OH2            23.5709737182       11.0345948903        0.4762668953  W2        2513            0.0000000000
      7538      2513  TIP3      H1             23.2597237182       11.8169148903        0.9315868953  W2        2513            0.0000000000
      7539      2513  TIP3      H2             22.9209937182       10.8815048903       -0.2095331047  W2        2513            0.0000000000
      7540      2514  TIP3      OH2            29.5499337182        6.3984348903      -12.0718031047  W2        2514            0.0000000000
      7541      2514  TIP3      H1             30.1294837182        6.5484648903      -11.3249131047  W2        2514            0.0000000000
      7542      2514  TIP3      H2             29.9639337182        6.8691748903      -12.7951631047  W2        2514            0.0000000000
      7543      2515  TIP3      OH2            20.4909637182        7.2327048903       -0.2951631047  W2        2515            0.0000000000
      7544      2515  TIP3      H1             20.5612837182        7.8833848903        0.4033368953  W2        2515            0.0000000000
      7545      2515  TIP3      H2             19.6001837182        7.3354548903       -0.6300731047  W2        2515            0.0000000000
      7546      2516  TIP3      OH2            27.2764237182       13.1352848903       -8.6364931047  W2        2516            0.0000000000
      7547      2516  TIP3      H1             27.7501837182       13.4309148903       -7.8590731047  W2        2516            0.0000000000
      7548      2516  TIP3      H2             26.7133537182       13.8734448903       -8.8695331047  W2        2516            0.0000000000
      7549      2517  TIP3      OH2            21.8105637182       13.1060948903        1.2396468953  W2        2517            0.0000000000
      7550      2517  TIP3      H1             21.8180937182       12.9700648903        0.2921968953  W2        2517            0.0000000000
      7551      2517  TIP3      H2             20.8946037182       12.9889048903        1.4916468953  W2        2517            0.0000000000
      7552      2518  TIP3      OH2            33.2487737182       -1.8515251097      -12.2588331047  W2        2518            0.0000000000
      7553      2518  TIP3      H1             32.3488437182       -1.7126251097      -11.9637731047  W2        2518            0.0000000000
      7554      2518  TIP3      H2             33.5006137182       -1.0200651097      -12.6606631047  W2        2518            0.0000000000
      7555      2519  TIP3      OH2            21.3146237182        6.9361948903      -10.2851431047  W2        2519            0.0000000000
      7556      2519  TIP3      H1             21.0227537182        7.7043648903      -10.7760131047  W2        2519            0.0000000000
      7557      2519  TIP3      H2             20.6401437182        6.2768148903      -10.4480031047  W2        2519            0.0000000000
      7558      2520  TIP3      OH2            34.4379137182       12.5147148903      -13.8824431047  W2        2520            0.0000000000
      7559      2520  TIP3      H1             34.5112637182       13.4537348903      -13.7119131047  W2        2520            0.0000000000
      7560      2520  TIP3      H2             35.3434237182       12.2095748903      -13.9387131047  W2        2520            0.0000000000
      7561      2521  TIP3      OH2            17.4076337182        9.2991148903       -1.4701631047  W2        2521            0.0000000000
      7562      2521  TIP3      H1             16.9064737182        9.2710548903       -2.2851931047  W2        2521            0.0000000000
      7563      2521  TIP3      H2             17.4130037182        8.3934348903       -1.1604331047  W2        2521            0.0000000000
      7564      2522  TIP3      OH2            17.1579037182       12.0794948903       -4.5861431047  W2        2522            0.0000000000
      7565      2522  TIP3      H1             18.1039637182       11.9351948903       -4.6051931047  W2        2522            0.0000000000
      7566      2522  TIP3      H2             17.0455337182       12.8637748903       -4.0490231047  W2        2522            0.0000000000
      7567      2523  TIP3      OH2            35.3557537182       12.7454648903        1.0962268953  W2        2523            0.0000000000
      7568      2523  TIP3      H1             35.3064337182       11.7902748903        1.0589868953  W2        2523            0.0000000000
      7569      2523  TIP3      H2             34.5289837182       13.0129948903        1.4976068953  W2        2523            0.0000000000
      7570      2524  TIP3      OH2            26.3341537182       12.3193848903       -0.0276331047  W2        2524            0.0000000000
      7571      2524  TIP3      H1             26.4216137182       13.1458448903        0.4472768953  W2        2524            0.0000000000
      7572      2524  TIP3      H2             25.4706637182       11.9897648903        0.2212968953  W2        2524            0.0000000000
      7573      2525  TIP3      OH2            26.7487337182       16.0917548903      -10.2215731047  W2        2525            0.0000000000
      7574      2525  TIP3      H1             26.6733337182       15.9704748903      -11.1680531047  W2        2525            0.0000000000
      7575      2525  TIP3      H2             26.7816037182       17.0410248903      -10.1031131047  W2        2525            0.0000000000
      7576      2526  TIP3      OH2            20.4021137182       14.8804548903       -8.4406731047  W2        2526            0.0000000000
      7577      2526  TIP3      H1             20.5541537182       14.5324948903       -7.5620231047  W2        2526            0.0000000000
      7578      2526  TIP3      H2             19.5511537182       14.5241848903       -8.6959531047  W2        2526            0.0000000000
      7579      2527  TIP3      OH2            29.8503337182       15.2457748903      -13.2193331047  W2        2527            0.0000000000
      7580      2527  TIP3      H1             30.2251737182       14.5013848903      -13.6900731047  W2        2527            0.0000000000
      7581      2527  TIP3      H2             29.8547037182       14.9758348903      -12.3010031047  W2        2527            0.0000000000
      7582      2528  TIP3      OH2            29.5191437182       15.1714848903      -10.4701131047  W2        2528            0.0000000000
      7583      2528  TIP3      H1             28.5841237182       15.2716748903      -10.2914131047  W2        2528            0.0000000000
      7584      2528  TIP3      H2             29.7993337182       14.4620848903       -9.8917931047  W2        2528            0.0000000000
      7585      2529  TIP3      OH2            32.5077337182        4.2387148903        1.5764468953  W2        2529            0.0000000000
      7586      2529  TIP3      H1             32.1004137182        4.7192748903        0.8557768953  W2        2529            0.0000000000
      7587      2529  TIP3      H2             32.5483037182        3.3333148903        1.2685268953  W2        2529            0.0000000000
      7588      2530  TIP3      OH2            19.6566837182       10.6226548903       -0.4268831047  W2        2530            0.0000000000
      7589      2530  TIP3      H1             19.8728137182       10.2612148903        0.4326968953  W2        2530            0.0000000000
      7590      2530  TIP3      H2             18.8011537182       10.2480348903       -0.6365331047  W2        2530            0.0000000000
      7591      2531  TIP3      OH2            22.2754837182       -0.9072951097       -4.4314631047  W2        2531            0.0000000000
      7592      2531  TIP3      H1             21.4138537182       -0.9944751097       -4.8391731047  W2        2531            0.0000000000
      7593      2531  TIP3      H2             22.2530537182       -0.0512851097       -4.0037031047  W2        2531            0.0000000000
      7594      2532  TIP3      OH2            26.9382637182       -1.1852551097       -1.0567631047  W2        2532            0.0000000000
      7595      2532  TIP3      H1             27.3585737182       -1.6005451097       -0.3037031047  W2        2532            0.0000000000
      7596      2532  TIP3      H2             26.0052237182       -1.3639251097       -0.9395631047  W2        2532            0.0000000000
      7597      2533  TIP3      OH2            30.2647537182        2.5702648903       -0.2033131047  W2        2533            0.0000000000
      7598      2533  TIP3      H1             29.7507037182        2.4444848903        0.5942868953  W2        2533            0.0000000000
      7599      2533  TIP3      H2             30.1092237182        3.4825748903       -0.4476931047  W2        2533            0.0000000000
      7600      2534  TIP3      OH2            31.0272437182        7.4312648903      -14.4420131047  W2        2534            0.0000000000
      7601      2534  TIP3      H1             31.0693237182        7.2086548903      -15.3720131047  W2        2534            0.0000000000
      7602      2534  TIP3      H2             31.8764537182        7.8299748903      -14.2520231047  W2        2534            0.0000000000
      7603      2535  TIP3      OH2            26.5999937182        1.3070848903      -13.7716831047  W2        2535            0.0000000000
      7604      2535  TIP3      H1             26.3464737182        1.3262448903      -12.8488731047  W2        2535            0.0000000000
      7605      2535  TIP3      H2             26.3432037182        0.4356248903      -14.0730631047  W2        2535            0.0000000000
      7606      2536  TIP3      OH2            22.3664937182        4.0581548903       -3.3364431047  W2        2536            0.0000000000
      7607      2536  TIP3      H1             21.7247037182        4.0178848903       -2.6274331047  W2        2536            0.0000000000
      7608      2536  TIP3      H2             22.4036937182        4.9846248903       -3.5741431047  W2        2536            0.0000000000
      7609      2537  TIP3      OH2            22.3634037182        4.2791648903       -8.4244431047  W2        2537            0.0000000000
      7610      2537  TIP3      H1             21.4706937182        3.9387748903       -8.4830631047  W2        2537            0.0000000000
      7611      2537  TIP3      H2             22.8140637182        3.9022548903       -9.1801231047  W2        2537            0.0000000000
      7612      2538  TIP3      OH2            27.8989537182        4.6951948903       -9.6073631047  W2        2538            0.0000000000
      7613      2538  TIP3      H1             27.4899837182        5.5100548903       -9.8988831047  W2        2538            0.0000000000
      7614      2538  TIP3      H2             28.6195737182        4.5552048903      -10.2216531047  W2        2538            0.0000000000
      7615      2539  TIP3      OH2            27.0011137182        4.8708348903        1.8807068953  W2        2539            0.0000000000
      7616      2539  TIP3      H1             26.4384937182        4.1659948903        2.2014868953  W2        2539            0.0000000000
      7617      2539  TIP3      H2             27.8274537182        4.7500248903        2.3484668953  W2        2539            0.0000000000
      7618      2540  TIP3      OH2            28.9037237182        4.1412348903       -6.7933931047  W2        2540            0.0000000000
      7619      2540  TIP3      H1             28.7081737182        4.7469148903       -7.5083331047  W2        2540            0.0000000000
      7620      2540  TIP3      H2             29.0849837182        3.3077548903       -7.2277631047  W2        2540            0.0000000000
      7621      2541  TIP3      OH2            20.1165437182        4.3785048903       -1.4692431047  W2        2541            0.0000000000
      7622      2541  TIP3      H1             20.0784837182        4.7786648903       -0.6005331047  W2        2541            0.0000000000
      7623      2541  TIP3      H2             19.6256537182        3.5617448903       -1.3789531047  W2        2541            0.0000000000
      7624      2542  TIP3      OH2            23.4822837182        1.7527348903      -14.6706431047  W2        2542            0.0000000000
      7625      2542  TIP3      H1             23.0513537182        1.3077448903      -13.9409031047  W2        2542            0.0000000000
      7626      2542  TIP3      H2             22.7641537182        2.1243648903      -15.1828931047  W2        2542            0.0000000000
      7627      2543  TIP3      OH2            16.7246237182        1.4946848903       -7.6187731047  W2        2543            0.0000000000
      7628      2543  TIP3      H1             17.3553937182        1.4658948903       -6.8993831047  W2        2543            0.0000000000
      7629      2543  TIP3      H2             17.1740537182        1.0695548903       -8.3491831047  W2        2543            0.0000000000
      7630      2544  TIP3      OH2            17.9988337182        2.2408848903      -12.1947331047  W2        2544            0.0000000000
      7631      2544  TIP3      H1             18.4730037182        2.8318748903      -12.7796431047  W2        2544            0.0000000000
      7632      2544  TIP3      H2             17.2814737182        2.7711748903      -11.8477231047  W2        2544            0.0000000000
      7633      2545  TIP3      OH2            28.1676437182        5.7793648903       -2.1221531047  W2        2545            0.0000000000
      7634      2545  TIP3      H1             28.4911237182        5.1483348903       -2.7651031047  W2        2545            0.0000000000
      7635      2545  TIP3      H2             27.7275737182        5.2445848903       -1.4614131047  W2        2545            0.0000000000
      7636      2546  TIP3      OH2            24.9449337182        1.7069148903       -7.3380331047  W2        2546            0.0000000000
      7637      2546  TIP3      H1             24.0340437182        1.7635948903       -7.0494331047  W2        2546            0.0000000000
      7638      2546  TIP3      H2             25.4502237182        1.6464648903       -6.5273131047  W2        2546            0.0000000000
      7639      2547  TIP3      OH2            19.7732737182        3.3355448903       -8.5112731047  W2        2547            0.0000000000
      7640      2547  TIP3      H1             18.8840737182        3.4350948903       -8.8513131047  W2        2547            0.0000000000
      7641      2547  TIP3      H2             20.0697637182        2.4938448903       -8.8574831047  W2        2547            0.0000000000
      7642      2548  TIP3      OH2            23.4264537182        3.3358048903      -10.8548131047  W2        2548            0.0000000000
      7643      2548  TIP3      H1             24.3580037182        3.4648048903      -10.6765031047  W2        2548            0.0000000000
      7644      2548  TIP3      H2             23.2114837182        4.0052348903      -11.5043431047  W2        2548            0.0000000000
      7645      2549  TIP3      OH2            29.3501237182        0.9415448903       -4.0738531047  W2        2549            0.0000000000
      7646      2549  TIP3      H1             28.6732837182        1.0728548903       -3.4098831047  W2        2549            0.0000000000
      7647      2549  TIP3      H2             28.8646137182        0.7864948903       -4.8840831047  W2        2549            0.0000000000
      7648      2550  TIP3      OH2            22.1004737182        4.5300248903      -13.2882031047  W2        2550            0.0000000000
      7649      2550  TIP3      H1             21.5579837182        4.1504048903      -13.9794431047  W2        2550            0.0000000000
      7650      2550  TIP3      H2             22.9339637182        4.7244948903      -13.7167931047  W2        2550            0.0000000000
      7651      2551  TIP3      OH2            32.6376337182       16.6130848903        2.2029068953  W2        2551            0.0000000000
      7652      2551  TIP3      H1             32.8375037182       17.0372748903        1.3684368953  W2        2551            0.0000000000
      7653      2551  TIP3      H2             33.2930037182       16.9569048903        2.8099468953  W2        2551            0.0000000000
      7654      2552  TIP3      OH2            20.2356137182        9.0872148903        1.8109568953  W2        2552            0.0000000000
      7655      2552  TIP3      H1             20.9678537182        9.3418048903        2.3724068953  W2        2552            0.0000000000
      7656      2552  TIP3      H2             19.4554837182        9.2917548903        2.3264968953  W2        2552            0.0000000000
      7657      2553  TIP3      OH2            26.2649037182        4.4942148903       -5.4510731047  W2        2553            0.0000000000
      7658      2553  TIP3      H1             26.8292437182        3.9478748903       -5.9981131047  W2        2553            0.0000000000
      7659      2553  TIP3      H2             26.1172437182        3.9724048903       -4.6623131047  W2        2553            0.0000000000
      7660      2554  TIP3      OH2            21.2668737182        0.6308248903       -9.0325931047  W2        2554            0.0000000000
      7661      2554  TIP3      H1             20.9498237182       -0.2716451097       -9.0680531047  W2        2554            0.0000000000
      7662      2554  TIP3      H2             22.0482837182        0.6325648903       -9.5854331047  W2        2554            0.0000000000
      7663      2555  TIP3      OH2            24.8914937182        2.8828248903       -3.0370331047  W2        2555            0.0000000000
      7664      2555  TIP3      H1             24.0560237182        3.3367748903       -2.9267931047  W2        2555            0.0000000000
      7665      2555  TIP3      H2             25.4155537182        3.1586748903       -2.2850431047  W2        2555            0.0000000000
      7666      2556  TIP3      OH2            25.4357537182        9.0955948903      -11.3523931047  W2        2556            0.0000000000
      7667      2556  TIP3      H1             24.6908537182        8.5881248903      -11.6746031047  W2        2556            0.0000000000
      7668      2556  TIP3      H2             25.3014737182        9.1443948903      -10.4059131047  W2        2556            0.0000000000
      7669      2557  TIP3      OH2            32.5856437182        8.2284148903       -2.5656331047  W2        2557            0.0000000000
      7670      2557  TIP3      H1             33.2275237182        8.6850448903       -3.1094131047  W2        2557            0.0000000000
      7671      2557  TIP3      H2             31.7553337182        8.3416548903       -3.0282231047  W2        2557            0.0000000000
      7672      2558  TIP3      OH2            29.3334337182        1.9095848903      -13.1531331047  W2        2558            0.0000000000
      7673      2558  TIP3      H1             28.3948537182        2.0211448903      -13.3042531047  W2        2558            0.0000000000
      7674      2558  TIP3      H2             29.6306437182        2.7662748903      -12.8465631047  W2        2558            0.0000000000
      7675      2559  TIP3      OH2            26.9549637182        9.2799248903       -0.1154831047  W2        2559            0.0000000000
      7676      2559  TIP3      H1             26.6095737182        8.8981648903        0.6914768953  W2        2559            0.0000000000
      7677      2559  TIP3      H2             26.7549737182       10.2132848903       -0.0441931047  W2        2559            0.0000000000
      7678      2560  TIP3      OH2            30.0517837182        3.7768548903      -11.4923931047  W2        2560            0.0000000000
      7679      2560  TIP3      H1             30.9436837182        3.6393548903      -11.1732731047  W2        2560            0.0000000000
      7680      2560  TIP3      H2             30.1081437182        4.5674648903      -12.0290431047  W2        2560            0.0000000000
      7681      2561  TIP3      OH2            20.5605837182        8.3905948903       -5.5826031047  W2        2561            0.0000000000
      7682      2561  TIP3      H1             21.3053037182        8.3881648903       -6.1839531047  W2        2561            0.0000000000
      7683      2561  TIP3      H2             20.6382437182        7.5669748903       -5.1010931047  W2        2561            0.0000000000
      7684      2562  TIP3      OH2            27.5611637182       10.5540248903      -12.3269331047  W2        2562            0.0000000000
      7685      2562  TIP3      H1             27.2660037182       11.3808148903      -11.9454531047  W2        2562            0.0000000000
      7686      2562  TIP3      H2             26.8581637182        9.9347148903      -12.1307931047  W2        2562            0.0000000000
      7687      2563  TIP3      OH2            17.5685537182        6.8512848903       -0.2677531047  W2        2563            0.0000000000
      7688      2563  TIP3      H1             17.7914137182        6.4332448903        0.5639968953  W2        2563            0.0000000000
      7689      2563  TIP3      H2             16.9665637182        6.2387848903       -0.6904731047  W2        2563            0.0000000000
      7690      2564  TIP3      OH2            24.5850437182        6.3682748903        1.9452168953  W2        2564            0.0000000000
      7691      2564  TIP3      H1             24.2891237182        6.2025748903        1.0501268953  W2        2564            0.0000000000
      7692      2564  TIP3      H2             25.5165637182        6.1483048903        1.9346068953  W2        2564            0.0000000000
      7693      2565  TIP3      OH2            29.2053237182       11.7414748903       -0.1649831047  W2        2565            0.0000000000
      7694      2565  TIP3      H1             28.3047537182       11.9247348903       -0.4325931047  W2        2565            0.0000000000
      7695      2565  TIP3      H2             29.2394337182       12.0004048903        0.7558968953  W2        2565            0.0000000000
      7696      2566  TIP3      OH2            34.9366537182        3.9862648903      -11.7977231047  W2        2566            0.0000000000
      7697      2566  TIP3      H1             34.3822837182        3.5900648903      -12.4699731047  W2        2566            0.0000000000
      7698      2566  TIP3      H2             35.0370137182        4.8967848903      -12.0753931047  W2        2566            0.0000000000
      7699      2567  TIP3      OH2            34.8998537182        9.7864348903        1.0394268953  W2        2567            0.0000000000
      7700      2567  TIP3      H1             34.0487037182       10.0248148903        0.6720668953  W2        2567            0.0000000000
      7701      2567  TIP3      H2             35.4901937182        9.7697548903        0.2861368953  W2        2567            0.0000000000
      7702      2568  TIP3      OH2            33.2318237182       12.7723048903      -11.3325131047  W2        2568            0.0000000000
      7703      2568  TIP3      H1             32.8589337182       11.9466848903      -11.0234531047  W2        2568            0.0000000000
      7704      2568  TIP3      H2             33.5091737182       12.5892448903      -12.2301731047  W2        2568            0.0000000000
      7705      2569  TIP3      OH2            30.3922137182        7.5802548903       -4.3113231047  W2        2569            0.0000000000
      7706      2569  TIP3      H1             29.4639037182        7.3484448903       -4.3383931047  W2        2569            0.0000000000
      7707      2569  TIP3      H2             30.8433237182        6.8032348903       -4.6414431047  W2        2569            0.0000000000
      7708      2570  TIP3      OH2            22.9355237182       11.9084148903       -8.1784531047  W2        2570            0.0000000000
      7709      2570  TIP3      H1             23.4627437182       12.6818548903       -8.3785731047  W2        2570            0.0000000000
      7710      2570  TIP3      H2             22.0553737182       12.1333348903       -8.4800531047  W2        2570            0.0000000000
      7711      2571  TIP3      OH2            18.6902937182        6.7708248903      -13.5912131047  W2        2571            0.0000000000
      7712      2571  TIP3      H1             19.3062837182        7.3975448903      -13.2117331047  W2        2571            0.0000000000
      7713      2571  TIP3      H2             17.8285537182        7.0868048903      -13.3195631047  W2        2571            0.0000000000
      7714      2572  TIP3      OH2            24.3627537182        9.5714048903       -8.6020231047  W2        2572            0.0000000000
      7715      2572  TIP3      H1             24.1217537182       10.4968448903       -8.5604931047  W2        2572            0.0000000000
      7716      2572  TIP3      H2             23.6221137182        9.1125348903       -8.2056331047  W2        2572            0.0000000000
      7717      2573  TIP3      OH2            24.8774137182       13.7207648903       -2.2869131047  W2        2573            0.0000000000
      7718      2573  TIP3      H1             25.2398837182       14.5753248903       -2.5204731047  W2        2573            0.0000000000
      7719      2573  TIP3      H2             25.4089337182       13.4289248903       -1.5462831047  W2        2573            0.0000000000
      7720      2574  TIP3      OH2            23.0458337182       14.5931648903       -9.0568031047  W2        2574            0.0000000000
      7721      2574  TIP3      H1             22.0958837182       14.6989048903       -9.0054731047  W2        2574            0.0000000000
      7722      2574  TIP3      H2             23.3976437182       15.4139048903       -8.7120531047  W2        2574            0.0000000000
      7723      2575  TIP3      OH2            28.4214937182        9.8198348903       -2.5863531047  W2        2575            0.0000000000
      7724      2575  TIP3      H1             27.9956237182        9.5920048903       -1.7599531047  W2        2575            0.0000000000
      7725      2575  TIP3      H2             29.0020737182        9.0810148903       -2.7688231047  W2        2575            0.0000000000
      7726      2576  TIP3      OH2            30.6243837182       10.7488848903      -13.5124531047  W2        2576            0.0000000000
      7727      2576  TIP3      H1             30.9776937182       10.3688648903      -12.7081031047  W2        2576            0.0000000000
      7728      2576  TIP3      H2             29.6757337182       10.6553648903      -13.4255231047  W2        2576            0.0000000000
      7729      2577  TIP3      OH2            31.0799137182       14.3717848903       -0.1168731047  W2        2577            0.0000000000
      7730      2577  TIP3      H1             30.4782337182       13.8160748903       -0.6122431047  W2        2577            0.0000000000
      7731      2577  TIP3      H2             31.3612837182       15.0387648903       -0.7431331047  W2        2577            0.0000000000
      7732      2578  TIP3      OH2            35.1278237182       15.2281348903      -13.3114331047  W2        2578            0.0000000000
      7733      2578  TIP3      H1             35.8716137182       15.8141848903      -13.4512731047  W2        2578            0.0000000000
      7734      2578  TIP3      H2             34.4336337182       15.7967148903      -12.9781931047  W2        2578            0.0000000000
      7735      2579  TIP3      OH2            19.2025037182        1.6045548903       -0.7096131047  W2        2579            0.0000000000
      7736      2579  TIP3      H1             18.3097337182        1.9430948903       -0.7772131047  W2        2579            0.0000000000
      7737      2579  TIP3      H2             19.1037837182        0.7491648903       -0.2915331047  W2        2579            0.0000000000
      7738      2580  TIP3      OH2            31.4903137182        9.4210848903      -11.2856631047  W2        2580            0.0000000000
      7739      2580  TIP3      H1             31.2130737182        8.6930148903      -10.7295531047  W2        2580            0.0000000000
      7740      2580  TIP3      H2             32.4176137182        9.5402848903      -11.0804031047  W2        2580            0.0000000000
      7741      2581  TIP3      OH2            18.8537037182       13.4089948903       -2.2746731047  W2        2581            0.0000000000
      7742      2581  TIP3      H1             19.0707337182       12.4772348903       -2.3057031047  W2        2581            0.0000000000
      7743      2581  TIP3      H2             19.1000537182       13.6834948903       -1.3913931047  W2        2581            0.0000000000
      7744      2582  TIP3      OH2            24.7151637182       11.8604948903      -15.0654531047  W2        2582            0.0000000000
      7745      2582  TIP3      H1             24.9541437182       11.1123048903      -15.6125631047  W2        2582            0.0000000000
      7746      2582  TIP3      H2             24.4462937182       11.4726648903      -14.2326731047  W2        2582            0.0000000000
      7747      2583  TIP3      OH2            23.6522237182       11.4308748903      -12.6091931047  W2        2583            0.0000000000
      7748      2583  TIP3      H1             23.7990237182       10.9108548903      -11.8191031047  W2        2583            0.0000000000
      7749      2583  TIP3      H2             23.6493937182       12.3376348903      -12.3026031047  W2        2583            0.0000000000
      7750      2584  TIP3      OH2            20.1053337182        8.6832048903      -12.0986531047  W2        2584            0.0000000000
      7751      2584  TIP3      H1             19.4192637182        9.0354548903      -11.5316831047  W2        2584            0.0000000000
      7752      2584  TIP3      H2             20.6281237182        9.4461648903      -12.3452231047  W2        2584            0.0000000000
      7753      2585  TIP3      OH2            27.9368437182        1.3455848903       -1.8197531047  W2        2585            0.0000000000
      7754      2585  TIP3      H1             28.6356337182        1.4194548903       -1.1697831047  W2        2585            0.0000000000
      7755      2585  TIP3      H2             27.5559837182        0.4810848903       -1.6654631047  W2        2585            0.0000000000
      7756      2586  TIP3      OH2            28.7213337182        0.9977548903      -10.7225231047  W2        2586            0.0000000000
      7757      2586  TIP3      H1             28.9411637182        1.4692948903      -11.5259831047  W2        2586            0.0000000000
      7758      2586  TIP3      H2             29.2797337182        1.3920148903      -10.0524631047  W2        2586            0.0000000000
      7759      2587  TIP3      OH2            26.3899437182       13.1282348903      -11.8597731047  W2        2587            0.0000000000
      7760      2587  TIP3      H1             25.5735537182       13.6252048903      -11.8073431047  W2        2587            0.0000000000
      7761      2587  TIP3      H2             26.9195737182       13.6035848903      -12.4998931047  W2        2587            0.0000000000
      7762      2588  TIP3      OH2            25.9213237182        2.7256348903       -9.8876831047  W2        2588            0.0000000000
      7763      2588  TIP3      H1             26.7335837182        3.2299548903       -9.8415131047  W2        2588            0.0000000000
      7764      2588  TIP3      H2             25.6766237182        2.5806048903       -8.9737231047  W2        2588            0.0000000000
      7765      2589  TIP3      OH2            26.4569637182        3.7119048903       -0.7030231047  W2        2589            0.0000000000
      7766      2589  TIP3      H1             26.5759937182        4.2854448903        0.0540168953  W2        2589            0.0000000000
      7767      2589  TIP3      H2             27.1124237182        3.0238448903       -0.5882431047  W2        2589            0.0000000000
      7768      2590  TIP3      OH2            26.8049937182       -0.1930651097       -8.9495731047  W2        2590            0.0000000000
      7769      2590  TIP3      H1             26.4583437182        0.4239948903       -8.3051431047  W2        2590            0.0000000000
      7770      2590  TIP3      H2             27.4636837182        0.3075048903       -9.4310231047  W2        2590            0.0000000000
      7771      2591  TIP3      OH2            23.7282537182       14.1719548903      -11.8780831047  W2        2591            0.0000000000
      7772      2591  TIP3      H1             23.8891237182       14.9717048903      -12.3788231047  W2        2591            0.0000000000
      7773      2591  TIP3      H2             23.5310337182       14.4785548903      -10.9930231047  W2        2591            0.0000000000
      7774      2592  TIP3      OH2            22.4626937182        0.8698748903      -12.2623231047  W2        2592            0.0000000000
      7775      2592  TIP3      H1             22.3791737182        1.7581848903      -11.9156831047  W2        2592            0.0000000000
      7776      2592  TIP3      H2             23.3527237182        0.6045448903      -12.0306431047  W2        2592            0.0000000000
      7777      2593  TIP3      OH2            32.6615437182        1.6189348903        0.1319468953  W2        2593            0.0000000000
      7778      2593  TIP3      H1             31.7451237182        1.8811048903        0.0443168953  W2        2593            0.0000000000
      7779      2593  TIP3      H2             32.9970437182        1.6158348903       -0.7645231047  W2        2593            0.0000000000
      7780      2594  TIP3      OH2            31.2636437182        5.3690348903       -5.7723231047  W2        2594            0.0000000000
      7781      2594  TIP3      H1             30.4660837182        4.9540548903       -6.1008231047  W2        2594            0.0000000000
      7782      2594  TIP3      H2             31.7087537182        4.6784048903       -5.2812731047  W2        2594            0.0000000000
      7783      2595  TIP3      OH2            20.7212237182       11.2970948903      -13.2018731047  W2        2595            0.0000000000
      7784      2595  TIP3      H1             21.3133737182       11.9965748903      -12.9256331047  W2        2595            0.0000000000
      7785      2595  TIP3      H2             21.1805237182       10.8640448903      -13.9214131047  W2        2595            0.0000000000
      7786      2596  TIP3      OH2            19.0371437182        3.9613948903      -14.0859331047  W2        2596            0.0000000000
      7787      2596  TIP3      H1             18.9924037182        4.9007048903      -13.9072331047  W2        2596            0.0000000000
      7788      2596  TIP3      H2             18.1494637182        3.7258848903      -14.3557231047  W2        2596            0.0000000000
      7789      2597  TIP3      OH2            32.3501037182       14.6252848903       -4.1499731047  W2        2597            0.0000000000
      7790      2597  TIP3      H1             32.1945337182       15.3037248903       -4.8070431047  W2        2597            0.0000000000
      7791      2597  TIP3      H2             33.2827437182       14.6972148903       -3.9469131047  W2        2597            0.0000000000
      7792      2598  TIP3      OH2            19.8453437182       -1.2569451097       -5.4128331047  W2        2598            0.0000000000
      7793      2598  TIP3      H1             19.6163237182       -1.1976951097       -6.3403331047  W2        2598            0.0000000000
      7794      2598  TIP3      H2             19.4026837182       -2.0483951097       -5.1064231047  W2        2598            0.0000000000
      7795      2599  TIP3      OH2            18.7756737182       12.6837648903       -9.2522531047  W2        2599            0.0000000000
      7796      2599  TIP3      H1             17.9435337182       13.1560348903       -9.2251131047  W2        2599            0.0000000000
      7797      2599  TIP3      H2             19.3215037182       13.1935248903       -9.8509431047  W2        2599            0.0000000000
      7798      2600  TIP3      OH2            18.0640437182       15.2961348903        2.0775468953  W2        2600            0.0000000000
      7799      2600  TIP3      H1             18.6042637182       15.0795348903        2.8374668953  W2        2600            0.0000000000
      7800      2600  TIP3      H2             17.5828437182       14.4907348903        1.8877968953  W2        2600            0.0000000000
      7801      2601  TIP3      OH2            22.6613837182       14.2155748903        3.6979668953  W2        2601            0.0000000000
      7802      2601  TIP3      H1             23.4291037182       13.7566548903        4.0388868953  W2        2601            0.0000000000
      7803      2601  TIP3      H2             22.6400037182       13.9895548903        2.7680868953  W2        2601            0.0000000000
      7804      2602  TIP3      OH2            26.7533437182       13.7236348903      -14.9268531047  W2        2602            0.0000000000
      7805      2602  TIP3      H1             26.1094437182       13.0924948903      -14.6054831047  W2        2602            0.0000000000
      7806      2602  TIP3      H2             27.5151737182       13.1924348903      -15.1585031047  W2        2602            0.0000000000
      7807      2603  TIP3      OH2            29.2382537182       12.5956848903        2.4271168953  W2        2603            0.0000000000
      7808      2603  TIP3      H1             28.8872037182       11.7389848903        2.6701568953  W2        2603            0.0000000000
      7809      2603  TIP3      H2             29.9645737182       12.7383548903        3.0340168953  W2        2603            0.0000000000
      7810      2604  TIP3      OH2            31.3576337182       13.5406248903      -14.6930531047  W2        2604            0.0000000000
      7811      2604  TIP3      H1             31.6406737182       12.7461448903      -14.2403631047  W2        2604            0.0000000000
      7812      2604  TIP3      H2             32.0974237182       13.7737248903      -15.2539431047  W2        2604            0.0000000000
      7813      2605  TIP3      OH2            17.9709937182        9.1065448903        3.0319768953  W2        2605            0.0000000000
      7814      2605  TIP3      H1             18.1150437182        8.2046148903        2.7456468953  W2        2605            0.0000000000
      7815      2605  TIP3      H2             17.1987337182        9.3927548903        2.5442068953  W2        2605            0.0000000000
      7816      2606  TIP3      OH2            22.3123637182        9.4501148903      -14.8355631047  W2        2606            0.0000000000
      7817      2606  TIP3      H1             22.3767737182        8.6560748903      -14.3049231047  W2        2606            0.0000000000
      7818      2606  TIP3      H2             22.9652837182        9.3313948903      -15.5253631047  W2        2606            0.0000000000
      7819      2607  TIP3      OH2            24.6266037182        9.0763548903        2.4646168953  W2        2607            0.0000000000
      7820      2607  TIP3      H1             24.2979837182        9.3471648903        1.6073568953  W2        2607            0.0000000000
      7821      2607  TIP3      H2             24.7784237182        8.1353348903        2.3771168953  W2        2607            0.0000000000
      7822      2608  TIP3      OH2            27.6647037182       10.4972848903      -15.0997631047  W2        2608            0.0000000000
      7823      2608  TIP3      H1             27.3961137182       10.6774948903      -14.1988731047  W2        2608            0.0000000000
      7824      2608  TIP3      H2             27.4582637182        9.5719048903      -15.2311831047  W2        2608            0.0000000000
      7825      2609  TIP3      OH2            30.3611237182        8.9920848903       -0.1521531047  W2        2609            0.0000000000
      7826      2609  TIP3      H1             31.1066037182        9.5804548903       -0.2717531047  W2        2609            0.0000000000
      7827      2609  TIP3      H2             29.6038037182        9.5740548903       -0.0888431047  W2        2609            0.0000000000
      7828      2610  TIP3      OH2            18.8036437182        6.3068748903        2.4519068953  W2        2610            0.0000000000
      7829      2610  TIP3      H1             19.2117637182        5.4495348903        2.3309668953  W2        2610            0.0000000000
      7830      2610  TIP3      H2             18.5434037182        6.3210048903        3.3729368953  W2        2610            0.0000000000
      7831      2611  TIP3      OH2            23.4617437182        7.4227348903      -12.5297631047  W2        2611            0.0000000000
      7832      2611  TIP3      H1             23.0019437182        6.9385648903      -11.8439131047  W2        2611            0.0000000000
      7833      2611  TIP3      H2             23.7166137182        6.7542748903      -13.1657131047  W2        2611            0.0000000000
      7834      2612  TIP3      OH2            22.7506737182        5.3154448903       -0.1738031047  W2        2612            0.0000000000
      7835      2612  TIP3      H1             22.1322837182        5.9901048903        0.1066668953  W2        2612            0.0000000000
      7836      2612  TIP3      H2             23.0947937182        5.6368348903       -1.0071831047  W2        2612            0.0000000000
      7837      2613  TIP3      OH2            24.5327837182        5.6659148903      -14.2674431047  W2        2613            0.0000000000
      7838      2613  TIP3      H1             24.3522837182        5.5110348903      -15.1946131047  W2        2613            0.0000000000
      7839      2613  TIP3      H2             25.4828337182        5.7737848903      -14.2226531047  W2        2613            0.0000000000
      7840      2614  TIP3      OH2            27.7704937182        7.7869748903        3.1036768953  W2        2614            0.0000000000
      7841      2614  TIP3      H1             28.7236137182        7.8708848903        3.0762768953  W2        2614            0.0000000000
      7842      2614  TIP3      H2             27.6099537182        7.0751548903        3.7231668953  W2        2614            0.0000000000
      7843      2615  TIP3      OH2            33.9226137182        8.0203348903      -14.8216331047  W2        2615            0.0000000000
      7844      2615  TIP3      H1             33.6490937182        7.5958848903      -15.6348031047  W2        2615            0.0000000000
      7845      2615  TIP3      H2             33.9620237182        8.9517848903      -15.0385931047  W2        2615            0.0000000000
      7846      2616  TIP3      OH2            23.0900437182        2.6705248903        0.9085068953  W2        2616            0.0000000000
      7847      2616  TIP3      H1             23.2401337182        1.9416548903        0.3064768953  W2        2616            0.0000000000
      7848      2616  TIP3      H2             23.0922837182        3.4476948903        0.3497268953  W2        2616            0.0000000000
      7849      2617  TIP3      OH2            23.5026137182        1.0401048903       -1.5987531047  W2        2617            0.0000000000
      7850      2617  TIP3      H1             24.0383637182        1.4917748903       -2.2508231047  W2        2617            0.0000000000
      7851      2617  TIP3      H2             22.6505737182        0.9320848903       -2.0213431047  W2        2617            0.0000000000
      7852      2618  TIP3      OH2            25.0844537182        6.4797248903       -1.3592331047  W2        2618            0.0000000000
      7853      2618  TIP3      H1             25.8349337182        6.3234748903       -1.9324531047  W2        2618            0.0000000000
      7854      2618  TIP3      H2             24.7452837182        7.3313848903       -1.6346831047  W2        2618            0.0000000000
      7855      2619  TIP3      OH2            29.5000737182        4.2949048903        3.6692968953  W2        2619            0.0000000000
      7856      2619  TIP3      H1             29.6922037182        3.3638448903        3.5577468953  W2        2619            0.0000000000
      7857      2619  TIP3      H2             30.3577037182        4.7198548903        3.6588368953  W2        2619            0.0000000000
      7858      2620  TIP3      OH2            30.8167937182        7.0834248903        1.7465668953  W2        2620            0.0000000000
      7859      2620  TIP3      H1             30.5352937182        7.7928848903        1.1689468953  W2        2620            0.0000000000
      7860      2620  TIP3      H2             31.7592237182        7.0107248903        1.5956868953  W2        2620            0.0000000000
      7861      2621  TIP3      OH2            21.5686737182        3.8688748903        2.8200668953  W2        2621            0.0000000000
      7862      2621  TIP3      H1             20.8015737182        3.3363548903        2.6098268953  W2        2621            0.0000000000
      7863      2621  TIP3      H2             22.2475737182        3.5589148903        2.2206968953  W2        2621            0.0000000000
      7864      2622  TIP3      OH2            24.3081637182       -1.5033251097       -1.1673931047  W2        2622            0.0000000000
      7865      2622  TIP3      H1             24.2101237182       -0.5570051097       -1.2727731047  W2        2622            0.0000000000
      7866      2622  TIP3      H2             23.5657837182       -1.8759451097       -1.6430431047  W2        2622            0.0000000000
      7867      2623  TIP3      OH2            25.5722137182        2.8182148903        2.3964468953  W2        2623            0.0000000000
      7868      2623  TIP3      H1             25.3367537182        2.5988848903        3.2979368953  W2        2623            0.0000000000
      7869      2623  TIP3      H2             24.7889037182        2.6113348903        1.8866968953  W2        2623            0.0000000000
      7870      2624  TIP3      OH2            28.2878737182        1.9455648903        1.4717968953  W2        2624            0.0000000000
      7871      2624  TIP3      H1             27.3404137182        1.9775348903        1.6041268953  W2        2624            0.0000000000
      7872      2624  TIP3      H2             28.6005437182        1.3202748903        2.1256168953  W2        2624            0.0000000000
      7873      2625  TIP3      OH2            29.9220237182        0.5796748903        3.4769868953  W2        2625            0.0000000000
      7874      2625  TIP3      H1             29.8252037182       -0.3725951097        3.4711768953  W2        2625            0.0000000000
      7875      2625  TIP3      H2             29.6003337182        0.8483548903        4.3375368953  W2        2625            0.0000000000
      7876      2626  TIP3      OH2            19.7489537182        1.7892548903        2.5245368953  W2        2626            0.0000000000
      7877      2626  TIP3      H1             19.9606937182        1.0828648903        1.9142868953  W2        2626            0.0000000000
      7878      2626  TIP3      H2             19.6377037182        1.3518548903        3.3686568953  W2        2626            0.0000000000
      7879      2627  TIP3      OH2            24.5299737182       -2.2095851097        1.5038868953  W2        2627            0.0000000000
      7880      2627  TIP3      H1             25.2418137182       -2.8493651097        1.4897968953  W2        2627            0.0000000000
      7881      2627  TIP3      H2             24.4290137182       -1.9427551097        0.5901968953  W2        2627            0.0000000000
      7882      2628  TIP3      OH2            24.8837237182       -0.5267451097        3.5575168953  W2        2628            0.0000000000
      7883      2628  TIP3      H1             24.7519437182       -1.0023651097        2.7373668953  W2        2628            0.0000000000
      7884      2628  TIP3      H2             24.2844637182        0.2176148903        3.5022268953  W2        2628            0.0000000000
      7885      2629  TIP3      OH2            24.4299537182       16.3562848903      -13.2660831047  W2        2629            0.0000000000
      7886      2629  TIP3      H1             25.3630237182       16.5141548903      -13.1222431047  W2        2629            0.0000000000
      7887      2629  TIP3      H2             24.1658337182       17.0315848903      -13.8909331047  W2        2629            0.0000000000
      7888      2630  TIP3      OH2            17.9984437182       10.9926648903      -13.7832731047  W2        2630            0.0000000000
      7889      2630  TIP3      H1             18.9123637182       11.0715548903      -13.5098831047  W2        2630            0.0000000000
      7890      2630  TIP3      H2             18.0057537182       10.3056248903      -14.4497131047  W2        2630            0.0000000000
      7891      2631  TIP3      OH2            16.6475037182       16.3855148903       -8.7058831047  W2        2631            0.0000000000
      7892      2631  TIP3      H1             16.0002137182       15.9236848903       -9.2387631047  W2        2631            0.0000000000
      7893      2631  TIP3      H2             17.0019637182       15.7138448903       -8.1232631047  W2        2631            0.0000000000
      7894      2632  TIP3      OH2            17.5174237182       14.4662148903       -6.9012631047  W2        2632            0.0000000000
      7895      2632  TIP3      H1             17.1831037182       13.5859448903       -6.7292431047  W2        2632            0.0000000000
      7896      2632  TIP3      H2             17.7396637182       14.8117148903       -6.0367031047  W2        2632            0.0000000000
      7897      2633  TIP3      OH2            35.0659037182       15.2758548903       -3.9207831047  W2        2633            0.0000000000
      7898      2633  TIP3      H1             35.0445737182       15.4606948903       -2.9818431047  W2        2633            0.0000000000
      7899      2633  TIP3      H2             35.7565237182       15.8442548903       -4.2616431047  W2        2633            0.0000000000
      7900      2634  TIP3      OH2            34.6291937182       14.8429648903       -0.9988731047  W2        2634            0.0000000000
      7901      2634  TIP3      H1             34.1420637182       14.1073748903       -1.3701331047  W2        2634            0.0000000000
      7902      2634  TIP3      H2             35.1784637182       14.4493548903       -0.3209331047  W2        2634            0.0000000000
      7903      2635  TIP3      OH2            33.0799237182       10.6327748903        3.6391568953  W2        2635            0.0000000000
      7904      2635  TIP3      H1             32.2140337182       10.5277448903        4.0333868953  W2        2635            0.0000000000
      7905      2635  TIP3      H2             33.4565137182       11.3911048903        4.0856268953  W2        2635            0.0000000000
      7906      2636  TIP3      OH2            34.3808937182        8.8891448903      -10.8465931047  W2        2636            0.0000000000
      7907      2636  TIP3      H1             35.2310337182        9.3102348903      -10.7194331047  W2        2636            0.0000000000
      7908      2636  TIP3      H2             34.3864037182        8.1491548903      -10.2394531047  W2        2636            0.0000000000
      7909      2637  TIP3      OH2            34.7754537182        6.9428848903       -9.0230231047  W2        2637            0.0000000000
      7910      2637  TIP3      H1             34.0489137182        6.4631448903       -8.6252631047  W2        2637            0.0000000000
      7911      2637  TIP3      H2             35.3567837182        7.1483548903       -8.2908631047  W2        2637            0.0000000000
      7912      2638  TIP3      OH2            34.5345737182        9.7276348903       -4.0752631047  W2        2638            0.0000000000
      7913      2638  TIP3      H1             35.3679937182        9.3496348903       -4.3559031047  W2        2638            0.0000000000
      7914      2638  TIP3      H2             34.6466037182       10.6707548903       -4.1943531047  W2        2638            0.0000000000
      7915      2639  TIP3      OH2            33.0208037182       12.6053848903       -1.7684231047  W2        2639            0.0000000000
      7916      2639  TIP3      H1             32.3733337182       12.9305348903       -1.1429031047  W2        2639            0.0000000000
      7917      2639  TIP3      H2             32.5032037182       12.1651548903       -2.4425931047  W2        2639            0.0000000000
      7918      2640  TIP3      OH2            35.0437637182        6.8437348903      -12.6318931047  W2        2640            0.0000000000
      7919      2640  TIP3      H1             34.5218737182        7.2001448903      -13.3508031047  W2        2640            0.0000000000
      7920      2640  TIP3      H2             35.0106837182        7.5185148903      -11.9538031047  W2        2640            0.0000000000
      7921      2641  TIP3      OH2            33.3926637182        4.0832948903      -14.0811831047  W2        2641            0.0000000000
      7922      2641  TIP3      H1             33.4891037182        4.7499948903      -14.7612131047  W2        2641            0.0000000000
      7923      2641  TIP3      H2             33.2526237182        3.2679248903      -14.5626331047  W2        2641            0.0000000000
      7924      2642  TIP3      OH2            32.5621337182        5.4635348903       -8.4601531047  W2        2642            0.0000000000
      7925      2642  TIP3      H1             32.4120137182        4.5183948903       -8.4803731047  W2        2642            0.0000000000
      7926      2642  TIP3      H2             32.2085837182        5.7446748903       -7.6162431047  W2        2642            0.0000000000
      7927      2643  TIP3      OH2            17.5973737182        7.5417548903       -4.4497731047  W2        2643            0.0000000000
      7928      2643  TIP3      H1             17.7816637182        7.4599248903       -5.3854831047  W2        2643            0.0000000000
      7929      2643  TIP3      H2             18.4466637182        7.4174548903       -4.0261331047  W2        2643            0.0000000000
      7930      2644  TIP3      OH2            33.4184237182        7.4338648903        1.1786768953  W2        2644            0.0000000000
      7931      2644  TIP3      H1             34.0011537182        6.6990948903        1.3703968953  W2        2644            0.0000000000
      7932      2644  TIP3      H2             33.9823537182        8.2058948903        1.2252568953  W2        2644            0.0000000000
      7933      2645  TIP3      OH2            34.9151337182        5.3364448903        1.8632168953  W2        2645            0.0000000000
      7934      2645  TIP3      H1             34.0518037182        4.9576548903        1.6976868953  W2        2645            0.0000000000
      7935      2645  TIP3      H2             35.5195037182        4.5979248903        1.7887968953  W2        2645            0.0000000000
      7936      2646  TIP3      OH2            32.6400437182        1.4912748903      -14.9636331047  W2        2646            0.0000000000
      7937      2646  TIP3      H1             33.2506237182        1.1199548903      -14.3268131047  W2        2646            0.0000000000
      7938      2646  TIP3      H2             31.8031937182        1.0699648903      -14.7676331047  W2        2646            0.0000000000
      7939      2647  TIP3      OH2            32.2726137182        3.0461148903       -9.9976431047  W2        2647            0.0000000000
      7940      2647  TIP3      H1             32.5523237182        2.1391548903       -9.8734731047  W2        2647            0.0000000000
      7941      2647  TIP3      H2             33.0317837182        3.4802648903      -10.3867231047  W2        2647            0.0000000000
      7942      2648  TIP3      OH2            32.8844437182        3.6278548903       -4.5617531047  W2        2648            0.0000000000
      7943      2648  TIP3      H1             33.8172437182        3.8398448903       -4.5961531047  W2        2648            0.0000000000
      7944      2648  TIP3      H2             32.6491937182        3.7290648903       -3.6394531047  W2        2648            0.0000000000
      7945      2649  TIP3      OH2            32.9136337182        4.3643848903       -1.7858131047  W2        2649            0.0000000000
      7946      2649  TIP3      H1             32.0707637182        4.6324248903       -1.4198331047  W2        2649            0.0000000000
      7947      2649  TIP3      H2             33.3560637182        5.1865748903       -1.9967031047  W2        2649            0.0000000000
      7948      2650  TIP3      OH2            17.1948537182        2.8122548903        1.6911068953  W2        2650            0.0000000000
      7949      2650  TIP3      H1             18.1143437182        2.6900848903        1.9274168953  W2        2650            0.0000000000
      7950      2650  TIP3      H2             16.7453037182        2.0622248903        2.0804568953  W2        2650            0.0000000000
      7951      2651  TIP3      OH2            35.1967937182       -1.6555951097        3.5676868953  W2        2651            0.0000000000
      7952      2651  TIP3      H1             35.5464937182       -2.3092451097        2.9621568953  W2        2651            0.0000000000
      7953      2651  TIP3      H2             35.3437437182       -0.8181851097        3.1279468953  W2        2651            0.0000000000
      7954      2652  TIP3      OH2            32.8860937182        0.3090448903       -9.9494431047  W2        2652            0.0000000000
      7955      2652  TIP3      H1             33.0685937182       -0.1398051097       -9.1239431047  W2        2652            0.0000000000
      7956      2652  TIP3      H2             32.2863837182       -0.2755151097      -10.4129831047  W2        2652            0.0000000000
      7957      2653  TIP3      OH2            18.4161037182        1.1244148903       -5.4176031047  W2        2653            0.0000000000
      7958      2653  TIP3      H1             18.8612637182        0.3326648903       -5.1156331047  W2        2653            0.0000000000
      7959      2653  TIP3      H2             18.8824037182        1.8409348903       -4.9870431047  W2        2653            0.0000000000
      7960      2654  TIP3      OH2            16.7201337182        4.1237148903       -4.3485831047  W2        2654            0.0000000000
      7961      2654  TIP3      H1             17.2121137182        3.9027648903       -5.1393831047  W2        2654            0.0000000000
      7962      2654  TIP3      H2             17.0822237182        4.9640548903       -4.0676331047  W2        2654            0.0000000000
      7963      2655  TIP3      OH2            34.7165137182        0.4538648903        1.9168168953  W2        2655            0.0000000000
      7964      2655  TIP3      H1             33.7990837182        0.7245748903        1.8811668953  W2        2655            0.0000000000
      7965      2655  TIP3      H2             34.8394537182       -0.0812951097        1.1327868953  W2        2655            0.0000000000
      7966      2656  TIP3      OH2            34.7527137182        0.3768548903      -13.4214131047  W2        2656            0.0000000000
      7967      2656  TIP3      H1             35.1649737182       -0.3445751097      -13.8966131047  W2        2656            0.0000000000
      7968      2656  TIP3      H2             35.4343637182        1.0463148903      -13.3629831047  W2        2656            0.0000000000
      7969      2657  TIP3      OH2            17.0337837182        0.3816248903      -10.2943431047  W2        2657            0.0000000000
      7970      2657  TIP3      H1             16.1086237182        0.5902848903      -10.4237931047  W2        2657            0.0000000000
      7971      2657  TIP3      H2             17.4877737182        0.8657048903      -10.9841131047  W2        2657            0.0000000000
      7972      2658  TIP3      OH2            31.8045037182       15.3657948903       -8.3486031047  W2        2658            0.0000000000
      7973      2658  TIP3      H1             32.4567937182       15.0180048903       -8.9566931047  W2        2658            0.0000000000
      7974      2658  TIP3      H2             32.3148837182       15.8541148903       -7.7026331047  W2        2658            0.0000000000
      7975      2659  TIP3      OH2            16.9973237182       -0.8804751097       -1.9500931047  W2        2659            0.0000000000
      7976      2659  TIP3      H1             16.3323737182       -1.1264451097       -1.3070031047  W2        2659            0.0000000000
      7977      2659  TIP3      H2             16.5544537182       -0.2584351097       -2.5272931047  W2        2659            0.0000000000
      7978      2660  TIP3      OH2            19.1892537182       12.2949348903        2.1944868953  W2        2660            0.0000000000
      7979      2660  TIP3      H1             18.3685037182       12.4695848903        1.7339568953  W2        2660            0.0000000000
      7980      2660  TIP3      H2             18.9370337182       12.2214048903        3.1149268953  W2        2660            0.0000000000
      7981      2661  TIP3      OH2            22.1435437182       13.2690548903       -1.5471131047  W2        2661            0.0000000000
      7982      2661  TIP3      H1             21.7186537182       14.0789048903       -1.8296531047  W2        2661            0.0000000000
      7983      2661  TIP3      H2             23.0478237182       13.3544648903       -1.8491331047  W2        2661            0.0000000000
      7984      2662  TIP3      OH2            26.4546837182       14.6680548903        1.4122568953  W2        2662            0.0000000000
      7985      2662  TIP3      H1             26.6394337182       14.3346648903        2.2902868953  W2        2662            0.0000000000
      7986      2662  TIP3      H2             27.3011337182       14.9779148903        1.0901768953  W2        2662            0.0000000000
      7987      2663  TIP3      OH2            28.7997237182       15.9539448903        0.6563968953  W2        2663            0.0000000000
      7988      2663  TIP3      H1             29.4766137182       15.3211748903        0.4163168953  W2        2663            0.0000000000
      7989      2663  TIP3      H2             29.1216037182       16.3549948903        1.4637268953  W2        2663            0.0000000000
      7990      2664  TIP3      OH2            33.7171037182       -1.4565051097       -0.2641031047  W2        2664            0.0000000000
      7991      2664  TIP3      H1             32.9044537182       -1.1314751097       -0.6516331047  W2        2664            0.0000000000
      7992      2664  TIP3      H2             33.9499537182       -2.2166551097       -0.7971931047  W2        2664            0.0000000000
      7993      2665  TIP3      OH2            19.5452137182       16.5254448903       -1.4995831047  W2        2665            0.0000000000
      7994      2665  TIP3      H1             18.8248537182       16.9655448903       -1.9508131047  W2        2665            0.0000000000
      7995      2665  TIP3      H2             19.1796137182       16.2749148903       -0.6511831047  W2        2665            0.0000000000
      7996      2666  TIP3      OH2            22.0124737182       16.1258348903       -2.4698631047  W2        2666            0.0000000000
      7997      2666  TIP3      H1             21.1476937182       16.1976848903       -2.0658531047  W2        2666            0.0000000000
      7998      2666  TIP3      H2             21.9573737182       16.6725648903       -3.2536131047  W2        2666            0.0000000000
      7999      2667  TIP3      OH2            26.7230337182       16.0137248903       -3.2942631047  W2        2667            0.0000000000
      8000      2667  TIP3      H1             26.2664337182       16.5426948903       -3.9484231047  W2        2667            0.0000000000
      8001      2667  TIP3      H2             26.8858337182       16.6168648903       -2.5690331047  W2        2667            0.0000000000
      8002      2668  TIP3      OH2            29.0506637182       14.8916848903       -2.3492331047  W2        2668            0.0000000000
      8003      2668  TIP3      H1             28.1460337182       15.0567048903       -2.6150231047  W2        2668            0.0000000000
      8004      2668  TIP3      H2             29.4795237182       15.7449048903       -2.4148931047  W2        2668            0.0000000000
      8005      2669  TIP3      OH2            31.6548537182       16.4615948903       -2.0544531047  W2        2669            0.0000000000
      8006      2669  TIP3      H1             31.4730537182       17.3774848903       -2.2649631047  W2        2669            0.0000000000
      8007      2669  TIP3      H2             31.8316337182       16.0513048903       -2.9009931047  W2        2669            0.0000000000
      8008      2670  TIP3      OH2            18.9600237182       15.1486948903       -4.5894031047  W2        2670            0.0000000000
      8009      2670  TIP3      H1             18.9416237182       14.7232048903       -3.7321731047  W2        2670            0.0000000000
      8010      2670  TIP3      H2             19.7648137182       14.8301948903       -4.9981831047  W2        2670            0.0000000000
      8011      2671  TIP3      OH2            21.1013337182       13.8585648903       -5.9344131047  W2        2671            0.0000000000
      8012      2671  TIP3      H1             20.8824037182       12.9423048903       -5.7648131047  W2        2671            0.0000000000
      8013      2671  TIP3      H2             21.9255537182       13.9986048903       -5.4682731047  W2        2671            0.0000000000
      8014      2672  TIP3      OH2            23.6385837182       14.3284948903       -5.0856131047  W2        2672            0.0000000000
      8015      2672  TIP3      H1             23.8511537182       13.4403948903       -5.3725231047  W2        2672            0.0000000000
      8016      2672  TIP3      H2             23.7030937182       14.2942648903       -4.1312131047  W2        2672            0.0000000000
      8017      2673  TIP3      OH2            27.1469537182       -0.0074451097       -5.9412831047  W2        2673            0.0000000000
      8018      2673  TIP3      H1             26.4726337182       -0.6368851097       -5.6857031047  W2        2673            0.0000000000
      8019      2673  TIP3      H2             27.7108737182       -0.4915551097       -6.5444931047  W2        2673            0.0000000000
      8020      2674  TIP3      OH2            32.2896737182       -1.9000451097       -5.8285731047  W2        2674            0.0000000000
      8021      2674  TIP3      H1             32.8934337182       -1.3525051097       -6.3304731047  W2        2674            0.0000000000
      8022      2674  TIP3      H2             31.4198737182       -1.5810051097       -6.0691631047  W2        2674            0.0000000000
      8023      2675  TIP3      OH2            34.0167137182       -0.7611751097       -7.4954831047  W2        2675            0.0000000000
      8024      2675  TIP3      H1             34.6284637182       -1.2756051097       -8.0221231047  W2        2675            0.0000000000
      8025      2675  TIP3      H2             34.3990537182        0.1160348903       -7.4720431047  W2        2675            0.0000000000
      8026      2676  TIP3      OH2            19.4737037182       -1.3734151097       -8.1192931047  W2        2676            0.0000000000
      8027      2676  TIP3      H1             18.6966837182       -1.6079251097       -8.6267031047  W2        2676            0.0000000000
      8028      2676  TIP3      H2             20.0040637182       -2.1702051097       -8.1104931047  W2        2676            0.0000000000
      8029      2677  TIP3      OH2            18.3100437182       -1.5756051097      -12.3156831047  W2        2677            0.0000000000
      8030      2677  TIP3      H1             18.7491137182       -0.9645551097      -12.9073331047  W2        2677            0.0000000000
      8031      2677  TIP3      H2             17.6762837182       -1.0371951097      -11.8416831047  W2        2677            0.0000000000
      8032      2678  TIP3      OH2            24.0529637182       -1.4467051097       -8.3059831047  W2        2678            0.0000000000
      8033      2678  TIP3      H1             24.9273037182       -1.0582751097       -8.3355531047  W2        2678            0.0000000000
      8034      2678  TIP3      H2             23.9170437182       -1.6619251097       -7.3832631047  W2        2678            0.0000000000
      8035      2679  TIP3      OH2            29.6098037182       -1.4167251097       -6.6568131047  W2        2679            0.0000000000
      8036      2679  TIP3      H1             29.6859637182       -1.3215651097       -7.6062131047  W2        2679            0.0000000000
      8037      2679  TIP3      H2             29.3347237182       -2.3244351097       -6.5279031047  W2        2679            0.0000000000
      8038      2680  TIP3      OH2            30.9630637182       -1.3909451097      -10.9643131047  W2        2680            0.0000000000
      8039      2680  TIP3      H1             30.2601737182       -0.7760251097      -11.1741731047  W2        2680            0.0000000000
      8040      2680  TIP3      H2             30.5182037182       -2.2282751097      -10.8332231047  W2        2680            0.0000000000
      8041      2681  TIP3      OH2            18.2109937182       14.3726148903      -11.4181731047  W2        2681            0.0000000000
      8042      2681  TIP3      H1             17.5259837182       14.3345048903      -12.0856631047  W2        2681            0.0000000000
      8043      2681  TIP3      H2             18.2147137182       15.2853748903      -11.1299631047  W2        2681            0.0000000000
      8044      2682  TIP3      OH2            20.1709537182        0.3405448903      -13.8732731047  W2        2682            0.0000000000
      8045      2682  TIP3      H1             20.6622937182       -0.2892151097      -14.4007231047  W2        2682            0.0000000000
      8046      2682  TIP3      H2             20.7945837182        0.6364848903      -13.2101531047  W2        2682            0.0000000000
      8047      2683  TIP3      OH2            25.1969637182        0.6336948903      -11.4162231047  W2        2683            0.0000000000
      8048      2683  TIP3      H1             25.3750937182       -0.0129851097      -10.7333631047  W2        2683            0.0000000000
      8049      2683  TIP3      H2             25.1435837182        1.4674648903      -10.9491131047  W2        2683            0.0000000000
      8050      2684  TIP3      OH2            27.0753437182       15.5821048903      -13.0205531047  W2        2684            0.0000000000
      8051      2684  TIP3      H1             27.9413637182       15.9488448903      -13.1987331047  W2        2684            0.0000000000
      8052      2684  TIP3      H2             26.8286237182       15.1429048903      -13.8344731047  W2        2684            0.0000000000
      8053      2685  TIP3      OH2            33.7843037182       15.1451348903      -10.3414431047  W2        2685            0.0000000000
      8054      2685  TIP3      H1             33.5900137182       14.3973448903      -10.9064831047  W2        2685            0.0000000000
      8055      2685  TIP3      H2             33.7453137182       15.9031448903      -10.9246531047  W2        2685            0.0000000000
      8056      2686  TIP3      OH2            19.4315037182       -0.8592251097        1.3983268953  W2        2686            0.0000000000
      8057      2686  TIP3      H1             19.0653237182       -1.6249651097        1.8407968953  W2        2686            0.0000000000
      8058      2686  TIP3      H2             20.3443537182       -0.8302051097        1.6848368953  W2        2686            0.0000000000
      8059      2687  TIP3      OH2            21.4045837182       -1.5087851097        2.9340368953  W2        2687            0.0000000000
      8060      2687  TIP3      H1             22.3029437182       -1.7827651097        2.7493768953  W2        2687            0.0000000000
      8061      2687  TIP3      H2             21.0178937182       -2.2511851097        3.3982968953  W2        2687            0.0000000000
      8062      2688  TIP3      OH2            20.0291137182       15.2926948903      -14.3929631047  W2        2688            0.0000000000
      8063      2688  TIP3      H1             19.7615737182       15.5789848903      -13.5196531047  W2        2688            0.0000000000
      8064      2688  TIP3      H2             20.8003737182       14.7466148903      -14.2407131047  W2        2688            0.0000000000
      8065      2689  TIP3      OH2            29.8258137182       -2.1762551097        3.1163168953  W2        2689            0.0000000000
      8066      2689  TIP3      H1             29.9025337182       -2.6021851097        3.9700868953  W2        2689            0.0000000000
      8067      2689  TIP3      H2             30.7194737182       -2.1627851097        2.7736668953  W2        2689            0.0000000000
      8068      2690  TIP3      OH2            33.0019237182       13.8963748903        1.8087368953  W2        2690            0.0000000000
      8069      2690  TIP3      H1             32.2201137182       13.7101748903        1.2887968953  W2        2690            0.0000000000
      8070      2690  TIP3      H2             32.9299137182       14.8258048903        2.0259868953  W2        2690            0.0000000000
      8071      2691  TIP3      OH2            38.7095937182        6.6520948903       -3.1487331047  W2        2691            0.0000000000
      8072      2691  TIP3      H1             38.7508037182        6.0264248903       -2.4254931047  W2        2691            0.0000000000
      8073      2691  TIP3      H2             39.4123637182        7.2759548903       -2.9666931047  W2        2691            0.0000000000
      8074      2692  TIP3      OH2            39.6329037182       11.1019848903       -4.6138231047  W2        2692            0.0000000000
      8075      2692  TIP3      H1             39.2634237182       10.3000348903       -4.9833931047  W2        2692            0.0000000000
      8076      2692  TIP3      H2             40.5740137182       10.9334748903       -4.5674831047  W2        2692            0.0000000000
      8077      2693  TIP3      OH2            36.2429537182        4.7622448903       -9.2209431047  W2        2693            0.0000000000
      8078      2693  TIP3      H1             35.7952937182        5.6081148903       -9.2392931047  W2        2693            0.0000000000
      8079      2693  TIP3      H2             35.6820737182        4.1826648903       -9.7364331047  W2        2693            0.0000000000
      8080      2694  TIP3      OH2            36.9535637182        6.9242048903       -7.0951431047  W2        2694            0.0000000000
      8081      2694  TIP3      H1             37.1669137182        6.1543648903       -6.5678431047  W2        2694            0.0000000000
      8082      2694  TIP3      H2             37.6913237182        7.0138748903       -7.6983831047  W2        2694            0.0000000000
      8083      2695  TIP3      OH2            37.6462137182        4.3624848903       -5.9735231047  W2        2695            0.0000000000
      8084      2695  TIP3      H1             38.2998737182        3.8126548903       -5.5415131047  W2        2695            0.0000000000
      8085      2695  TIP3      H2             37.6701437182        4.0883848903       -6.8903231047  W2        2695            0.0000000000
      8086      2696  TIP3      OH2            39.4299837182        2.7759248903       -4.7093631047  W2        2696            0.0000000000
      8087      2696  TIP3      H1             40.0436137182        3.4086848903       -4.3361231047  W2        2696            0.0000000000
      8088      2696  TIP3      H2             39.9420537182        2.3034248903       -5.3656731047  W2        2696            0.0000000000
      8089      2697  TIP3      OH2            36.9339137182       10.1944048903      -10.8051331047  W2        2697            0.0000000000
      8090      2697  TIP3      H1             36.6620037182       10.4235048903      -11.6938431047  W2        2697            0.0000000000
      8091      2697  TIP3      H2             36.9794837182       11.0322848903      -10.3446031047  W2        2697            0.0000000000
      8092      2698  TIP3      OH2            39.3469637182        7.2327048903       -0.2951631047  W2        2698            0.0000000000
      8093      2698  TIP3      H1             39.4172837182        7.8833848903        0.4033368953  W2        2698            0.0000000000
      8094      2698  TIP3      H2             38.4561837182        7.3354548903       -0.6300731047  W2        2698            0.0000000000
      8095      2699  TIP3      OH2            36.2636337182        9.2991148903       -1.4701631047  W2        2699            0.0000000000
      8096      2699  TIP3      H1             35.7624737182        9.2710548903       -2.2851931047  W2        2699            0.0000000000
      8097      2699  TIP3      H2             36.2690037182        8.3934348903       -1.1604331047  W2        2699            0.0000000000
      8098      2700  TIP3      OH2            36.0139037182       12.0794948903       -4.5861431047  W2        2700            0.0000000000
      8099      2700  TIP3      H1             36.9599637182       11.9351948903       -4.6051931047  W2        2700            0.0000000000
      8100      2700  TIP3      H2             35.9015337182       12.8637748903       -4.0490231047  W2        2700            0.0000000000
      8101      2701  TIP3      OH2            39.2581137182       14.8804548903       -8.4406731047  W2        2701            0.0000000000
      8102      2701  TIP3      H1             39.4101537182       14.5324948903       -7.5620231047  W2        2701            0.0000000000
      8103      2701  TIP3      H2             38.4071537182       14.5241848903       -8.6959531047  W2        2701            0.0000000000
      8104      2702  TIP3      OH2            38.5126837182       10.6226548903       -0.4268831047  W2        2702            0.0000000000
      8105      2702  TIP3      H1             38.7288137182       10.2612148903        0.4326968953  W2        2702            0.0000000000
      8106      2702  TIP3      H2             37.6571537182       10.2480348903       -0.6365331047  W2        2702            0.0000000000
      8107      2703  TIP3      OH2            38.9725437182        4.3785048903       -1.4692431047  W2        2703            0.0000000000
      8108      2703  TIP3      H1             38.9344837182        4.7786648903       -0.6005331047  W2        2703            0.0000000000
      8109      2703  TIP3      H2             38.4816537182        3.5617448903       -1.3789531047  W2        2703            0.0000000000
      8110      2704  TIP3      OH2            35.5806237182        1.4946848903       -7.6187731047  W2        2704            0.0000000000
      8111      2704  TIP3      H1             36.2113937182        1.4658948903       -6.8993831047  W2        2704            0.0000000000
      8112      2704  TIP3      H2             36.0300537182        1.0695548903       -8.3491831047  W2        2704            0.0000000000
      8113      2705  TIP3      OH2            36.8548337182        2.2408848903      -12.1947331047  W2        2705            0.0000000000
      8114      2705  TIP3      H1             37.3290037182        2.8318748903      -12.7796431047  W2        2705            0.0000000000
      8115      2705  TIP3      H2             36.1374737182        2.7711748903      -11.8477231047  W2        2705            0.0000000000
      8116      2706  TIP3      OH2            38.6292737182        3.3355448903       -8.5112731047  W2        2706            0.0000000000
      8117      2706  TIP3      H1             37.7400737182        3.4350948903       -8.8513131047  W2        2706            0.0000000000
      8118      2706  TIP3      H2             38.9257637182        2.4938448903       -8.8574831047  W2        2706            0.0000000000
      8119      2707  TIP3      OH2            39.0916137182        9.0872148903        1.8109568953  W2        2707            0.0000000000
      8120      2707  TIP3      H1             39.8238537182        9.3418048903        2.3724068953  W2        2707            0.0000000000
      8121      2707  TIP3      H2             38.3114837182        9.2917548903        2.3264968953  W2        2707            0.0000000000
      8122      2708  TIP3      OH2            39.4165837182        8.3905948903       -5.5826031047  W2        2708            0.0000000000
      8123      2708  TIP3      H1             40.1613037182        8.3881648903       -6.1839531047  W2        2708            0.0000000000
      8124      2708  TIP3      H2             39.4942437182        7.5669748903       -5.1010931047  W2        2708            0.0000000000
      8125      2709  TIP3      OH2            36.4245537182        6.8512848903       -0.2677531047  W2        2709            0.0000000000
      8126      2709  TIP3      H1             36.6474137182        6.4332448903        0.5639968953  W2        2709            0.0000000000
      8127      2709  TIP3      H2             35.8225637182        6.2387848903       -0.6904731047  W2        2709            0.0000000000
      8128      2710  TIP3      OH2            37.5462937182        6.7708248903      -13.5912131047  W2        2710            0.0000000000
      8129      2710  TIP3      H1             38.1622837182        7.3975448903      -13.2117331047  W2        2710            0.0000000000
      8130      2710  TIP3      H2             36.6845537182        7.0868048903      -13.3195631047  W2        2710            0.0000000000
      8131      2711  TIP3      OH2            38.0585037182        1.6045548903       -0.7096131047  W2        2711            0.0000000000
      8132      2711  TIP3      H1             37.1657337182        1.9430948903       -0.7772131047  W2        2711            0.0000000000
      8133      2711  TIP3      H2             37.9597837182        0.7491648903       -0.2915331047  W2        2711            0.0000000000
      8134      2712  TIP3      OH2            37.7097037182       13.4089948903       -2.2746731047  W2        2712            0.0000000000
      8135      2712  TIP3      H1             37.9267337182       12.4772348903       -2.3057031047  W2        2712            0.0000000000
      8136      2712  TIP3      H2             37.9560537182       13.6834948903       -1.3913931047  W2        2712            0.0000000000
      8137      2713  TIP3      OH2            38.9613337182        8.6832048903      -12.0986531047  W2        2713            0.0000000000
      8138      2713  TIP3      H1             38.2752637182        9.0354548903      -11.5316831047  W2        2713            0.0000000000
      8139      2713  TIP3      H2             39.4841237182        9.4461648903      -12.3452231047  W2        2713            0.0000000000
      8140      2714  TIP3      OH2            39.5772237182       11.2970948903      -13.2018731047  W2        2714            0.0000000000
      8141      2714  TIP3      H1             40.1693737182       11.9965748903      -12.9256331047  W2        2714            0.0000000000
      8142      2714  TIP3      H2             40.0365237182       10.8640448903      -13.9214131047  W2        2714            0.0000000000
      8143      2715  TIP3      OH2            37.8931437182        3.9613948903      -14.0859331047  W2        2715            0.0000000000
      8144      2715  TIP3      H1             37.8484037182        4.9007048903      -13.9072331047  W2        2715            0.0000000000
      8145      2715  TIP3      H2             37.0054637182        3.7258848903      -14.3557231047  W2        2715            0.0000000000
      8146      2716  TIP3      OH2            38.7013437182       -1.2569451097       -5.4128331047  W2        2716            0.0000000000
      8147      2716  TIP3      H1             38.4723237182       -1.1976951097       -6.3403331047  W2        2716            0.0000000000
      8148      2716  TIP3      H2             38.2586837182       -2.0483951097       -5.1064231047  W2        2716            0.0000000000
      8149      2717  TIP3      OH2            37.6316737182       12.6837648903       -9.2522531047  W2        2717            0.0000000000
      8150      2717  TIP3      H1             36.7995337182       13.1560348903       -9.2251131047  W2        2717            0.0000000000
      8151      2717  TIP3      H2             38.1775037182       13.1935248903       -9.8509431047  W2        2717            0.0000000000
      8152      2718  TIP3      OH2            36.9200437182       15.2961348903        2.0775468953  W2        2718            0.0000000000
      8153      2718  TIP3      H1             37.4602637182       15.0795348903        2.8374668953  W2        2718            0.0000000000
      8154      2718  TIP3      H2             36.4388437182       14.4907348903        1.8877968953  W2        2718            0.0000000000
      8155      2719  TIP3      OH2            36.8269937182        9.1065448903        3.0319768953  W2        2719            0.0000000000
      8156      2719  TIP3      H1             36.9710437182        8.2046148903        2.7456468953  W2        2719            0.0000000000
      8157      2719  TIP3      H2             36.0547337182        9.3927548903        2.5442068953  W2        2719            0.0000000000
      8158      2720  TIP3      OH2            37.6596437182        6.3068748903        2.4519068953  W2        2720            0.0000000000
      8159      2720  TIP3      H1             38.0677637182        5.4495348903        2.3309668953  W2        2720            0.0000000000
      8160      2720  TIP3      H2             37.3994037182        6.3210048903        3.3729368953  W2        2720            0.0000000000
      8161      2721  TIP3      OH2            38.6049537182        1.7892548903        2.5245368953  W2        2721            0.0000000000
      8162      2721  TIP3      H1             38.8166937182        1.0828648903        1.9142868953  W2        2721            0.0000000000
      8163      2721  TIP3      H2             38.4937037182        1.3518548903        3.3686568953  W2        2721            0.0000000000
      8164      2722  TIP3      OH2            36.8544437182       10.9926648903      -13.7832731047  W2        2722            0.0000000000
      8165      2722  TIP3      H1             37.7683637182       11.0715548903      -13.5098831047  W2        2722            0.0000000000
      8166      2722  TIP3      H2             36.8617537182       10.3056248903      -14.4497131047  W2        2722            0.0000000000
      8167      2723  TIP3      OH2            35.5035037182       16.3855148903       -8.7058831047  W2        2723            0.0000000000
      8168      2723  TIP3      H1             34.8562137182       15.9236848903       -9.2387631047  W2        2723            0.0000000000
      8169      2723  TIP3      H2             35.8579637182       15.7138448903       -8.1232631047  W2        2723            0.0000000000
      8170      2724  TIP3      OH2            36.3734237182       14.4662148903       -6.9012631047  W2        2724            0.0000000000
      8171      2724  TIP3      H1             36.0391037182       13.5859448903       -6.7292431047  W2        2724            0.0000000000
      8172      2724  TIP3      H2             36.5956637182       14.8117148903       -6.0367031047  W2        2724            0.0000000000
      8173      2725  TIP3      OH2            36.4533737182        7.5417548903       -4.4497731047  W2        2725            0.0000000000
      8174      2725  TIP3      H1             36.6376637182        7.4599248903       -5.3854831047  W2        2725            0.0000000000
      8175      2725  TIP3      H2             37.3026637182        7.4174548903       -4.0261331047  W2        2725            0.0000000000
      8176      2726  TIP3      OH2            36.0508537182        2.8122548903        1.6911068953  W2        2726            0.0000000000
      8177      2726  TIP3      H1             36.9703437182        2.6900848903        1.9274168953  W2        2726            0.0000000000
      8178      2726  TIP3      H2             35.6013037182        2.0622248903        2.0804568953  W2        2726            0.0000000000
      8179      2727  TIP3      OH2            37.2721037182        1.1244148903       -5.4176031047  W2        2727            0.0000000000
      8180      2727  TIP3      H1             37.7172637182        0.3326648903       -5.1156331047  W2        2727            0.0000000000
      8181      2727  TIP3      H2             37.7384037182        1.8409348903       -4.9870431047  W2        2727            0.0000000000
      8182      2728  TIP3      OH2            35.5761337182        4.1237148903       -4.3485831047  W2        2728            0.0000000000
      8183      2728  TIP3      H1             36.0681137182        3.9027648903       -5.1393831047  W2        2728            0.0000000000
      8184      2728  TIP3      H2             35.9382237182        4.9640548903       -4.0676331047  W2        2728            0.0000000000
      8185      2729  TIP3      OH2            35.8897837182        0.3816248903      -10.2943431047  W2        2729            0.0000000000
      8186      2729  TIP3      H1             34.9646237182        0.5902848903      -10.4237931047  W2        2729            0.0000000000
      8187      2729  TIP3      H2             36.3437737182        0.8657048903      -10.9841131047  W2        2729            0.0000000000
      8188      2730  TIP3      OH2            35.8533237182       -0.8804751097       -1.9500931047  W2        2730            0.0000000000
      8189      2730  TIP3      H1             35.1883737182       -1.1264451097       -1.3070031047  W2        2730            0.0000000000
      8190      2730  TIP3      H2             35.4104537182       -0.2584351097       -2.5272931047  W2        2730            0.0000000000
      8191      2731  TIP3      OH2            38.0452537182       12.2949348903        2.1944868953  W2        2731            0.0000000000
      8192      2731  TIP3      H1             37.2245037182       12.4695848903        1.7339568953  W2        2731            0.0000000000
      8193      2731  TIP3      H2             37.7930337182       12.2214048903        3.1149268953  W2        2731            0.0000000000
      8194      2732  TIP3      OH2            38.4012137182       16.5254448903       -1.4995831047  W2        2732            0.0000000000
      8195      2732  TIP3      H1             37.6808537182       16.9655448903       -1.9508131047  W2        2732            0.0000000000
      8196      2732  TIP3      H2             38.0356137182       16.2749148903       -0.6511831047  W2        2732            0.0000000000
      8197      2733  TIP3      OH2            37.8160237182       15.1486948903       -4.5894031047  W2        2733            0.0000000000
      8198      2733  TIP3      H1             37.7976237182       14.7232048903       -3.7321731047  W2        2733            0.0000000000
      8199      2733  TIP3      H2             38.6208137182       14.8301948903       -4.9981831047  W2        2733            0.0000000000
      8200      2734  TIP3      OH2            38.3297037182       -1.3734151097       -8.1192931047  W2        2734            0.0000000000
      8201      2734  TIP3      H1             37.5526837182       -1.6079251097       -8.6267031047  W2        2734            0.0000000000
      8202      2734  TIP3      H2             38.8600637182       -2.1702051097       -8.1104931047  W2        2734            0.0000000000
      8203      2735  TIP3      OH2            37.1660437182       -1.5756051097      -12.3156831047  W2        2735            0.0000000000
      8204      2735  TIP3      H1             37.6051137182       -0.9645551097      -12.9073331047  W2        2735            0.0000000000
      8205      2735  TIP3      H2             36.5322837182       -1.0371951097      -11.8416831047  W2        2735            0.0000000000
      8206      2736  TIP3      OH2            37.0669937182       14.3726148903      -11.4181731047  W2        2736            0.0000000000
      8207      2736  TIP3      H1             36.3819837182       14.3345048903      -12.0856631047  W2        2736            0.0000000000
      8208      2736  TIP3      H2             37.0707137182       15.2853748903      -11.1299631047  W2        2736            0.0000000000
      8209      2737  TIP3      OH2            39.0269537182        0.3405448903      -13.8732731047  W2        2737            0.0000000000
      8210      2737  TIP3      H1             39.5182937182       -0.2892151097      -14.4007231047  W2        2737            0.0000000000
      8211      2737  TIP3      H2             39.6505837182        0.6364848903      -13.2101531047  W2        2737            0.0000000000
      8212      2738  TIP3      OH2            38.2875037182       -0.8592251097        1.3983268953  W2        2738            0.0000000000
      8213      2738  TIP3      H1             37.9213237182       -1.6249651097        1.8407968953  W2        2738            0.0000000000
      8214      2738  TIP3      H2             39.2003537182       -0.8302051097        1.6848368953  W2        2738            0.0000000000
      8215      2739  TIP3      OH2            38.8851137182       15.2926948903      -14.3929631047  W2        2739            0.0000000000
      8216      2739  TIP3      H1             38.6175737182       15.5789848903      -13.5196531047  W2        2739            0.0000000000
      8217      2739  TIP3      H2             39.6563737182       14.7466148903      -14.2407131047  W2        2739            0.0000000000
      8218      2740  TIP3      OH2           -28.0160362818       26.6388148903       -8.1605431047  W2        2740            0.0000000000
      8219      2740  TIP3      H1            -27.9269262818       27.5826348903       -8.2928331047  W2        2740            0.0000000000
      8220      2740  TIP3      H2            -28.6542762818       26.3634548903       -8.8186031047  W2        2740            0.0000000000
      8221      2741  TIP3      OH2           -29.0829062818       25.8938848903       -4.7417231047  W2        2741            0.0000000000
      8222      2741  TIP3      H1            -29.1211562818       25.2475148903       -4.0367631047  W2        2741            0.0000000000
      8223      2741  TIP3      H2            -29.4052562818       25.4273248903       -5.5128531047  W2        2741            0.0000000000
      8224      2742  TIP3      OH2           -36.7144062818       25.5080948903       -3.1487331047  W2        2742            0.0000000000
      8225      2742  TIP3      H1            -36.6731962818       24.8824248903       -2.4254931047  W2        2742            0.0000000000
      8226      2742  TIP3      H2            -36.0116362818       26.1319548903       -2.9666931047  W2        2742            0.0000000000
      8227      2743  TIP3      OH2           -25.3768862818       28.8329248903       -6.4402131047  W2        2743            0.0000000000
      8228      2743  TIP3      H1            -25.8176162818       28.1125248903       -5.9896531047  W2        2743            0.0000000000
      8229      2743  TIP3      H2            -25.3899162818       29.5536448903       -5.8104431047  W2        2743            0.0000000000
      8230      2744  TIP3      OH2           -35.7910962818       29.9579848903       -4.6138231047  W2        2744            0.0000000000
      8231      2744  TIP3      H1            -36.1605762818       29.1560348903       -4.9833931047  W2        2744            0.0000000000
      8232      2744  TIP3      H2            -34.8499862818       29.7894748903       -4.5674831047  W2        2744            0.0000000000
      8233      2745  TIP3      OH2           -39.1810462818       23.6182448903       -9.2209431047  W2        2745            0.0000000000
      8234      2745  TIP3      H1            -39.6287062818       24.4641148903       -9.2392931047  W2        2745            0.0000000000
      8235      2745  TIP3      H2            -39.7419262818       23.0386648903       -9.7364331047  W2        2745            0.0000000000
      8236      2746  TIP3      OH2           -38.4704362818       25.7802048903       -7.0951431047  W2        2746            0.0000000000
      8237      2746  TIP3      H1            -38.2570862818       25.0103648903       -6.5678431047  W2        2746            0.0000000000
      8238      2746  TIP3      H2            -37.7326762818       25.8698748903       -7.6983831047  W2        2746            0.0000000000
      8239      2747  TIP3      OH2           -28.2653362818       33.9370948903       -6.2281731047  W2        2747            0.0000000000
      8240      2747  TIP3      H1            -27.6456962818       33.2605648903       -6.5012531047  W2        2747            0.0000000000
      8241      2747  TIP3      H2            -28.4735962818       33.7191748903       -5.3196831047  W2        2747            0.0000000000
      8242      2748  TIP3      OH2           -30.6934662818       28.3260248903       -4.3356231047  W2        2748            0.0000000000
      8243      2748  TIP3      H1            -30.3896762818       27.6401648903       -4.9302131047  W2        2748            0.0000000000
      8244      2748  TIP3      H2            -29.9720662818       28.4448948903       -3.7178231047  W2        2748            0.0000000000
      8245      2749  TIP3      OH2           -22.0304862818       19.9275548903       -3.4750031047  W2        2749            0.0000000000
      8246      2749  TIP3      H1            -21.9812662818       20.5376748903       -2.7390931047  W2        2749            0.0000000000
      8247      2749  TIP3      H2            -21.6049762818       20.3886448903       -4.1978931047  W2        2749            0.0000000000
      8248      2750  TIP3      OH2           -27.5527662818       22.7202648903       -4.0081431047  W2        2750            0.0000000000
      8249      2750  TIP3      H1            -27.4101762818       21.7739648903       -3.9879831047  W2        2750            0.0000000000
      8250      2750  TIP3      H2            -27.6588662818       22.9272448903       -4.9366531047  W2        2750            0.0000000000
      8251      2751  TIP3      OH2           -34.3979362818       20.8219048903       -6.7356631047  W2        2751            0.0000000000
      8252      2751  TIP3      H1            -34.3548262818       21.6817548903       -7.1540331047  W2        2751            0.0000000000
      8253      2751  TIP3      H2            -34.8555262818       20.2693748903       -7.3693431047  W2        2751            0.0000000000
      8254      2752  TIP3      OH2           -26.6756662818       20.9524648903       -8.3348331047  W2        2752            0.0000000000
      8255      2752  TIP3      H1            -26.0292362818       20.6237848903       -7.7100731047  W2        2752            0.0000000000
      8256      2752  TIP3      H2            -26.1657262818       21.4703648903       -8.9576931047  W2        2752            0.0000000000
      8257      2753  TIP3      OH2           -37.7777862818       23.2184848903       -5.9735231047  W2        2753            0.0000000000
      8258      2753  TIP3      H1            -37.1241262818       22.6686548903       -5.5415131047  W2        2753            0.0000000000
      8259      2753  TIP3      H2            -37.7538562818       22.9443848903       -6.8903231047  W2        2753            0.0000000000
      8260      2754  TIP3      OH2           -32.6213362818       24.7686148903       -6.7583731047  W2        2754            0.0000000000
      8261      2754  TIP3      H1            -32.0052362818       24.2421548903       -6.2489731047  W2        2754            0.0000000000
      8262      2754  TIP3      H2            -33.2074562818       24.1284848903       -7.1620131047  W2        2754            0.0000000000
      8263      2755  TIP3      OH2           -21.6390262818       21.4054748903       -1.2390231047  W2        2755            0.0000000000
      8264      2755  TIP3      H1            -22.3275662818       22.0635448903       -1.3343631047  W2        2755            0.0000000000
      8265      2755  TIP3      H2            -21.6235662818       21.2082648903       -0.3024831047  W2        2755            0.0000000000
      8266      2756  TIP3      OH2           -35.5877462818       19.7397448903       -2.6615831047  W2        2756            0.0000000000
      8267      2756  TIP3      H1            -35.8065762818       20.2698048903       -3.4279831047  W2        2756            0.0000000000
      8268      2756  TIP3      H2            -36.2556562818       19.9662948903       -2.0144431047  W2        2756            0.0000000000
      8269      2757  TIP3      OH2           -28.2187662818       29.2398548903       -9.1176731047  W2        2757            0.0000000000
      8270      2757  TIP3      H1            -28.5142562818       28.9170848903       -9.9689831047  W2        2757            0.0000000000
      8271      2757  TIP3      H2            -28.5429862818       30.1395248903       -9.0764131047  W2        2757            0.0000000000
      8272      2758  TIP3      OH2           -33.0186062818       27.4153148903       -2.3742131047  W2        2758            0.0000000000
      8273      2758  TIP3      H1            -33.7586962818       28.0134648903       -2.2706931047  W2        2758            0.0000000000
      8274      2758  TIP3      H2            -32.3046562818       27.9692748903       -2.6898531047  W2        2758            0.0000000000
      8275      2759  TIP3      OH2           -24.9118262818       20.2433948903       -6.3542431047  W2        2759            0.0000000000
      8276      2759  TIP3      H1            -25.1270262818       19.4777348903       -5.8216431047  W2        2759            0.0000000000
      8277      2759  TIP3      H2            -24.2560862818       20.7158548903       -5.8413931047  W2        2759            0.0000000000
      8278      2760  TIP3      OH2           -35.9940162818       21.6319248903       -4.7093631047  W2        2760            0.0000000000
      8279      2760  TIP3      H1            -35.3803862818       22.2646848903       -4.3361231047  W2        2760            0.0000000000
      8280      2760  TIP3      H2            -35.4819462818       21.1594248903       -5.3656731047  W2        2760            0.0000000000
      8281      2761  TIP3      OH2           -34.6111762818       29.3796148903       -1.5870631047  W2        2761            0.0000000000
      8282      2761  TIP3      H1            -34.6164162818       30.2589648903       -1.9651331047  W2        2761            0.0000000000
      8283      2761  TIP3      H2            -35.4647662818       29.2960248903       -1.1620731047  W2        2761            0.0000000000
      8284      2762  TIP3      OH2           -38.4900862818       29.0504048903      -10.8051331047  W2        2762            0.0000000000
      8285      2762  TIP3      H1            -38.7619962818       29.2795048903      -11.6938431047  W2        2762            0.0000000000
      8286      2762  TIP3      H2            -38.4445162818       29.8882848903      -10.3446031047  W2        2762            0.0000000000
      8287      2763  TIP3      OH2           -24.8651162818       30.6719948903       -4.0922831047  W2        2763            0.0000000000
      8288      2763  TIP3      H1            -25.8067462818       30.7303848903       -3.9305931047  W2        2763            0.0000000000
      8289      2763  TIP3      H2            -24.5885062818       31.5780448903       -4.2293131047  W2        2763            0.0000000000
      8290      2764  TIP3      OH2           -24.5644162818       18.9585248903       -2.6748931047  W2        2764            0.0000000000
      8291      2764  TIP3      H1            -25.3004962818       19.5692348903       -2.7127631047  W2        2764            0.0000000000
      8292      2764  TIP3      H2            -23.8810162818       19.3734248903       -3.2012531047  W2        2764            0.0000000000
      8293      2765  TIP3      OH2           -31.5612762818       17.0452548903       -5.2090931047  W2        2765            0.0000000000
      8294      2765  TIP3      H1            -31.6788562818       16.0968548903       -5.2632631047  W2        2765            0.0000000000
      8295      2765  TIP3      H2            -32.4162662818       17.3778648903       -4.9359831047  W2        2765            0.0000000000
      8296      2766  TIP3      OH2           -26.6129962818       32.4533448903       -7.4671231047  W2        2766            0.0000000000
      8297      2766  TIP3      H1            -26.1877662818       31.7461348903       -7.9521631047  W2        2766            0.0000000000
      8298      2766  TIP3      H2            -26.2959962818       33.2546148903       -7.8839031047  W2        2766            0.0000000000
      8299      2767  TIP3      OH2           -25.4533462818       30.3541948903       -8.9584631047  W2        2767            0.0000000000
      8300      2767  TIP3      H1            -25.7108662818       29.6642048903       -9.5698731047  W2        2767            0.0000000000
      8301      2767  TIP3      H2            -25.3822662818       29.9113148903       -8.1128731047  W2        2767            0.0000000000
      8302      2768  TIP3      OH2           -23.7673262818       28.9208648903       -0.4811131047  W2        2768            0.0000000000
      8303      2768  TIP3      H1            -23.6276962818       28.3291148903       -1.2204131047  W2        2768            0.0000000000
      8304      2768  TIP3      H2            -23.6000462818       29.7934548903       -0.8372331047  W2        2768            0.0000000000
      8305      2769  TIP3      OH2           -29.2947862818       25.8828148903      -10.7085131047  W2        2769            0.0000000000
      8306      2769  TIP3      H1            -30.0062362818       26.4177848903      -11.0604631047  W2        2769            0.0000000000
      8307      2769  TIP3      H2            -28.6038262818       25.9380248903      -11.3686231047  W2        2769            0.0000000000
      8308      2770  TIP3      OH2           -29.2408662818       24.3402448903      -13.6700131047  W2        2770            0.0000000000
      8309      2770  TIP3      H1            -28.5398762818       24.3629348903      -13.0186131047  W2        2770            0.0000000000
      8310      2770  TIP3      H2            -28.9385762818       23.7122148903      -14.3260831047  W2        2770            0.0000000000
      8311      2771  TIP3      OH2           -21.9253962818       25.2606648903       -2.4150731047  W2        2771            0.0000000000
      8312      2771  TIP3      H1            -22.5779862818       25.9552248903       -2.3259831047  W2        2771            0.0000000000
      8313      2771  TIP3      H2            -21.4603662818       25.4707548903       -3.2249131047  W2        2771            0.0000000000
      8314      2772  TIP3      OH2           -25.8890162818       26.0921448903       -9.7569231047  W2        2772            0.0000000000
      8315      2772  TIP3      H1            -26.6209162818       26.3205148903       -9.1838631047  W2        2772            0.0000000000
      8316      2772  TIP3      H2            -25.4417962818       25.3784148903       -9.3021731047  W2        2772            0.0000000000
      8317      2773  TIP3      OH2           -25.9916662818       24.2664048903       -0.6892231047  W2        2773            0.0000000000
      8318      2773  TIP3      H1            -25.9117562818       25.0298448903       -0.1173731047  W2        2773            0.0000000000
      8319      2773  TIP3      H2            -26.5928962818       24.5456448903       -1.3797131047  W2        2773            0.0000000000
      8320      2774  TIP3      OH2           -34.2436462818       26.7227648903       -7.8744231047  W2        2774            0.0000000000
      8321      2774  TIP3      H1            -34.5741262818       26.3521048903       -8.6927231047  W2        2774            0.0000000000
      8322      2774  TIP3      H2            -33.6552362818       26.0521648903       -7.5275931047  W2        2774            0.0000000000
      8323      2775  TIP3      OH2           -32.8768962818       30.1508248903       -5.1932031047  W2        2775            0.0000000000
      8324      2775  TIP3      H1            -32.9717662818       29.5721348903       -5.9497431047  W2        2775            0.0000000000
      8325      2775  TIP3      H2            -32.1475362818       29.7793948903       -4.6969231047  W2        2775            0.0000000000
      8326      2776  TIP3      OH2           -33.8770962818       25.4913248903       -4.2409231047  W2        2776            0.0000000000
      8327      2776  TIP3      H1            -33.3118462818       25.6127448903       -5.0038031047  W2        2776            0.0000000000
      8328      2776  TIP3      H2            -33.5582062818       26.1288248903       -3.6020731047  W2        2776            0.0000000000
      8329      2777  TIP3      OH2           -27.5678762818       30.9945148903       -3.5068731047  W2        2777            0.0000000000
      8330      2777  TIP3      H1            -27.8082162818       31.6568248903       -2.8589531047  W2        2777            0.0000000000
      8331      2777  TIP3      H2            -27.7660562818       30.1600348903       -3.0819131047  W2        2777            0.0000000000
      8332      2778  TIP3      OH2           -32.9970262818       29.8905948903        0.4762668953  W2        2778            0.0000000000
      8333      2778  TIP3      H1            -33.3082762818       30.6729148903        0.9315868953  W2        2778            0.0000000000
      8334      2778  TIP3      H2            -33.6470062818       29.7375048903       -0.2095331047  W2        2778            0.0000000000
      8335      2779  TIP3      OH2           -27.0180662818       25.2544348903      -12.0718031047  W2        2779            0.0000000000
      8336      2779  TIP3      H1            -26.4385162818       25.4044648903      -11.3249131047  W2        2779            0.0000000000
      8337      2779  TIP3      H2            -26.6040662818       25.7251748903      -12.7951631047  W2        2779            0.0000000000
      8338      2780  TIP3      OH2           -36.0770362818       26.0887048903       -0.2951631047  W2        2780            0.0000000000
      8339      2780  TIP3      H1            -36.0067162818       26.7393848903        0.4033368953  W2        2780            0.0000000000
      8340      2780  TIP3      H2            -36.9678162818       26.1914548903       -0.6300731047  W2        2780            0.0000000000
      8341      2781  TIP3      OH2           -29.2915762818       31.9912848903       -8.6364931047  W2        2781            0.0000000000
      8342      2781  TIP3      H1            -28.8178162818       32.2869148903       -7.8590731047  W2        2781            0.0000000000
      8343      2781  TIP3      H2            -29.8546462818       32.7294448903       -8.8695331047  W2        2781            0.0000000000
      8344      2782  TIP3      OH2           -34.7574362818       31.9620948903        1.2396468953  W2        2782            0.0000000000
      8345      2782  TIP3      H1            -34.7499062818       31.8260648903        0.2921968953  W2        2782            0.0000000000
      8346      2782  TIP3      H2            -35.6733962818       31.8449048903        1.4916468953  W2        2782            0.0000000000
      8347      2783  TIP3      OH2           -23.3192262818       17.0044748903      -12.2588331047  W2        2783            0.0000000000
      8348      2783  TIP3      H1            -24.2191562818       17.1433748903      -11.9637731047  W2        2783            0.0000000000
      8349      2783  TIP3      H2            -23.0673862818       17.8359348903      -12.6606631047  W2        2783            0.0000000000
      8350      2784  TIP3      OH2           -35.2533762818       25.7921948903      -10.2851431047  W2        2784            0.0000000000
      8351      2784  TIP3      H1            -35.5452462818       26.5603648903      -10.7760131047  W2        2784            0.0000000000
      8352      2784  TIP3      H2            -35.9278562818       25.1328148903      -10.4480031047  W2        2784            0.0000000000
      8353      2785  TIP3      OH2           -22.1300862818       31.3707148903      -13.8824431047  W2        2785            0.0000000000
      8354      2785  TIP3      H1            -22.0567362818       32.3097348903      -13.7119131047  W2        2785            0.0000000000
      8355      2785  TIP3      H2            -21.2245762818       31.0655748903      -13.9387131047  W2        2785            0.0000000000
      8356      2786  TIP3      OH2           -39.1603662818       28.1551148903       -1.4701631047  W2        2786            0.0000000000
      8357      2786  TIP3      H1            -39.6615262818       28.1270548903       -2.2851931047  W2        2786            0.0000000000
      8358      2786  TIP3      H2            -39.1549962818       27.2494348903       -1.1604331047  W2        2786            0.0000000000
      8359      2787  TIP3      OH2           -39.4100962818       30.9354948903       -4.5861431047  W2        2787            0.0000000000
      8360      2787  TIP3      H1            -38.4640362818       30.7911948903       -4.6051931047  W2        2787            0.0000000000
      8361      2787  TIP3      H2            -39.5224662818       31.7197748903       -4.0490231047  W2        2787            0.0000000000
      8362      2788  TIP3      OH2           -21.2122462818       31.6014648903        1.0962268953  W2        2788            0.0000000000
      8363      2788  TIP3      H1            -21.2615662818       30.6462748903        1.0589868953  W2        2788            0.0000000000
      8364      2788  TIP3      H2            -22.0390162818       31.8689948903        1.4976068953  W2        2788            0.0000000000
      8365      2789  TIP3      OH2           -30.2338462818       31.1753848903       -0.0276331047  W2        2789            0.0000000000
      8366      2789  TIP3      H1            -30.1463862818       32.0018448903        0.4472768953  W2        2789            0.0000000000
      8367      2789  TIP3      H2            -31.0973362818       30.8457648903        0.2212968953  W2        2789            0.0000000000
      8368      2790  TIP3      OH2           -29.8192662818       34.9477548903      -10.2215731047  W2        2790            0.0000000000
      8369      2790  TIP3      H1            -29.8946662818       34.8264748903      -11.1680531047  W2        2790            0.0000000000
      8370      2790  TIP3      H2            -29.7863962818       35.8970248903      -10.1031131047  W2        2790            0.0000000000
      8371      2791  TIP3      OH2           -36.1658862818       33.7364548903       -8.4406731047  W2        2791            0.0000000000
      8372      2791  TIP3      H1            -36.0138462818       33.3884948903       -7.5620231047  W2        2791            0.0000000000
      8373      2791  TIP3      H2            -37.0168462818       33.3801848903       -8.6959531047  W2        2791            0.0000000000
      8374      2792  TIP3      OH2           -26.7176662818       34.1017748903      -13.2193331047  W2        2792            0.0000000000
      8375      2792  TIP3      H1            -26.3428262818       33.3573848903      -13.6900731047  W2        2792            0.0000000000
      8376      2792  TIP3      H2            -26.7132962818       33.8318348903      -12.3010031047  W2        2792            0.0000000000
      8377      2793  TIP3      OH2           -27.0488562818       34.0274848903      -10.4701131047  W2        2793            0.0000000000
      8378      2793  TIP3      H1            -27.9838762818       34.1276748903      -10.2914131047  W2        2793            0.0000000000
      8379      2793  TIP3      H2            -26.7686662818       33.3180848903       -9.8917931047  W2        2793            0.0000000000
      8380      2794  TIP3      OH2           -24.0602662818       23.0947148903        1.5764468953  W2        2794            0.0000000000
      8381      2794  TIP3      H1            -24.4675862818       23.5752748903        0.8557768953  W2        2794            0.0000000000
      8382      2794  TIP3      H2            -24.0196962818       22.1893148903        1.2685268953  W2        2794            0.0000000000
      8383      2795  TIP3      OH2           -36.9113162818       29.4786548903       -0.4268831047  W2        2795            0.0000000000
      8384      2795  TIP3      H1            -36.6951862818       29.1172148903        0.4326968953  W2        2795            0.0000000000
      8385      2795  TIP3      H2            -37.7668462818       29.1040348903       -0.6365331047  W2        2795            0.0000000000
      8386      2796  TIP3      OH2           -34.2925162818       17.9487048903       -4.4314631047  W2        2796            0.0000000000
      8387      2796  TIP3      H1            -35.1541462818       17.8615248903       -4.8391731047  W2        2796            0.0000000000
      8388      2796  TIP3      H2            -34.3149462818       18.8047148903       -4.0037031047  W2        2796            0.0000000000
      8389      2797  TIP3      OH2           -29.6297362818       17.6707448903       -1.0567631047  W2        2797            0.0000000000
      8390      2797  TIP3      H1            -29.2094262818       17.2554548903       -0.3037031047  W2        2797            0.0000000000
      8391      2797  TIP3      H2            -30.5627762818       17.4920748903       -0.9395631047  W2        2797            0.0000000000
      8392      2798  TIP3      OH2           -26.3032462818       21.4262648903       -0.2033131047  W2        2798            0.0000000000
      8393      2798  TIP3      H1            -26.8172962818       21.3004848903        0.5942868953  W2        2798            0.0000000000
      8394      2798  TIP3      H2            -26.4587762818       22.3385748903       -0.4476931047  W2        2798            0.0000000000
      8395      2799  TIP3      OH2           -25.5407562818       26.2872648903      -14.4420131047  W2        2799            0.0000000000
      8396      2799  TIP3      H1            -25.4986762818       26.0646548903      -15.3720131047  W2        2799            0.0000000000
      8397      2799  TIP3      H2            -24.6915462818       26.6859748903      -14.2520231047  W2        2799            0.0000000000
      8398      2800  TIP3      OH2           -29.9680062818       20.1630848903      -13.7716831047  W2        2800            0.0000000000
      8399      2800  TIP3      H1            -30.2215262818       20.1822448903      -12.8488731047  W2        2800            0.0000000000
      8400      2800  TIP3      H2            -30.2247962818       19.2916248903      -14.0730631047  W2        2800            0.0000000000
      8401      2801  TIP3      OH2           -34.2015062818       22.9141548903       -3.3364431047  W2        2801            0.0000000000
      8402      2801  TIP3      H1            -34.8432962818       22.8738848903       -2.6274331047  W2        2801            0.0000000000
      8403      2801  TIP3      H2            -34.1643062818       23.8406248903       -3.5741431047  W2        2801            0.0000000000
      8404      2802  TIP3      OH2           -34.2045962818       23.1351648903       -8.4244431047  W2        2802            0.0000000000
      8405      2802  TIP3      H1            -35.0973062818       22.7947748903       -8.4830631047  W2        2802            0.0000000000
      8406      2802  TIP3      H2            -33.7539362818       22.7582548903       -9.1801231047  W2        2802            0.0000000000
      8407      2803  TIP3      OH2           -28.6690462818       23.5511948903       -9.6073631047  W2        2803            0.0000000000
      8408      2803  TIP3      H1            -29.0780162818       24.3660548903       -9.8988831047  W2        2803            0.0000000000
      8409      2803  TIP3      H2            -27.9484262818       23.4112048903      -10.2216531047  W2        2803            0.0000000000
      8410      2804  TIP3      OH2           -29.5668862818       23.7268348903        1.8807068953  W2        2804            0.0000000000
      8411      2804  TIP3      H1            -30.1295062818       23.0219948903        2.2014868953  W2        2804            0.0000000000
      8412      2804  TIP3      H2            -28.7405462818       23.6060248903        2.3484668953  W2        2804            0.0000000000
      8413      2805  TIP3      OH2           -27.6642762818       22.9972348903       -6.7933931047  W2        2805            0.0000000000
      8414      2805  TIP3      H1            -27.8598262818       23.6029148903       -7.5083331047  W2        2805            0.0000000000
      8415      2805  TIP3      H2            -27.4830162818       22.1637548903       -7.2277631047  W2        2805            0.0000000000
      8416      2806  TIP3      OH2           -36.4514562818       23.2345048903       -1.4692431047  W2        2806            0.0000000000
      8417      2806  TIP3      H1            -36.4895162818       23.6346648903       -0.6005331047  W2        2806            0.0000000000
      8418      2806  TIP3      H2            -36.9423462818       22.4177448903       -1.3789531047  W2        2806            0.0000000000
      8419      2807  TIP3      OH2           -33.0857162818       20.6087348903      -14.6706431047  W2        2807            0.0000000000
      8420      2807  TIP3      H1            -33.5166462818       20.1637448903      -13.9409031047  W2        2807            0.0000000000
      8421      2807  TIP3      H2            -33.8038462818       20.9803648903      -15.1828931047  W2        2807            0.0000000000
      8422      2808  TIP3      OH2           -39.8433762818       20.3506848903       -7.6187731047  W2        2808            0.0000000000
      8423      2808  TIP3      H1            -39.2126062818       20.3218948903       -6.8993831047  W2        2808            0.0000000000
      8424      2808  TIP3      H2            -39.3939462818       19.9255548903       -8.3491831047  W2        2808            0.0000000000
      8425      2809  TIP3      OH2           -38.5691662818       21.0968848903      -12.1947331047  W2        2809            0.0000000000
      8426      2809  TIP3      H1            -38.0949962818       21.6878748903      -12.7796431047  W2        2809            0.0000000000
      8427      2809  TIP3      H2            -39.2865262818       21.6271748903      -11.8477231047  W2        2809            0.0000000000
      8428      2810  TIP3      OH2           -28.4003562818       24.6353648903       -2.1221531047  W2        2810            0.0000000000
      8429      2810  TIP3      H1            -28.0768762818       24.0043348903       -2.7651031047  W2        2810            0.0000000000
      8430      2810  TIP3      H2            -28.8404262818       24.1005848903       -1.4614131047  W2        2810            0.0000000000
      8431      2811  TIP3      OH2           -31.6230662818       20.5629148903       -7.3380331047  W2        2811            0.0000000000
      8432      2811  TIP3      H1            -32.5339562818       20.6195948903       -7.0494331047  W2        2811            0.0000000000
      8433      2811  TIP3      H2            -31.1177762818       20.5024648903       -6.5273131047  W2        2811            0.0000000000
      8434      2812  TIP3      OH2           -36.7947262818       22.1915448903       -8.5112731047  W2        2812            0.0000000000
      8435      2812  TIP3      H1            -37.6839262818       22.2910948903       -8.8513131047  W2        2812            0.0000000000
      8436      2812  TIP3      H2            -36.4982362818       21.3498448903       -8.8574831047  W2        2812            0.0000000000
      8437      2813  TIP3      OH2           -33.1415462818       22.1918048903      -10.8548131047  W2        2813            0.0000000000
      8438      2813  TIP3      H1            -32.2099962818       22.3208048903      -10.6765031047  W2        2813            0.0000000000
      8439      2813  TIP3      H2            -33.3565162818       22.8612348903      -11.5043431047  W2        2813            0.0000000000
      8440      2814  TIP3      OH2           -27.2178762818       19.7975448903       -4.0738531047  W2        2814            0.0000000000
      8441      2814  TIP3      H1            -27.8947162818       19.9288548903       -3.4098831047  W2        2814            0.0000000000
      8442      2814  TIP3      H2            -27.7033862818       19.6424948903       -4.8840831047  W2        2814            0.0000000000
      8443      2815  TIP3      OH2           -34.4675262818       23.3860248903      -13.2882031047  W2        2815            0.0000000000
      8444      2815  TIP3      H1            -35.0100162818       23.0064048903      -13.9794431047  W2        2815            0.0000000000
      8445      2815  TIP3      H2            -33.6340362818       23.5804948903      -13.7167931047  W2        2815            0.0000000000
      8446      2816  TIP3      OH2           -23.9303662818       35.4690848903        2.2029068953  W2        2816            0.0000000000
      8447      2816  TIP3      H1            -23.7304962818       35.8932748903        1.3684368953  W2        2816            0.0000000000
      8448      2816  TIP3      H2            -23.2749962818       35.8129048903        2.8099468953  W2        2816            0.0000000000
      8449      2817  TIP3      OH2           -36.3323862818       27.9432148903        1.8109568953  W2        2817            0.0000000000
      8450      2817  TIP3      H1            -35.6001462818       28.1978048903        2.3724068953  W2        2817            0.0000000000
      8451      2817  TIP3      H2            -37.1125162818       28.1477548903        2.3264968953  W2        2817            0.0000000000
      8452      2818  TIP3      OH2           -30.3030962818       23.3502148903       -5.4510731047  W2        2818            0.0000000000
      8453      2818  TIP3      H1            -29.7387562818       22.8038748903       -5.9981131047  W2        2818            0.0000000000
      8454      2818  TIP3      H2            -30.4507562818       22.8284048903       -4.6623131047  W2        2818            0.0000000000
      8455      2819  TIP3      OH2           -35.3011262818       19.4868248903       -9.0325931047  W2        2819            0.0000000000
      8456      2819  TIP3      H1            -35.6181762818       18.5843548903       -9.0680531047  W2        2819            0.0000000000
      8457      2819  TIP3      H2            -34.5197162818       19.4885648903       -9.5854331047  W2        2819            0.0000000000
      8458      2820  TIP3      OH2           -31.6765062818       21.7388248903       -3.0370331047  W2        2820            0.0000000000
      8459      2820  TIP3      H1            -32.5119762818       22.1927748903       -2.9267931047  W2        2820            0.0000000000
      8460      2820  TIP3      H2            -31.1524462818       22.0146748903       -2.2850431047  W2        2820            0.0000000000
      8461      2821  TIP3      OH2           -31.1322462818       27.9515948903      -11.3523931047  W2        2821            0.0000000000
      8462      2821  TIP3      H1            -31.8771462818       27.4441248903      -11.6746031047  W2        2821            0.0000000000
      8463      2821  TIP3      H2            -31.2665262818       28.0003948903      -10.4059131047  W2        2821            0.0000000000
      8464      2822  TIP3      OH2           -23.9823562818       27.0844148903       -2.5656331047  W2        2822            0.0000000000
      8465      2822  TIP3      H1            -23.3404762818       27.5410448903       -3.1094131047  W2        2822            0.0000000000
      8466      2822  TIP3      H2            -24.8126662818       27.1976548903       -3.0282231047  W2        2822            0.0000000000
      8467      2823  TIP3      OH2           -27.2345662818       20.7655848903      -13.1531331047  W2        2823            0.0000000000
      8468      2823  TIP3      H1            -28.1731462818       20.8771448903      -13.3042531047  W2        2823            0.0000000000
      8469      2823  TIP3      H2            -26.9373562818       21.6222748903      -12.8465631047  W2        2823            0.0000000000
      8470      2824  TIP3      OH2           -29.6130362818       28.1359248903       -0.1154831047  W2        2824            0.0000000000
      8471      2824  TIP3      H1            -29.9584262818       27.7541648903        0.6914768953  W2        2824            0.0000000000
      8472      2824  TIP3      H2            -29.8130262818       29.0692848903       -0.0441931047  W2        2824            0.0000000000
      8473      2825  TIP3      OH2           -26.5162162818       22.6328548903      -11.4923931047  W2        2825            0.0000000000
      8474      2825  TIP3      H1            -25.6243162818       22.4953548903      -11.1732731047  W2        2825            0.0000000000
      8475      2825  TIP3      H2            -26.4598562818       23.4234648903      -12.0290431047  W2        2825            0.0000000000
      8476      2826  TIP3      OH2           -36.0074162818       27.2465948903       -5.5826031047  W2        2826            0.0000000000
      8477      2826  TIP3      H1            -35.2626962818       27.2441648903       -6.1839531047  W2        2826            0.0000000000
      8478      2826  TIP3      H2            -35.9297562818       26.4229748903       -5.1010931047  W2        2826            0.0000000000
      8479      2827  TIP3      OH2           -29.0068362818       29.4100248903      -12.3269331047  W2        2827            0.0000000000
      8480      2827  TIP3      H1            -29.3019962818       30.2368148903      -11.9454531047  W2        2827            0.0000000000
      8481      2827  TIP3      H2            -29.7098362818       28.7907148903      -12.1307931047  W2        2827            0.0000000000
      8482      2828  TIP3      OH2           -38.9994462818       25.7072848903       -0.2677531047  W2        2828            0.0000000000
      8483      2828  TIP3      H1            -38.7765862818       25.2892448903        0.5639968953  W2        2828            0.0000000000
      8484      2828  TIP3      H2            -39.6014362818       25.0947848903       -0.6904731047  W2        2828            0.0000000000
      8485      2829  TIP3      OH2           -31.9829562818       25.2242748903        1.9452168953  W2        2829            0.0000000000
      8486      2829  TIP3      H1            -32.2788762818       25.0585748903        1.0501268953  W2        2829            0.0000000000
      8487      2829  TIP3      H2            -31.0514362818       25.0043048903        1.9346068953  W2        2829            0.0000000000
      8488      2830  TIP3      OH2           -27.3626762818       30.5974748903       -0.1649831047  W2        2830            0.0000000000
      8489      2830  TIP3      H1            -28.2632462818       30.7807348903       -0.4325931047  W2        2830            0.0000000000
      8490      2830  TIP3      H2            -27.3285662818       30.8564048903        0.7558968953  W2        2830            0.0000000000
      8491      2831  TIP3      OH2           -21.6313462818       22.8422648903      -11.7977231047  W2        2831            0.0000000000
      8492      2831  TIP3      H1            -22.1857162818       22.4460648903      -12.4699731047  W2        2831            0.0000000000
      8493      2831  TIP3      H2            -21.5309862818       23.7527848903      -12.0753931047  W2        2831            0.0000000000
      8494      2832  TIP3      OH2           -21.6681462818       28.6424348903        1.0394268953  W2        2832            0.0000000000
      8495      2832  TIP3      H1            -22.5192962818       28.8808148903        0.6720668953  W2        2832            0.0000000000
      8496      2832  TIP3      H2            -21.0778062818       28.6257548903        0.2861368953  W2        2832            0.0000000000
      8497      2833  TIP3      OH2           -23.3361762818       31.6283048903      -11.3325131047  W2        2833            0.0000000000
      8498      2833  TIP3      H1            -23.7090662818       30.8026848903      -11.0234531047  W2        2833            0.0000000000
      8499      2833  TIP3      H2            -23.0588262818       31.4452448903      -12.2301731047  W2        2833            0.0000000000
      8500      2834  TIP3      OH2           -26.1757862818       26.4362548903       -4.3113231047  W2        2834            0.0000000000
      8501      2834  TIP3      H1            -27.1040962818       26.2044448903       -4.3383931047  W2        2834            0.0000000000
      8502      2834  TIP3      H2            -25.7246762818       25.6592348903       -4.6414431047  W2        2834            0.0000000000
      8503      2835  TIP3      OH2           -33.6324762818       30.7644148903       -8.1784531047  W2        2835            0.0000000000
      8504      2835  TIP3      H1            -33.1052562818       31.5378548903       -8.3785731047  W2        2835            0.0000000000
      8505      2835  TIP3      H2            -34.5126262818       30.9893348903       -8.4800531047  W2        2835            0.0000000000
      8506      2836  TIP3      OH2           -37.8777062818       25.6268248903      -13.5912131047  W2        2836            0.0000000000
      8507      2836  TIP3      H1            -37.2617162818       26.2535448903      -13.2117331047  W2        2836            0.0000000000
      8508      2836  TIP3      H2            -38.7394462818       25.9428048903      -13.3195631047  W2        2836            0.0000000000
      8509      2837  TIP3      OH2           -32.2052462818       28.4274048903       -8.6020231047  W2        2837            0.0000000000
      8510      2837  TIP3      H1            -32.4462462818       29.3528448903       -8.5604931047  W2        2837            0.0000000000
      8511      2837  TIP3      H2            -32.9458862818       27.9685348903       -8.2056331047  W2        2837            0.0000000000
      8512      2838  TIP3      OH2           -31.6905862818       32.5767648903       -2.2869131047  W2        2838            0.0000000000
      8513      2838  TIP3      H1            -31.3281162818       33.4313248903       -2.5204731047  W2        2838            0.0000000000
      8514      2838  TIP3      H2            -31.1590662818       32.2849248903       -1.5462831047  W2        2838            0.0000000000
      8515      2839  TIP3      OH2           -33.5221662818       33.4491648903       -9.0568031047  W2        2839            0.0000000000
      8516      2839  TIP3      H1            -34.4721162818       33.5549048903       -9.0054731047  W2        2839            0.0000000000
      8517      2839  TIP3      H2            -33.1703562818       34.2699048903       -8.7120531047  W2        2839            0.0000000000
      8518      2840  TIP3      OH2           -28.1465062818       28.6758348903       -2.5863531047  W2        2840            0.0000000000
      8519      2840  TIP3      H1            -28.5723762818       28.4480048903       -1.7599531047  W2        2840            0.0000000000
      8520      2840  TIP3      H2            -27.5659262818       27.9370148903       -2.7688231047  W2        2840            0.0000000000
      8521      2841  TIP3      OH2           -25.9436162818       29.6048848903      -13.5124531047  W2        2841            0.0000000000
      8522      2841  TIP3      H1            -25.5903062818       29.2248648903      -12.7081031047  W2        2841            0.0000000000
      8523      2841  TIP3      H2            -26.8922662818       29.5113648903      -13.4255231047  W2        2841            0.0000000000
      8524      2842  TIP3      OH2           -25.4880862818       33.2277848903       -0.1168731047  W2        2842            0.0000000000
      8525      2842  TIP3      H1            -26.0897662818       32.6720748903       -0.6122431047  W2        2842            0.0000000000
      8526      2842  TIP3      H2            -25.2067162818       33.8947648903       -0.7431331047  W2        2842            0.0000000000
      8527      2843  TIP3      OH2           -21.4401762818       34.0841348903      -13.3114331047  W2        2843            0.0000000000
      8528      2843  TIP3      H1            -20.6963862818       34.6701848903      -13.4512731047  W2        2843            0.0000000000
      8529      2843  TIP3      H2            -22.1343662818       34.6527148903      -12.9781931047  W2        2843            0.0000000000
      8530      2844  TIP3      OH2           -37.3654962818       20.4605548903       -0.7096131047  W2        2844            0.0000000000
      8531      2844  TIP3      H1            -38.2582662818       20.7990948903       -0.7772131047  W2        2844            0.0000000000
      8532      2844  TIP3      H2            -37.4642162818       19.6051648903       -0.2915331047  W2        2844            0.0000000000
      8533      2845  TIP3      OH2           -25.0776862818       28.2770848903      -11.2856631047  W2        2845            0.0000000000
      8534      2845  TIP3      H1            -25.3549262818       27.5490148903      -10.7295531047  W2        2845            0.0000000000
      8535      2845  TIP3      H2            -24.1503862818       28.3962848903      -11.0804031047  W2        2845            0.0000000000
      8536      2846  TIP3      OH2           -37.7142962818       32.2649948903       -2.2746731047  W2        2846            0.0000000000
      8537      2846  TIP3      H1            -37.4972662818       31.3332348903       -2.3057031047  W2        2846            0.0000000000
      8538      2846  TIP3      H2            -37.4679462818       32.5394948903       -1.3913931047  W2        2846            0.0000000000
      8539      2847  TIP3      OH2           -31.8528362818       30.7164948903      -15.0654531047  W2        2847            0.0000000000
      8540      2847  TIP3      H1            -31.6138562818       29.9683048903      -15.6125631047  W2        2847            0.0000000000
      8541      2847  TIP3      H2            -32.1217062818       30.3286648903      -14.2326731047  W2        2847            0.0000000000
      8542      2848  TIP3      OH2           -32.9157762818       30.2868748903      -12.6091931047  W2        2848            0.0000000000
      8543      2848  TIP3      H1            -32.7689762818       29.7668548903      -11.8191031047  W2        2848            0.0000000000
      8544      2848  TIP3      H2            -32.9186062818       31.1936348903      -12.3026031047  W2        2848            0.0000000000
      8545      2849  TIP3      OH2           -36.4626662818       27.5392048903      -12.0986531047  W2        2849            0.0000000000
      8546      2849  TIP3      H1            -37.1487362818       27.8914548903      -11.5316831047  W2        2849            0.0000000000
      8547      2849  TIP3      H2            -35.9398762818       28.3021648903      -12.3452231047  W2        2849            0.0000000000
      8548      2850  TIP3      OH2           -28.6311562818       20.2015848903       -1.8197531047  W2        2850            0.0000000000
      8549      2850  TIP3      H1            -27.9323662818       20.2754548903       -1.1697831047  W2        2850            0.0000000000
      8550      2850  TIP3      H2            -29.0120162818       19.3370848903       -1.6654631047  W2        2850            0.0000000000
      8551      2851  TIP3      OH2           -27.8466662818       19.8537548903      -10.7225231047  W2        2851            0.0000000000
      8552      2851  TIP3      H1            -27.6268362818       20.3252948903      -11.5259831047  W2        2851            0.0000000000
      8553      2851  TIP3      H2            -27.2882662818       20.2480148903      -10.0524631047  W2        2851            0.0000000000
      8554      2852  TIP3      OH2           -30.1780562818       31.9842348903      -11.8597731047  W2        2852            0.0000000000
      8555      2852  TIP3      H1            -30.9944462818       32.4812048903      -11.8073431047  W2        2852            0.0000000000
      8556      2852  TIP3      H2            -29.6484262818       32.4595848903      -12.4998931047  W2        2852            0.0000000000
      8557      2853  TIP3      OH2           -30.6466762818       21.5816348903       -9.8876831047  W2        2853            0.0000000000
      8558      2853  TIP3      H1            -29.8344162818       22.0859548903       -9.8415131047  W2        2853            0.0000000000
      8559      2853  TIP3      H2            -30.8913762818       21.4366048903       -8.9737231047  W2        2853            0.0000000000
      8560      2854  TIP3      OH2           -30.1110362818       22.5679048903       -0.7030231047  W2        2854            0.0000000000
      8561      2854  TIP3      H1            -29.9920062818       23.1414448903        0.0540168953  W2        2854            0.0000000000
      8562      2854  TIP3      H2            -29.4555762818       21.8798448903       -0.5882431047  W2        2854            0.0000000000
      8563      2855  TIP3      OH2           -29.7630062818       18.6629348903       -8.9495731047  W2        2855            0.0000000000
      8564      2855  TIP3      H1            -30.1096562818       19.2799948903       -8.3051431047  W2        2855            0.0000000000
      8565      2855  TIP3      H2            -29.1043162818       19.1635048903       -9.4310231047  W2        2855            0.0000000000
      8566      2856  TIP3      OH2           -32.8397462818       33.0279548903      -11.8780831047  W2        2856            0.0000000000
      8567      2856  TIP3      H1            -32.6788762818       33.8277048903      -12.3788231047  W2        2856            0.0000000000
      8568      2856  TIP3      H2            -33.0369662818       33.3345548903      -10.9930231047  W2        2856            0.0000000000
      8569      2857  TIP3      OH2           -34.1053062818       19.7258748903      -12.2623231047  W2        2857            0.0000000000
      8570      2857  TIP3      H1            -34.1888262818       20.6141848903      -11.9156831047  W2        2857            0.0000000000
      8571      2857  TIP3      H2            -33.2152762818       19.4605448903      -12.0306431047  W2        2857            0.0000000000
      8572      2858  TIP3      OH2           -23.9064562818       20.4749348903        0.1319468953  W2        2858            0.0000000000
      8573      2858  TIP3      H1            -24.8228762818       20.7371048903        0.0443168953  W2        2858            0.0000000000
      8574      2858  TIP3      H2            -23.5709562818       20.4718348903       -0.7645231047  W2        2858            0.0000000000
      8575      2859  TIP3      OH2           -25.3043562818       24.2250348903       -5.7723231047  W2        2859            0.0000000000
      8576      2859  TIP3      H1            -26.1019162818       23.8100548903       -6.1008231047  W2        2859            0.0000000000
      8577      2859  TIP3      H2            -24.8592462818       23.5344048903       -5.2812731047  W2        2859            0.0000000000
      8578      2860  TIP3      OH2           -35.8467762818       30.1530948903      -13.2018731047  W2        2860            0.0000000000
      8579      2860  TIP3      H1            -35.2546262818       30.8525748903      -12.9256331047  W2        2860            0.0000000000
      8580      2860  TIP3      H2            -35.3874762818       29.7200448903      -13.9214131047  W2        2860            0.0000000000
      8581      2861  TIP3      OH2           -37.5308562818       22.8173948903      -14.0859331047  W2        2861            0.0000000000
      8582      2861  TIP3      H1            -37.5755962818       23.7567048903      -13.9072331047  W2        2861            0.0000000000
      8583      2861  TIP3      H2            -38.4185362818       22.5818848903      -14.3557231047  W2        2861            0.0000000000
      8584      2862  TIP3      OH2           -24.2178962818       33.4812848903       -4.1499731047  W2        2862            0.0000000000
      8585      2862  TIP3      H1            -24.3734662818       34.1597248903       -4.8070431047  W2        2862            0.0000000000
      8586      2862  TIP3      H2            -23.2852562818       33.5532148903       -3.9469131047  W2        2862            0.0000000000
      8587      2863  TIP3      OH2           -36.7226562818       17.5990548903       -5.4128331047  W2        2863            0.0000000000
      8588      2863  TIP3      H1            -36.9516762818       17.6583048903       -6.3403331047  W2        2863            0.0000000000
      8589      2863  TIP3      H2            -37.1653162818       16.8076048903       -5.1064231047  W2        2863            0.0000000000
      8590      2864  TIP3      OH2           -37.7923262818       31.5397648903       -9.2522531047  W2        2864            0.0000000000
      8591      2864  TIP3      H1            -38.6244662818       32.0120348903       -9.2251131047  W2        2864            0.0000000000
      8592      2864  TIP3      H2            -37.2464962818       32.0495248903       -9.8509431047  W2        2864            0.0000000000
      8593      2865  TIP3      OH2           -38.5039562818       34.1521348903        2.0775468953  W2        2865            0.0000000000
      8594      2865  TIP3      H1            -37.9637362818       33.9355348903        2.8374668953  W2        2865            0.0000000000
      8595      2865  TIP3      H2            -38.9851562818       33.3467348903        1.8877968953  W2        2865            0.0000000000
      8596      2866  TIP3      OH2           -33.9066162818       33.0715748903        3.6979668953  W2        2866            0.0000000000
      8597      2866  TIP3      H1            -33.1388962818       32.6126548903        4.0388868953  W2        2866            0.0000000000
      8598      2866  TIP3      H2            -33.9279962818       32.8455548903        2.7680868953  W2        2866            0.0000000000
      8599      2867  TIP3      OH2           -29.8146562818       32.5796348903      -14.9268531047  W2        2867            0.0000000000
      8600      2867  TIP3      H1            -30.4585562818       31.9484948903      -14.6054831047  W2        2867            0.0000000000
      8601      2867  TIP3      H2            -29.0528262818       32.0484348903      -15.1585031047  W2        2867            0.0000000000
      8602      2868  TIP3      OH2           -27.3297462818       31.4516848903        2.4271168953  W2        2868            0.0000000000
      8603      2868  TIP3      H1            -27.6807962818       30.5949848903        2.6701568953  W2        2868            0.0000000000
      8604      2868  TIP3      H2            -26.6034262818       31.5943548903        3.0340168953  W2        2868            0.0000000000
      8605      2869  TIP3      OH2           -25.2103662818       32.3966248903      -14.6930531047  W2        2869            0.0000000000
      8606      2869  TIP3      H1            -24.9273262818       31.6021448903      -14.2403631047  W2        2869            0.0000000000
      8607      2869  TIP3      H2            -24.4705762818       32.6297248903      -15.2539431047  W2        2869            0.0000000000
      8608      2870  TIP3      OH2           -38.5970062818       27.9625448903        3.0319768953  W2        2870            0.0000000000
      8609      2870  TIP3      H1            -38.4529562818       27.0606148903        2.7456468953  W2        2870            0.0000000000
      8610      2870  TIP3      H2            -39.3692662818       28.2487548903        2.5442068953  W2        2870            0.0000000000
      8611      2871  TIP3      OH2           -34.2556362818       28.3061148903      -14.8355631047  W2        2871            0.0000000000
      8612      2871  TIP3      H1            -34.1912262818       27.5120748903      -14.3049231047  W2        2871            0.0000000000
      8613      2871  TIP3      H2            -33.6027162818       28.1873948903      -15.5253631047  W2        2871            0.0000000000
      8614      2872  TIP3      OH2           -31.9413962818       27.9323548903        2.4646168953  W2        2872            0.0000000000
      8615      2872  TIP3      H1            -32.2700162818       28.2031648903        1.6073568953  W2        2872            0.0000000000
      8616      2872  TIP3      H2            -31.7895762818       26.9913348903        2.3771168953  W2        2872            0.0000000000
      8617      2873  TIP3      OH2           -28.9032962818       29.3532848903      -15.0997631047  W2        2873            0.0000000000
      8618      2873  TIP3      H1            -29.1718862818       29.5334948903      -14.1988731047  W2        2873            0.0000000000
      8619      2873  TIP3      H2            -29.1097362818       28.4279048903      -15.2311831047  W2        2873            0.0000000000
      8620      2874  TIP3      OH2           -26.2068762818       27.8480848903       -0.1521531047  W2        2874            0.0000000000
      8621      2874  TIP3      H1            -25.4613962818       28.4364548903       -0.2717531047  W2        2874            0.0000000000
      8622      2874  TIP3      H2            -26.9641962818       28.4300548903       -0.0888431047  W2        2874            0.0000000000
      8623      2875  TIP3      OH2           -37.7643562818       25.1628748903        2.4519068953  W2        2875            0.0000000000
      8624      2875  TIP3      H1            -37.3562362818       24.3055348903        2.3309668953  W2        2875            0.0000000000
      8625      2875  TIP3      H2            -38.0245962818       25.1770048903        3.3729368953  W2        2875            0.0000000000
      8626      2876  TIP3      OH2           -33.1062562818       26.2787348903      -12.5297631047  W2        2876            0.0000000000
      8627      2876  TIP3      H1            -33.5660562818       25.7945648903      -11.8439131047  W2        2876            0.0000000000
      8628      2876  TIP3      H2            -32.8513862818       25.6102748903      -13.1657131047  W2        2876            0.0000000000
      8629      2877  TIP3      OH2           -33.8173262818       24.1714448903       -0.1738031047  W2        2877            0.0000000000
      8630      2877  TIP3      H1            -34.4357162818       24.8461048903        0.1066668953  W2        2877            0.0000000000
      8631      2877  TIP3      H2            -33.4732062818       24.4928348903       -1.0071831047  W2        2877            0.0000000000
      8632      2878  TIP3      OH2           -32.0352162818       24.5219148903      -14.2674431047  W2        2878            0.0000000000
      8633      2878  TIP3      H1            -32.2157162818       24.3670348903      -15.1946131047  W2        2878            0.0000000000
      8634      2878  TIP3      H2            -31.0851662818       24.6297848903      -14.2226531047  W2        2878            0.0000000000
      8635      2879  TIP3      OH2           -28.7975062818       26.6429748903        3.1036768953  W2        2879            0.0000000000
      8636      2879  TIP3      H1            -27.8443862818       26.7268848903        3.0762768953  W2        2879            0.0000000000
      8637      2879  TIP3      H2            -28.9580462818       25.9311548903        3.7231668953  W2        2879            0.0000000000
      8638      2880  TIP3      OH2           -22.6453862818       26.8763348903      -14.8216331047  W2        2880            0.0000000000
      8639      2880  TIP3      H1            -22.9189062818       26.4518848903      -15.6348031047  W2        2880            0.0000000000
      8640      2880  TIP3      H2            -22.6059762818       27.8077848903      -15.0385931047  W2        2880            0.0000000000
      8641      2881  TIP3      OH2           -33.4779562818       21.5265248903        0.9085068953  W2        2881            0.0000000000
      8642      2881  TIP3      H1            -33.3278662818       20.7976548903        0.3064768953  W2        2881            0.0000000000
      8643      2881  TIP3      H2            -33.4757162818       22.3036948903        0.3497268953  W2        2881            0.0000000000
      8644      2882  TIP3      OH2           -33.0653862818       19.8961048903       -1.5987531047  W2        2882            0.0000000000
      8645      2882  TIP3      H1            -32.5296362818       20.3477748903       -2.2508231047  W2        2882            0.0000000000
      8646      2882  TIP3      H2            -33.9174262818       19.7880848903       -2.0213431047  W2        2882            0.0000000000
      8647      2883  TIP3      OH2           -31.4835462818       25.3357248903       -1.3592331047  W2        2883            0.0000000000
      8648      2883  TIP3      H1            -30.7330662818       25.1794748903       -1.9324531047  W2        2883            0.0000000000
      8649      2883  TIP3      H2            -31.8227162818       26.1873848903       -1.6346831047  W2        2883            0.0000000000
      8650      2884  TIP3      OH2           -27.0679262818       23.1509048903        3.6692968953  W2        2884            0.0000000000
      8651      2884  TIP3      H1            -26.8757962818       22.2198448903        3.5577468953  W2        2884            0.0000000000
      8652      2884  TIP3      H2            -26.2102962818       23.5758548903        3.6588368953  W2        2884            0.0000000000
      8653      2885  TIP3      OH2           -25.7512062818       25.9394248903        1.7465668953  W2        2885            0.0000000000
      8654      2885  TIP3      H1            -26.0327062818       26.6488848903        1.1689468953  W2        2885            0.0000000000
      8655      2885  TIP3      H2            -24.8087762818       25.8667248903        1.5956868953  W2        2885            0.0000000000
      8656      2886  TIP3      OH2           -34.9993262818       22.7248748903        2.8200668953  W2        2886            0.0000000000
      8657      2886  TIP3      H1            -35.7664262818       22.1923548903        2.6098268953  W2        2886            0.0000000000
      8658      2886  TIP3      H2            -34.3204262818       22.4149148903        2.2206968953  W2        2886            0.0000000000
      8659      2887  TIP3      OH2           -32.2598362818       17.3526748903       -1.1673931047  W2        2887            0.0000000000
      8660      2887  TIP3      H1            -32.3578762818       18.2989948903       -1.2727731047  W2        2887            0.0000000000
      8661      2887  TIP3      H2            -33.0022162818       16.9800548903       -1.6430431047  W2        2887            0.0000000000
      8662      2888  TIP3      OH2           -30.9957862818       21.6742148903        2.3964468953  W2        2888            0.0000000000
      8663      2888  TIP3      H1            -31.2312462818       21.4548848903        3.2979368953  W2        2888            0.0000000000
      8664      2888  TIP3      H2            -31.7790962818       21.4673348903        1.8866968953  W2        2888            0.0000000000
      8665      2889  TIP3      OH2           -28.2801262818       20.8015648903        1.4717968953  W2        2889            0.0000000000
      8666      2889  TIP3      H1            -29.2275862818       20.8335348903        1.6041268953  W2        2889            0.0000000000
      8667      2889  TIP3      H2            -27.9674562818       20.1762748903        2.1256168953  W2        2889            0.0000000000
      8668      2890  TIP3      OH2           -26.6459762818       19.4356748903        3.4769868953  W2        2890            0.0000000000
      8669      2890  TIP3      H1            -26.7427962818       18.4834048903        3.4711768953  W2        2890            0.0000000000
      8670      2890  TIP3      H2            -26.9676662818       19.7043548903        4.3375368953  W2        2890            0.0000000000
      8671      2891  TIP3      OH2           -36.8190462818       20.6452548903        2.5245368953  W2        2891            0.0000000000
      8672      2891  TIP3      H1            -36.6073062818       19.9388648903        1.9142868953  W2        2891            0.0000000000
      8673      2891  TIP3      H2            -36.9302962818       20.2078548903        3.3686568953  W2        2891            0.0000000000
      8674      2892  TIP3      OH2           -32.0380262818       16.6464148903        1.5038868953  W2        2892            0.0000000000
      8675      2892  TIP3      H1            -31.3261862818       16.0066348903        1.4897968953  W2        2892            0.0000000000
      8676      2892  TIP3      H2            -32.1389862818       16.9132448903        0.5901968953  W2        2892            0.0000000000
      8677      2893  TIP3      OH2           -31.6842762818       18.3292548903        3.5575168953  W2        2893            0.0000000000
      8678      2893  TIP3      H1            -31.8160562818       17.8536348903        2.7373668953  W2        2893            0.0000000000
      8679      2893  TIP3      H2            -32.2835362818       19.0736148903        3.5022268953  W2        2893            0.0000000000
      8680      2894  TIP3      OH2           -32.1380462818       35.2122848903      -13.2660831047  W2        2894            0.0000000000
      8681      2894  TIP3      H1            -31.2049762818       35.3701548903      -13.1222431047  W2        2894            0.0000000000
      8682      2894  TIP3      H2            -32.4021662818       35.8875848903      -13.8909331047  W2        2894            0.0000000000
      8683      2895  TIP3      OH2           -38.5695562818       29.8486648903      -13.7832731047  W2        2895            0.0000000000
      8684      2895  TIP3      H1            -37.6556362818       29.9275548903      -13.5098831047  W2        2895            0.0000000000
      8685      2895  TIP3      H2            -38.5622462818       29.1616248903      -14.4497131047  W2        2895            0.0000000000
      8686      2896  TIP3      OH2           -39.9204962818       35.2415148903       -8.7058831047  W2        2896            0.0000000000
      8687      2896  TIP3      H1            -40.5677862818       34.7796848903       -9.2387631047  W2        2896            0.0000000000
      8688      2896  TIP3      H2            -39.5660362818       34.5698448903       -8.1232631047  W2        2896            0.0000000000
      8689      2897  TIP3      OH2           -39.0505762818       33.3222148903       -6.9012631047  W2        2897            0.0000000000
      8690      2897  TIP3      H1            -39.3848962818       32.4419448903       -6.7292431047  W2        2897            0.0000000000
      8691      2897  TIP3      H2            -38.8283362818       33.6677148903       -6.0367031047  W2        2897            0.0000000000
      8692      2898  TIP3      OH2           -21.5020962818       34.1318548903       -3.9207831047  W2        2898            0.0000000000
      8693      2898  TIP3      H1            -21.5234262818       34.3166948903       -2.9818431047  W2        2898            0.0000000000
      8694      2898  TIP3      H2            -20.8114762818       34.7002548903       -4.2616431047  W2        2898            0.0000000000
      8695      2899  TIP3      OH2           -21.9388062818       33.6989648903       -0.9988731047  W2        2899            0.0000000000
      8696      2899  TIP3      H1            -22.4259362818       32.9633748903       -1.3701331047  W2        2899            0.0000000000
      8697      2899  TIP3      H2            -21.3895362818       33.3053548903       -0.3209331047  W2        2899            0.0000000000
      8698      2900  TIP3      OH2           -23.4880762818       29.4887748903        3.6391568953  W2        2900            0.0000000000
      8699      2900  TIP3      H1            -24.3539662818       29.3837448903        4.0333868953  W2        2900            0.0000000000
      8700      2900  TIP3      H2            -23.1114862818       30.2471048903        4.0856268953  W2        2900            0.0000000000
      8701      2901  TIP3      OH2           -22.1871062818       27.7451448903      -10.8465931047  W2        2901            0.0000000000
      8702      2901  TIP3      H1            -21.3369662818       28.1662348903      -10.7194331047  W2        2901            0.0000000000
      8703      2901  TIP3      H2            -22.1815962818       27.0051548903      -10.2394531047  W2        2901            0.0000000000
      8704      2902  TIP3      OH2           -21.7925462818       25.7988848903       -9.0230231047  W2        2902            0.0000000000
      8705      2902  TIP3      H1            -22.5190862818       25.3191448903       -8.6252631047  W2        2902            0.0000000000
      8706      2902  TIP3      H2            -21.2112162818       26.0043548903       -8.2908631047  W2        2902            0.0000000000
      8707      2903  TIP3      OH2           -22.0334262818       28.5836348903       -4.0752631047  W2        2903            0.0000000000
      8708      2903  TIP3      H1            -21.2000062818       28.2056348903       -4.3559031047  W2        2903            0.0000000000
      8709      2903  TIP3      H2            -21.9213962818       29.5267548903       -4.1943531047  W2        2903            0.0000000000
      8710      2904  TIP3      OH2           -23.5471962818       31.4613848903       -1.7684231047  W2        2904            0.0000000000
      8711      2904  TIP3      H1            -24.1946662818       31.7865348903       -1.1429031047  W2        2904            0.0000000000
      8712      2904  TIP3      H2            -24.0647962818       31.0211548903       -2.4425931047  W2        2904            0.0000000000
      8713      2905  TIP3      OH2           -21.5242362818       25.6997348903      -12.6318931047  W2        2905            0.0000000000
      8714      2905  TIP3      H1            -22.0461262818       26.0561448903      -13.3508031047  W2        2905            0.0000000000
      8715      2905  TIP3      H2            -21.5573162818       26.3745148903      -11.9538031047  W2        2905            0.0000000000
      8716      2906  TIP3      OH2           -23.1753362818       22.9392948903      -14.0811831047  W2        2906            0.0000000000
      8717      2906  TIP3      H1            -23.0788962818       23.6059948903      -14.7612131047  W2        2906            0.0000000000
      8718      2906  TIP3      H2            -23.3153762818       22.1239248903      -14.5626331047  W2        2906            0.0000000000
      8719      2907  TIP3      OH2           -24.0058662818       24.3195348903       -8.4601531047  W2        2907            0.0000000000
      8720      2907  TIP3      H1            -24.1559862818       23.3743948903       -8.4803731047  W2        2907            0.0000000000
      8721      2907  TIP3      H2            -24.3594162818       24.6006748903       -7.6162431047  W2        2907            0.0000000000
      8722      2908  TIP3      OH2           -38.9706262818       26.3977548903       -4.4497731047  W2        2908            0.0000000000
      8723      2908  TIP3      H1            -38.7863362818       26.3159248903       -5.3854831047  W2        2908            0.0000000000
      8724      2908  TIP3      H2            -38.1213362818       26.2734548903       -4.0261331047  W2        2908            0.0000000000
      8725      2909  TIP3      OH2           -23.1495762818       26.2898648903        1.1786768953  W2        2909            0.0000000000
      8726      2909  TIP3      H1            -22.5668462818       25.5550948903        1.3703968953  W2        2909            0.0000000000
      8727      2909  TIP3      H2            -22.5856462818       27.0618948903        1.2252568953  W2        2909            0.0000000000
      8728      2910  TIP3      OH2           -21.6528662818       24.1924448903        1.8632168953  W2        2910            0.0000000000
      8729      2910  TIP3      H1            -22.5161962818       23.8136548903        1.6976868953  W2        2910            0.0000000000
      8730      2910  TIP3      H2            -21.0484962818       23.4539248903        1.7887968953  W2        2910            0.0000000000
      8731      2911  TIP3      OH2           -23.9279562818       20.3472748903      -14.9636331047  W2        2911            0.0000000000
      8732      2911  TIP3      H1            -23.3173762818       19.9759548903      -14.3268131047  W2        2911            0.0000000000
      8733      2911  TIP3      H2            -24.7648062818       19.9259648903      -14.7676331047  W2        2911            0.0000000000
      8734      2912  TIP3      OH2           -24.2953862818       21.9021148903       -9.9976431047  W2        2912            0.0000000000
      8735      2912  TIP3      H1            -24.0156762818       20.9951548903       -9.8734731047  W2        2912            0.0000000000
      8736      2912  TIP3      H2            -23.5362162818       22.3362648903      -10.3867231047  W2        2912            0.0000000000
      8737      2913  TIP3      OH2           -23.6835562818       22.4838548903       -4.5617531047  W2        2913            0.0000000000
      8738      2913  TIP3      H1            -22.7507562818       22.6958448903       -4.5961531047  W2        2913            0.0000000000
      8739      2913  TIP3      H2            -23.9188062818       22.5850648903       -3.6394531047  W2        2913            0.0000000000
      8740      2914  TIP3      OH2           -23.6543662818       23.2203848903       -1.7858131047  W2        2914            0.0000000000
      8741      2914  TIP3      H1            -24.4972362818       23.4884248903       -1.4198331047  W2        2914            0.0000000000
      8742      2914  TIP3      H2            -23.2119362818       24.0425748903       -1.9967031047  W2        2914            0.0000000000
      8743      2915  TIP3      OH2           -39.3731462818       21.6682548903        1.6911068953  W2        2915            0.0000000000
      8744      2915  TIP3      H1            -38.4536562818       21.5460848903        1.9274168953  W2        2915            0.0000000000
      8745      2915  TIP3      H2            -39.8226962818       20.9182248903        2.0804568953  W2        2915            0.0000000000
      8746      2916  TIP3      OH2           -21.3712062818       17.2004048903        3.5676868953  W2        2916            0.0000000000
      8747      2916  TIP3      H1            -21.0215062818       16.5467548903        2.9621568953  W2        2916            0.0000000000
      8748      2916  TIP3      H2            -21.2242562818       18.0378148903        3.1279468953  W2        2916            0.0000000000
      8749      2917  TIP3      OH2           -23.6819062818       19.1650448903       -9.9494431047  W2        2917            0.0000000000
      8750      2917  TIP3      H1            -23.4994062818       18.7161948903       -9.1239431047  W2        2917            0.0000000000
      8751      2917  TIP3      H2            -24.2816162818       18.5804848903      -10.4129831047  W2        2917            0.0000000000
      8752      2918  TIP3      OH2           -38.1518962818       19.9804148903       -5.4176031047  W2        2918            0.0000000000
      8753      2918  TIP3      H1            -37.7067362818       19.1886648903       -5.1156331047  W2        2918            0.0000000000
      8754      2918  TIP3      H2            -37.6855962818       20.6969348903       -4.9870431047  W2        2918            0.0000000000
      8755      2919  TIP3      OH2           -39.8478662818       22.9797148903       -4.3485831047  W2        2919            0.0000000000
      8756      2919  TIP3      H1            -39.3558862818       22.7587648903       -5.1393831047  W2        2919            0.0000000000
      8757      2919  TIP3      H2            -39.4857762818       23.8200548903       -4.0676331047  W2        2919            0.0000000000
      8758      2920  TIP3      OH2           -21.8514862818       19.3098648903        1.9168168953  W2        2920            0.0000000000
      8759      2920  TIP3      H1            -22.7689162818       19.5805748903        1.8811668953  W2        2920            0.0000000000
      8760      2920  TIP3      H2            -21.7285462818       18.7747048903        1.1327868953  W2        2920            0.0000000000
      8761      2921  TIP3      OH2           -21.8152862818       19.2328548903      -13.4214131047  W2        2921            0.0000000000
      8762      2921  TIP3      H1            -21.4030262818       18.5114248903      -13.8966131047  W2        2921            0.0000000000
      8763      2921  TIP3      H2            -21.1336362818       19.9023148903      -13.3629831047  W2        2921            0.0000000000
      8764      2922  TIP3      OH2           -39.5342162818       19.2376248903      -10.2943431047  W2        2922            0.0000000000
      8765      2922  TIP3      H1            -40.4593762818       19.4462848903      -10.4237931047  W2        2922            0.0000000000
      8766      2922  TIP3      H2            -39.0802262818       19.7217048903      -10.9841131047  W2        2922            0.0000000000
      8767      2923  TIP3      OH2           -24.7634962818       34.2217948903       -8.3486031047  W2        2923            0.0000000000
      8768      2923  TIP3      H1            -24.1112062818       33.8740048903       -8.9566931047  W2        2923            0.0000000000
      8769      2923  TIP3      H2            -24.2531162818       34.7101148903       -7.7026331047  W2        2923            0.0000000000
      8770      2924  TIP3      OH2           -39.5706762818       17.9755248903       -1.9500931047  W2        2924            0.0000000000
      8771      2924  TIP3      H1            -40.2356262818       17.7295548903       -1.3070031047  W2        2924            0.0000000000
      8772      2924  TIP3      H2            -40.0135462818       18.5975648903       -2.5272931047  W2        2924            0.0000000000
      8773      2925  TIP3      OH2           -37.3787462818       31.1509348903        2.1944868953  W2        2925            0.0000000000
      8774      2925  TIP3      H1            -38.1994962818       31.3255848903        1.7339568953  W2        2925            0.0000000000
      8775      2925  TIP3      H2            -37.6309662818       31.0774048903        3.1149268953  W2        2925            0.0000000000
      8776      2926  TIP3      OH2           -34.4244562818       32.1250548903       -1.5471131047  W2        2926            0.0000000000
      8777      2926  TIP3      H1            -34.8493462818       32.9349048903       -1.8296531047  W2        2926            0.0000000000
      8778      2926  TIP3      H2            -33.5201762818       32.2104648903       -1.8491331047  W2        2926            0.0000000000
      8779      2927  TIP3      OH2           -30.1133162818       33.5240548903        1.4122568953  W2        2927            0.0000000000
      8780      2927  TIP3      H1            -29.9285662818       33.1906648903        2.2902868953  W2        2927            0.0000000000
      8781      2927  TIP3      H2            -29.2668662818       33.8339148903        1.0901768953  W2        2927            0.0000000000
      8782      2928  TIP3      OH2           -27.7682762818       34.8099448903        0.6563968953  W2        2928            0.0000000000
      8783      2928  TIP3      H1            -27.0913862818       34.1771748903        0.4163168953  W2        2928            0.0000000000
      8784      2928  TIP3      H2            -27.4463962818       35.2109948903        1.4637268953  W2        2928            0.0000000000
      8785      2929  TIP3      OH2           -22.8508962818       17.3994948903       -0.2641031047  W2        2929            0.0000000000
      8786      2929  TIP3      H1            -23.6635462818       17.7245248903       -0.6516331047  W2        2929            0.0000000000
      8787      2929  TIP3      H2            -22.6180462818       16.6393448903       -0.7971931047  W2        2929            0.0000000000
      8788      2930  TIP3      OH2           -37.0227862818       35.3814448903       -1.4995831047  W2        2930            0.0000000000
      8789      2930  TIP3      H1            -37.7431462818       35.8215448903       -1.9508131047  W2        2930            0.0000000000
      8790      2930  TIP3      H2            -37.3883862818       35.1309148903       -0.6511831047  W2        2930            0.0000000000
      8791      2931  TIP3      OH2           -34.5555262818       34.9818348903       -2.4698631047  W2        2931            0.0000000000
      8792      2931  TIP3      H1            -35.4203062818       35.0536848903       -2.0658531047  W2        2931            0.0000000000
      8793      2931  TIP3      H2            -34.6106262818       35.5285648903       -3.2536131047  W2        2931            0.0000000000
      8794      2932  TIP3      OH2           -29.8449662818       34.8697248903       -3.2942631047  W2        2932            0.0000000000
      8795      2932  TIP3      H1            -30.3015662818       35.3986948903       -3.9484231047  W2        2932            0.0000000000
      8796      2932  TIP3      H2            -29.6821662818       35.4728648903       -2.5690331047  W2        2932            0.0000000000
      8797      2933  TIP3      OH2           -27.5173362818       33.7476848903       -2.3492331047  W2        2933            0.0000000000
      8798      2933  TIP3      H1            -28.4219662818       33.9127048903       -2.6150231047  W2        2933            0.0000000000
      8799      2933  TIP3      H2            -27.0884762818       34.6009048903       -2.4148931047  W2        2933            0.0000000000
      8800      2934  TIP3      OH2           -24.9131462818       35.3175948903       -2.0544531047  W2        2934            0.0000000000
      8801      2934  TIP3      H1            -25.0949462818       36.2334848903       -2.2649631047  W2        2934            0.0000000000
      8802      2934  TIP3      H2            -24.7363662818       34.9073048903       -2.9009931047  W2        2934            0.0000000000
      8803      2935  TIP3      OH2           -37.6079762818       34.0046948903       -4.5894031047  W2        2935            0.0000000000
      8804      2935  TIP3      H1            -37.6263762818       33.5792048903       -3.7321731047  W2        2935            0.0000000000
      8805      2935  TIP3      H2            -36.8031862818       33.6861948903       -4.9981831047  W2        2935            0.0000000000
      8806      2936  TIP3      OH2           -35.4666662818       32.7145648903       -5.9344131047  W2        2936            0.0000000000
      8807      2936  TIP3      H1            -35.6855962818       31.7983048903       -5.7648131047  W2        2936            0.0000000000
      8808      2936  TIP3      H2            -34.6424462818       32.8546048903       -5.4682731047  W2        2936            0.0000000000
      8809      2937  TIP3      OH2           -32.9294162818       33.1844948903       -5.0856131047  W2        2937            0.0000000000
      8810      2937  TIP3      H1            -32.7168462818       32.2963948903       -5.3725231047  W2        2937            0.0000000000
      8811      2937  TIP3      H2            -32.8649062818       33.1502648903       -4.1312131047  W2        2937            0.0000000000
      8812      2938  TIP3      OH2           -29.4210462818       18.8485548903       -5.9412831047  W2        2938            0.0000000000
      8813      2938  TIP3      H1            -30.0953662818       18.2191148903       -5.6857031047  W2        2938            0.0000000000
      8814      2938  TIP3      H2            -28.8571262818       18.3644448903       -6.5444931047  W2        2938            0.0000000000
      8815      2939  TIP3      OH2           -24.2783262818       16.9559548903       -5.8285731047  W2        2939            0.0000000000
      8816      2939  TIP3      H1            -23.6745662818       17.5034948903       -6.3304731047  W2        2939            0.0000000000
      8817      2939  TIP3      H2            -25.1481262818       17.2749948903       -6.0691631047  W2        2939            0.0000000000
      8818      2940  TIP3      OH2           -22.5512862818       18.0948248903       -7.4954831047  W2        2940            0.0000000000
      8819      2940  TIP3      H1            -21.9395362818       17.5803948903       -8.0221231047  W2        2940            0.0000000000
      8820      2940  TIP3      H2            -22.1689462818       18.9720348903       -7.4720431047  W2        2940            0.0000000000
      8821      2941  TIP3      OH2           -37.0942962818       17.4825848903       -8.1192931047  W2        2941            0.0000000000
      8822      2941  TIP3      H1            -37.8713162818       17.2480748903       -8.6267031047  W2        2941            0.0000000000
      8823      2941  TIP3      H2            -36.5639362818       16.6857948903       -8.1104931047  W2        2941            0.0000000000
      8824      2942  TIP3      OH2           -38.2579562818       17.2803948903      -12.3156831047  W2        2942            0.0000000000
      8825      2942  TIP3      H1            -37.8188862818       17.8914448903      -12.9073331047  W2        2942            0.0000000000
      8826      2942  TIP3      H2            -38.8917162818       17.8188048903      -11.8416831047  W2        2942            0.0000000000
      8827      2943  TIP3      OH2           -32.5150362818       17.4092948903       -8.3059831047  W2        2943            0.0000000000
      8828      2943  TIP3      H1            -31.6406962818       17.7977248903       -8.3355531047  W2        2943            0.0000000000
      8829      2943  TIP3      H2            -32.6509562818       17.1940748903       -7.3832631047  W2        2943            0.0000000000
      8830      2944  TIP3      OH2           -26.9581962818       17.4392748903       -6.6568131047  W2        2944            0.0000000000
      8831      2944  TIP3      H1            -26.8820362818       17.5344348903       -7.6062131047  W2        2944            0.0000000000
      8832      2944  TIP3      H2            -27.2332762818       16.5315648903       -6.5279031047  W2        2944            0.0000000000
      8833      2945  TIP3      OH2           -25.6049362818       17.4650548903      -10.9643131047  W2        2945            0.0000000000
      8834      2945  TIP3      H1            -26.3078262818       18.0799748903      -11.1741731047  W2        2945            0.0000000000
      8835      2945  TIP3      H2            -26.0497962818       16.6277248903      -10.8332231047  W2        2945            0.0000000000
      8836      2946  TIP3      OH2           -38.3570062818       33.2286148903      -11.4181731047  W2        2946            0.0000000000
      8837      2946  TIP3      H1            -39.0420162818       33.1905048903      -12.0856631047  W2        2946            0.0000000000
      8838      2946  TIP3      H2            -38.3532862818       34.1413748903      -11.1299631047  W2        2946            0.0000000000
      8839      2947  TIP3      OH2           -36.3970462818       19.1965448903      -13.8732731047  W2        2947            0.0000000000
      8840      2947  TIP3      H1            -35.9057062818       18.5667848903      -14.4007231047  W2        2947            0.0000000000
      8841      2947  TIP3      H2            -35.7734162818       19.4924848903      -13.2101531047  W2        2947            0.0000000000
      8842      2948  TIP3      OH2           -31.3710362818       19.4896948903      -11.4162231047  W2        2948            0.0000000000
      8843      2948  TIP3      H1            -31.1929062818       18.8430148903      -10.7333631047  W2        2948            0.0000000000
      8844      2948  TIP3      H2            -31.4244162818       20.3234648903      -10.9491131047  W2        2948            0.0000000000
      8845      2949  TIP3      OH2           -29.4926562818       34.4381048903      -13.0205531047  W2        2949            0.0000000000
      8846      2949  TIP3      H1            -28.6266362818       34.8048448903      -13.1987331047  W2        2949            0.0000000000
      8847      2949  TIP3      H2            -29.7393762818       33.9989048903      -13.8344731047  W2        2949            0.0000000000
      8848      2950  TIP3      OH2           -22.7836962818       34.0011348903      -10.3414431047  W2        2950            0.0000000000
      8849      2950  TIP3      H1            -22.9779862818       33.2533448903      -10.9064831047  W2        2950            0.0000000000
      8850      2950  TIP3      H2            -22.8226862818       34.7591448903      -10.9246531047  W2        2950            0.0000000000
      8851      2951  TIP3      OH2           -37.1364962818       17.9967748903        1.3983268953  W2        2951            0.0000000000
      8852      2951  TIP3      H1            -37.5026762818       17.2310348903        1.8407968953  W2        2951            0.0000000000
      8853      2951  TIP3      H2            -36.2236462818       18.0257948903        1.6848368953  W2        2951            0.0000000000
      8854      2952  TIP3      OH2           -35.1634162818       17.3472148903        2.9340368953  W2        2952            0.0000000000
      8855      2952  TIP3      H1            -34.2650562818       17.0732348903        2.7493768953  W2        2952            0.0000000000
      8856      2952  TIP3      H2            -35.5501062818       16.6048148903        3.3982968953  W2        2952            0.0000000000
      8857      2953  TIP3      OH2           -36.5388862818       34.1486948903      -14.3929631047  W2        2953            0.0000000000
      8858      2953  TIP3      H1            -36.8064262818       34.4349848903      -13.5196531047  W2        2953            0.0000000000
      8859      2953  TIP3      H2            -35.7676262818       33.6026148903      -14.2407131047  W2        2953            0.0000000000
      8860      2954  TIP3      OH2           -26.7421862818       16.6797448903        3.1163168953  W2        2954            0.0000000000
      8861      2954  TIP3      H1            -26.6654662818       16.2538148903        3.9700868953  W2        2954            0.0000000000
      8862      2954  TIP3      H2            -25.8485262818       16.6932148903        2.7736668953  W2        2954            0.0000000000
      8863      2955  TIP3      OH2           -23.5660762818       32.7523748903        1.8087368953  W2        2955            0.0000000000
      8864      2955  TIP3      H1            -24.3478862818       32.5661748903        1.2887968953  W2        2955            0.0000000000
      8865      2955  TIP3      H2            -23.6380862818       33.6818048903        2.0259868953  W2        2955            0.0000000000
      8866      2956  TIP3      OH2            -9.1600362818       26.6388148903       -8.1605431047  W2        2956            0.0000000000
      8867      2956  TIP3      H1             -9.0709262818       27.5826348903       -8.2928331047  W2        2956            0.0000000000
      8868      2956  TIP3      H2             -9.7982762818       26.3634548903       -8.8186031047  W2        2956            0.0000000000
      8869      2957  TIP3      OH2           -10.2269062818       25.8938848903       -4.7417231047  W2        2957            0.0000000000
      8870      2957  TIP3      H1            -10.2651562818       25.2475148903       -4.0367631047  W2        2957            0.0000000000
      8871      2957  TIP3      H2            -10.5492562818       25.4273248903       -5.5128531047  W2        2957            0.0000000000
      8872      2958  TIP3      OH2           -17.8584062818       25.5080948903       -3.1487331047  W2        2958            0.0000000000
      8873      2958  TIP3      H1            -17.8171962818       24.8824248903       -2.4254931047  W2        2958            0.0000000000
      8874      2958  TIP3      H2            -17.1556362818       26.1319548903       -2.9666931047  W2        2958            0.0000000000
      8875      2959  TIP3      OH2            -6.5208862818       28.8329248903       -6.4402131047  W2        2959            0.0000000000
      8876      2959  TIP3      H1             -6.9616162818       28.1125248903       -5.9896531047  W2        2959            0.0000000000
      8877      2959  TIP3      H2             -6.5339162818       29.5536448903       -5.8104431047  W2        2959            0.0000000000
      8878      2960  TIP3      OH2           -16.9350962818       29.9579848903       -4.6138231047  W2        2960            0.0000000000
      8879      2960  TIP3      H1            -17.3045762818       29.1560348903       -4.9833931047  W2        2960            0.0000000000
      8880      2960  TIP3      H2            -15.9939862818       29.7894748903       -4.5674831047  W2        2960            0.0000000000
      8881      2961  TIP3      OH2           -20.3250462818       23.6182448903       -9.2209431047  W2        2961            0.0000000000
      8882      2961  TIP3      H1            -20.7727062818       24.4641148903       -9.2392931047  W2        2961            0.0000000000
      8883      2961  TIP3      H2            -20.8859262818       23.0386648903       -9.7364331047  W2        2961            0.0000000000
      8884      2962  TIP3      OH2           -19.6144362818       25.7802048903       -7.0951431047  W2        2962            0.0000000000
      8885      2962  TIP3      H1            -19.4010862818       25.0103648903       -6.5678431047  W2        2962            0.0000000000
      8886      2962  TIP3      H2            -18.8766762818       25.8698748903       -7.6983831047  W2        2962            0.0000000000
      8887      2963  TIP3      OH2            -9.4093362818       33.9370948903       -6.2281731047  W2        2963            0.0000000000
      8888      2963  TIP3      H1             -8.7896962818       33.2605648903       -6.5012531047  W2        2963            0.0000000000
      8889      2963  TIP3      H2             -9.6175962818       33.7191748903       -5.3196831047  W2        2963            0.0000000000
      8890      2964  TIP3      OH2           -11.8374662818       28.3260248903       -4.3356231047  W2        2964            0.0000000000
      8891      2964  TIP3      H1            -11.5336762818       27.6401648903       -4.9302131047  W2        2964            0.0000000000
      8892      2964  TIP3      H2            -11.1160662818       28.4448948903       -3.7178231047  W2        2964            0.0000000000
      8893      2965  TIP3      OH2            -3.1744862818       19.9275548903       -3.4750031047  W2        2965            0.0000000000
      8894      2965  TIP3      H1             -3.1252662818       20.5376748903       -2.7390931047  W2        2965            0.0000000000
      8895      2965  TIP3      H2             -2.7489762818       20.3886448903       -4.1978931047  W2        2965            0.0000000000
      8896      2966  TIP3      OH2            -8.6967662818       22.7202648903       -4.0081431047  W2        2966            0.0000000000
      8897      2966  TIP3      H1             -8.5541762818       21.7739648903       -3.9879831047  W2        2966            0.0000000000
      8898      2966  TIP3      H2             -8.8028662818       22.9272448903       -4.9366531047  W2        2966            0.0000000000
      8899      2967  TIP3      OH2           -15.5419362818       20.8219048903       -6.7356631047  W2        2967            0.0000000000
      8900      2967  TIP3      H1            -15.4988262818       21.6817548903       -7.1540331047  W2        2967            0.0000000000
      8901      2967  TIP3      H2            -15.9995262818       20.2693748903       -7.3693431047  W2        2967            0.0000000000
      8902      2968  TIP3      OH2            -7.8196662818       20.9524648903       -8.3348331047  W2        2968            0.0000000000
      8903      2968  TIP3      H1             -7.1732362818       20.6237848903       -7.7100731047  W2        2968            0.0000000000
      8904      2968  TIP3      H2             -7.3097262818       21.4703648903       -8.9576931047  W2        2968            0.0000000000
      8905      2969  TIP3      OH2           -18.9217862818       23.2184848903       -5.9735231047  W2        2969            0.0000000000
      8906      2969  TIP3      H1            -18.2681262818       22.6686548903       -5.5415131047  W2        2969            0.0000000000
      8907      2969  TIP3      H2            -18.8978562818       22.9443848903       -6.8903231047  W2        2969            0.0000000000
      8908      2970  TIP3      OH2           -13.7653362818       24.7686148903       -6.7583731047  W2        2970            0.0000000000
      8909      2970  TIP3      H1            -13.1492362818       24.2421548903       -6.2489731047  W2        2970            0.0000000000
      8910      2970  TIP3      H2            -14.3514562818       24.1284848903       -7.1620131047  W2        2970            0.0000000000
      8911      2971  TIP3      OH2            -2.7830262818       21.4054748903       -1.2390231047  W2        2971            0.0000000000
      8912      2971  TIP3      H1             -3.4715662818       22.0635448903       -1.3343631047  W2        2971            0.0000000000
      8913      2971  TIP3      H2             -2.7675662818       21.2082648903       -0.3024831047  W2        2971            0.0000000000
      8914      2972  TIP3      OH2           -16.7317462818       19.7397448903       -2.6615831047  W2        2972            0.0000000000
      8915      2972  TIP3      H1            -16.9505762818       20.2698048903       -3.4279831047  W2        2972            0.0000000000
      8916      2972  TIP3      H2            -17.3996562818       19.9662948903       -2.0144431047  W2        2972            0.0000000000
      8917      2973  TIP3      OH2            -9.3627662818       29.2398548903       -9.1176731047  W2        2973            0.0000000000
      8918      2973  TIP3      H1             -9.6582562818       28.9170848903       -9.9689831047  W2        2973            0.0000000000
      8919      2973  TIP3      H2             -9.6869862818       30.1395248903       -9.0764131047  W2        2973            0.0000000000
      8920      2974  TIP3      OH2           -14.1626062818       27.4153148903       -2.3742131047  W2        2974            0.0000000000
      8921      2974  TIP3      H1            -14.9026962818       28.0134648903       -2.2706931047  W2        2974            0.0000000000
      8922      2974  TIP3      H2            -13.4486562818       27.9692748903       -2.6898531047  W2        2974            0.0000000000
      8923      2975  TIP3      OH2            -6.0558262818       20.2433948903       -6.3542431047  W2        2975            0.0000000000
      8924      2975  TIP3      H1             -6.2710262818       19.4777348903       -5.8216431047  W2        2975            0.0000000000
      8925      2975  TIP3      H2             -5.4000862818       20.7158548903       -5.8413931047  W2        2975            0.0000000000
      8926      2976  TIP3      OH2           -17.1380162818       21.6319248903       -4.7093631047  W2        2976            0.0000000000
      8927      2976  TIP3      H1            -16.5243862818       22.2646848903       -4.3361231047  W2        2976            0.0000000000
      8928      2976  TIP3      H2            -16.6259462818       21.1594248903       -5.3656731047  W2        2976            0.0000000000
      8929      2977  TIP3      OH2           -15.7551762818       29.3796148903       -1.5870631047  W2        2977            0.0000000000
      8930      2977  TIP3      H1            -15.7604162818       30.2589648903       -1.9651331047  W2        2977            0.0000000000
      8931      2977  TIP3      H2            -16.6087662818       29.2960248903       -1.1620731047  W2        2977            0.0000000000
      8932      2978  TIP3      OH2           -19.6340862818       29.0504048903      -10.8051331047  W2        2978            0.0000000000
      8933      2978  TIP3      H1            -19.9059962818       29.2795048903      -11.6938431047  W2        2978            0.0000000000
      8934      2978  TIP3      H2            -19.5885162818       29.8882848903      -10.3446031047  W2        2978            0.0000000000
      8935      2979  TIP3      OH2            -6.0091162818       30.6719948903       -4.0922831047  W2        2979            0.0000000000
      8936      2979  TIP3      H1             -6.9507462818       30.7303848903       -3.9305931047  W2        2979            0.0000000000
      8937      2979  TIP3      H2             -5.7325062818       31.5780448903       -4.2293131047  W2        2979            0.0000000000
      8938      2980  TIP3      OH2            -5.7084162818       18.9585248903       -2.6748931047  W2        2980            0.0000000000
      8939      2980  TIP3      H1             -6.4444962818       19.5692348903       -2.7127631047  W2        2980            0.0000000000
      8940      2980  TIP3      H2             -5.0250162818       19.3734248903       -3.2012531047  W2        2980            0.0000000000
      8941      2981  TIP3      OH2           -12.7052762818       17.0452548903       -5.2090931047  W2        2981            0.0000000000
      8942      2981  TIP3      H1            -12.8228562818       16.0968548903       -5.2632631047  W2        2981            0.0000000000
      8943      2981  TIP3      H2            -13.5602662818       17.3778648903       -4.9359831047  W2        2981            0.0000000000
      8944      2982  TIP3      OH2            -7.7569962818       32.4533448903       -7.4671231047  W2        2982            0.0000000000
      8945      2982  TIP3      H1             -7.3317662818       31.7461348903       -7.9521631047  W2        2982            0.0000000000
      8946      2982  TIP3      H2             -7.4399962818       33.2546148903       -7.8839031047  W2        2982            0.0000000000
      8947      2983  TIP3      OH2            -6.5973462818       30.3541948903       -8.9584631047  W2        2983            0.0000000000
      8948      2983  TIP3      H1             -6.8548662818       29.6642048903       -9.5698731047  W2        2983            0.0000000000
      8949      2983  TIP3      H2             -6.5262662818       29.9113148903       -8.1128731047  W2        2983            0.0000000000
      8950      2984  TIP3      OH2            -4.9113262818       28.9208648903       -0.4811131047  W2        2984            0.0000000000
      8951      2984  TIP3      H1             -4.7716962818       28.3291148903       -1.2204131047  W2        2984            0.0000000000
      8952      2984  TIP3      H2             -4.7440462818       29.7934548903       -0.8372331047  W2        2984            0.0000000000
      8953      2985  TIP3      OH2           -10.4387862818       25.8828148903      -10.7085131047  W2        2985            0.0000000000
      8954      2985  TIP3      H1            -11.1502362818       26.4177848903      -11.0604631047  W2        2985            0.0000000000
      8955      2985  TIP3      H2             -9.7478262818       25.9380248903      -11.3686231047  W2        2985            0.0000000000
      8956      2986  TIP3      OH2           -10.3848662818       24.3402448903      -13.6700131047  W2        2986            0.0000000000
      8957      2986  TIP3      H1             -9.6838762818       24.3629348903      -13.0186131047  W2        2986            0.0000000000
      8958      2986  TIP3      H2            -10.0825762818       23.7122148903      -14.3260831047  W2        2986            0.0000000000
      8959      2987  TIP3      OH2            -3.0693962818       25.2606648903       -2.4150731047  W2        2987            0.0000000000
      8960      2987  TIP3      H1             -3.7219862818       25.9552248903       -2.3259831047  W2        2987            0.0000000000
      8961      2987  TIP3      H2             -2.6043662818       25.4707548903       -3.2249131047  W2        2987            0.0000000000
      8962      2988  TIP3      OH2            -7.0330162818       26.0921448903       -9.7569231047  W2        2988            0.0000000000
      8963      2988  TIP3      H1             -7.7649162818       26.3205148903       -9.1838631047  W2        2988            0.0000000000
      8964      2988  TIP3      H2             -6.5857962818       25.3784148903       -9.3021731047  W2        2988            0.0000000000
      8965      2989  TIP3      OH2            -7.1356662818       24.2664048903       -0.6892231047  W2        2989            0.0000000000
      8966      2989  TIP3      H1             -7.0557562818       25.0298448903       -0.1173731047  W2        2989            0.0000000000
      8967      2989  TIP3      H2             -7.7368962818       24.5456448903       -1.3797131047  W2        2989            0.0000000000
      8968      2990  TIP3      OH2           -15.3876462818       26.7227648903       -7.8744231047  W2        2990            0.0000000000
      8969      2990  TIP3      H1            -15.7181262818       26.3521048903       -8.6927231047  W2        2990            0.0000000000
      8970      2990  TIP3      H2            -14.7992362818       26.0521648903       -7.5275931047  W2        2990            0.0000000000
      8971      2991  TIP3      OH2           -14.0208962818       30.1508248903       -5.1932031047  W2        2991            0.0000000000
      8972      2991  TIP3      H1            -14.1157662818       29.5721348903       -5.9497431047  W2        2991            0.0000000000
      8973      2991  TIP3      H2            -13.2915362818       29.7793948903       -4.6969231047  W2        2991            0.0000000000
      8974      2992  TIP3      OH2           -15.0210962818       25.4913248903       -4.2409231047  W2        2992            0.0000000000
      8975      2992  TIP3      H1            -14.4558462818       25.6127448903       -5.0038031047  W2        2992            0.0000000000
      8976      2992  TIP3      H2            -14.7022062818       26.1288248903       -3.6020731047  W2        2992            0.0000000000
      8977      2993  TIP3      OH2            -8.7118762818       30.9945148903       -3.5068731047  W2        2993            0.0000000000
      8978      2993  TIP3      H1             -8.9522162818       31.6568248903       -2.8589531047  W2        2993            0.0000000000
      8979      2993  TIP3      H2             -8.9100562818       30.1600348903       -3.0819131047  W2        2993            0.0000000000
      8980      2994  TIP3      OH2           -14.1410262818       29.8905948903        0.4762668953  W2        2994            0.0000000000
      8981      2994  TIP3      H1            -14.4522762818       30.6729148903        0.9315868953  W2        2994            0.0000000000
      8982      2994  TIP3      H2            -14.7910062818       29.7375048903       -0.2095331047  W2        2994            0.0000000000
      8983      2995  TIP3      OH2            -8.1620662818       25.2544348903      -12.0718031047  W2        2995            0.0000000000
      8984      2995  TIP3      H1             -7.5825162818       25.4044648903      -11.3249131047  W2        2995            0.0000000000
      8985      2995  TIP3      H2             -7.7480662818       25.7251748903      -12.7951631047  W2        2995            0.0000000000
      8986      2996  TIP3      OH2           -17.2210362818       26.0887048903       -0.2951631047  W2        2996            0.0000000000
      8987      2996  TIP3      H1            -17.1507162818       26.7393848903        0.4033368953  W2        2996            0.0000000000
      8988      2996  TIP3      H2            -18.1118162818       26.1914548903       -0.6300731047  W2        2996            0.0000000000
      8989      2997  TIP3      OH2           -10.4355762818       31.9912848903       -8.6364931047  W2        2997            0.0000000000
      8990      2997  TIP3      H1             -9.9618162818       32.2869148903       -7.8590731047  W2        2997            0.0000000000
      8991      2997  TIP3      H2            -10.9986462818       32.7294448903       -8.8695331047  W2        2997            0.0000000000
      8992      2998  TIP3      OH2           -15.9014362818       31.9620948903        1.2396468953  W2        2998            0.0000000000
      8993      2998  TIP3      H1            -15.8939062818       31.8260648903        0.2921968953  W2        2998            0.0000000000
      8994      2998  TIP3      H2            -16.8173962818       31.8449048903        1.4916468953  W2        2998            0.0000000000
      8995      2999  TIP3      OH2            -4.4632262818       17.0044748903      -12.2588331047  W2        2999            0.0000000000
      8996      2999  TIP3      H1             -5.3631562818       17.1433748903      -11.9637731047  W2        2999            0.0000000000
      8997      2999  TIP3      H2             -4.2113862818       17.8359348903      -12.6606631047  W2        2999            0.0000000000
      8998      3000  TIP3      OH2           -16.3973762818       25.7921948903      -10.2851431047  W2        3000            0.0000000000
      8999      3000  TIP3      H1            -16.6892462818       26.5603648903      -10.7760131047  W2        3000            0.0000000000
      9000      3000  TIP3      H2            -17.0718562818       25.1328148903      -10.4480031047  W2        3000            0.0000000000
      9001      3001  TIP3      OH2            -3.2740862818       31.3707148903      -13.8824431047  W2        3001            0.0000000000
      9002      3001  TIP3      H1             -3.2007362818       32.3097348903      -13.7119131047  W2        3001            0.0000000000
      9003      3001  TIP3      H2             -2.3685762818       31.0655748903      -13.9387131047  W2        3001            0.0000000000
      9004      3002  TIP3      OH2           -20.3043662818       28.1551148903       -1.4701631047  W2        3002            0.0000000000
      9005      3002  TIP3      H1            -20.8055262818       28.1270548903       -2.2851931047  W2        3002            0.0000000000
      9006      3002  TIP3      H2            -20.2989962818       27.2494348903       -1.1604331047  W2        3002            0.0000000000
      9007      3003  TIP3      OH2           -20.5540962818       30.9354948903       -4.5861431047  W2        3003            0.0000000000
      9008      3003  TIP3      H1            -19.6080362818       30.7911948903       -4.6051931047  W2        3003            0.0000000000
      9009      3003  TIP3      H2            -20.6664662818       31.7197748903       -4.0490231047  W2        3003            0.0000000000
      9010      3004  TIP3      OH2            -2.3562462818       31.6014648903        1.0962268953  W2        3004            0.0000000000
      9011      3004  TIP3      H1             -2.4055662818       30.6462748903        1.0589868953  W2        3004            0.0000000000
      9012      3004  TIP3      H2             -3.1830162818       31.8689948903        1.4976068953  W2        3004            0.0000000000
      9013      3005  TIP3      OH2           -11.3778462818       31.1753848903       -0.0276331047  W2        3005            0.0000000000
      9014      3005  TIP3      H1            -11.2903862818       32.0018448903        0.4472768953  W2        3005            0.0000000000
      9015      3005  TIP3      H2            -12.2413362818       30.8457648903        0.2212968953  W2        3005            0.0000000000
      9016      3006  TIP3      OH2           -10.9632662818       34.9477548903      -10.2215731047  W2        3006            0.0000000000
      9017      3006  TIP3      H1            -11.0386662818       34.8264748903      -11.1680531047  W2        3006            0.0000000000
      9018      3006  TIP3      H2            -10.9303962818       35.8970248903      -10.1031131047  W2        3006            0.0000000000
      9019      3007  TIP3      OH2           -17.3098862818       33.7364548903       -8.4406731047  W2        3007            0.0000000000
      9020      3007  TIP3      H1            -17.1578462818       33.3884948903       -7.5620231047  W2        3007            0.0000000000
      9021      3007  TIP3      H2            -18.1608462818       33.3801848903       -8.6959531047  W2        3007            0.0000000000
      9022      3008  TIP3      OH2            -7.8616662818       34.1017748903      -13.2193331047  W2        3008            0.0000000000
      9023      3008  TIP3      H1             -7.4868262818       33.3573848903      -13.6900731047  W2        3008            0.0000000000
      9024      3008  TIP3      H2             -7.8572962818       33.8318348903      -12.3010031047  W2        3008            0.0000000000
      9025      3009  TIP3      OH2            -8.1928562818       34.0274848903      -10.4701131047  W2        3009            0.0000000000
      9026      3009  TIP3      H1             -9.1278762818       34.1276748903      -10.2914131047  W2        3009            0.0000000000
      9027      3009  TIP3      H2             -7.9126662818       33.3180848903       -9.8917931047  W2        3009            0.0000000000
      9028      3010  TIP3      OH2            -5.2042662818       23.0947148903        1.5764468953  W2        3010            0.0000000000
      9029      3010  TIP3      H1             -5.6115862818       23.5752748903        0.8557768953  W2        3010            0.0000000000
      9030      3010  TIP3      H2             -5.1636962818       22.1893148903        1.2685268953  W2        3010            0.0000000000
      9031      3011  TIP3      OH2           -18.0553162818       29.4786548903       -0.4268831047  W2        3011            0.0000000000
      9032      3011  TIP3      H1            -17.8391862818       29.1172148903        0.4326968953  W2        3011            0.0000000000
      9033      3011  TIP3      H2            -18.9108462818       29.1040348903       -0.6365331047  W2        3011            0.0000000000
      9034      3012  TIP3      OH2           -15.4365162818       17.9487048903       -4.4314631047  W2        3012            0.0000000000
      9035      3012  TIP3      H1            -16.2981462818       17.8615248903       -4.8391731047  W2        3012            0.0000000000
      9036      3012  TIP3      H2            -15.4589462818       18.8047148903       -4.0037031047  W2        3012            0.0000000000
      9037      3013  TIP3      OH2           -10.7737362818       17.6707448903       -1.0567631047  W2        3013            0.0000000000
      9038      3013  TIP3      H1            -10.3534262818       17.2554548903       -0.3037031047  W2        3013            0.0000000000
      9039      3013  TIP3      H2            -11.7067762818       17.4920748903       -0.9395631047  W2        3013            0.0000000000
      9040      3014  TIP3      OH2            -7.4472462818       21.4262648903       -0.2033131047  W2        3014            0.0000000000
      9041      3014  TIP3      H1             -7.9612962818       21.3004848903        0.5942868953  W2        3014            0.0000000000
      9042      3014  TIP3      H2             -7.6027762818       22.3385748903       -0.4476931047  W2        3014            0.0000000000
      9043      3015  TIP3      OH2            -6.6847562818       26.2872648903      -14.4420131047  W2        3015            0.0000000000
      9044      3015  TIP3      H1             -6.6426762818       26.0646548903      -15.3720131047  W2        3015            0.0000000000
      9045      3015  TIP3      H2             -5.8355462818       26.6859748903      -14.2520231047  W2        3015            0.0000000000
      9046      3016  TIP3      OH2           -11.1120062818       20.1630848903      -13.7716831047  W2        3016            0.0000000000
      9047      3016  TIP3      H1            -11.3655262818       20.1822448903      -12.8488731047  W2        3016            0.0000000000
      9048      3016  TIP3      H2            -11.3687962818       19.2916248903      -14.0730631047  W2        3016            0.0000000000
      9049      3017  TIP3      OH2           -15.3455062818       22.9141548903       -3.3364431047  W2        3017            0.0000000000
      9050      3017  TIP3      H1            -15.9872962818       22.8738848903       -2.6274331047  W2        3017            0.0000000000
      9051      3017  TIP3      H2            -15.3083062818       23.8406248903       -3.5741431047  W2        3017            0.0000000000
      9052      3018  TIP3      OH2           -15.3485962818       23.1351648903       -8.4244431047  W2        3018            0.0000000000
      9053      3018  TIP3      H1            -16.2413062818       22.7947748903       -8.4830631047  W2        3018            0.0000000000
      9054      3018  TIP3      H2            -14.8979362818       22.7582548903       -9.1801231047  W2        3018            0.0000000000
      9055      3019  TIP3      OH2            -9.8130462818       23.5511948903       -9.6073631047  W2        3019            0.0000000000
      9056      3019  TIP3      H1            -10.2220162818       24.3660548903       -9.8988831047  W2        3019            0.0000000000
      9057      3019  TIP3      H2             -9.0924262818       23.4112048903      -10.2216531047  W2        3019            0.0000000000
      9058      3020  TIP3      OH2           -10.7108862818       23.7268348903        1.8807068953  W2        3020            0.0000000000
      9059      3020  TIP3      H1            -11.2735062818       23.0219948903        2.2014868953  W2        3020            0.0000000000
      9060      3020  TIP3      H2             -9.8845462818       23.6060248903        2.3484668953  W2        3020            0.0000000000
      9061      3021  TIP3      OH2            -8.8082762818       22.9972348903       -6.7933931047  W2        3021            0.0000000000
      9062      3021  TIP3      H1             -9.0038262818       23.6029148903       -7.5083331047  W2        3021            0.0000000000
      9063      3021  TIP3      H2             -8.6270162818       22.1637548903       -7.2277631047  W2        3021            0.0000000000
      9064      3022  TIP3      OH2           -17.5954562818       23.2345048903       -1.4692431047  W2        3022            0.0000000000
      9065      3022  TIP3      H1            -17.6335162818       23.6346648903       -0.6005331047  W2        3022            0.0000000000
      9066      3022  TIP3      H2            -18.0863462818       22.4177448903       -1.3789531047  W2        3022            0.0000000000
      9067      3023  TIP3      OH2           -14.2297162818       20.6087348903      -14.6706431047  W2        3023            0.0000000000
      9068      3023  TIP3      H1            -14.6606462818       20.1637448903      -13.9409031047  W2        3023            0.0000000000
      9069      3023  TIP3      H2            -14.9478462818       20.9803648903      -15.1828931047  W2        3023            0.0000000000
      9070      3024  TIP3      OH2           -20.9873762818       20.3506848903       -7.6187731047  W2        3024            0.0000000000
      9071      3024  TIP3      H1            -20.3566062818       20.3218948903       -6.8993831047  W2        3024            0.0000000000
      9072      3024  TIP3      H2            -20.5379462818       19.9255548903       -8.3491831047  W2        3024            0.0000000000
      9073      3025  TIP3      OH2           -19.7131662818       21.0968848903      -12.1947331047  W2        3025            0.0000000000
      9074      3025  TIP3      H1            -19.2389962818       21.6878748903      -12.7796431047  W2        3025            0.0000000000
      9075      3025  TIP3      H2            -20.4305262818       21.6271748903      -11.8477231047  W2        3025            0.0000000000
      9076      3026  TIP3      OH2            -9.5443562818       24.6353648903       -2.1221531047  W2        3026            0.0000000000
      9077      3026  TIP3      H1             -9.2208762818       24.0043348903       -2.7651031047  W2        3026            0.0000000000
      9078      3026  TIP3      H2             -9.9844262818       24.1005848903       -1.4614131047  W2        3026            0.0000000000
      9079      3027  TIP3      OH2           -12.7670662818       20.5629148903       -7.3380331047  W2        3027            0.0000000000
      9080      3027  TIP3      H1            -13.6779562818       20.6195948903       -7.0494331047  W2        3027            0.0000000000
      9081      3027  TIP3      H2            -12.2617762818       20.5024648903       -6.5273131047  W2        3027            0.0000000000
      9082      3028  TIP3      OH2           -17.9387262818       22.1915448903       -8.5112731047  W2        3028            0.0000000000
      9083      3028  TIP3      H1            -18.8279262818       22.2910948903       -8.8513131047  W2        3028            0.0000000000
      9084      3028  TIP3      H2            -17.6422362818       21.3498448903       -8.8574831047  W2        3028            0.0000000000
      9085      3029  TIP3      OH2           -14.2855462818       22.1918048903      -10.8548131047  W2        3029            0.0000000000
      9086      3029  TIP3      H1            -13.3539962818       22.3208048903      -10.6765031047  W2        3029            0.0000000000
      9087      3029  TIP3      H2            -14.5005162818       22.8612348903      -11.5043431047  W2        3029            0.0000000000
      9088      3030  TIP3      OH2            -8.3618762818       19.7975448903       -4.0738531047  W2        3030            0.0000000000
      9089      3030  TIP3      H1             -9.0387162818       19.9288548903       -3.4098831047  W2        3030            0.0000000000
      9090      3030  TIP3      H2             -8.8473862818       19.6424948903       -4.8840831047  W2        3030            0.0000000000
      9091      3031  TIP3      OH2           -15.6115262818       23.3860248903      -13.2882031047  W2        3031            0.0000000000
      9092      3031  TIP3      H1            -16.1540162818       23.0064048903      -13.9794431047  W2        3031            0.0000000000
      9093      3031  TIP3      H2            -14.7780362818       23.5804948903      -13.7167931047  W2        3031            0.0000000000
      9094      3032  TIP3      OH2            -5.0743662818       35.4690848903        2.2029068953  W2        3032            0.0000000000
      9095      3032  TIP3      H1             -4.8744962818       35.8932748903        1.3684368953  W2        3032            0.0000000000
      9096      3032  TIP3      H2             -4.4189962818       35.8129048903        2.8099468953  W2        3032            0.0000000000
      9097      3033  TIP3      OH2           -17.4763862818       27.9432148903        1.8109568953  W2        3033            0.0000000000
      9098      3033  TIP3      H1            -16.7441462818       28.1978048903        2.3724068953  W2        3033            0.0000000000
      9099      3033  TIP3      H2            -18.2565162818       28.1477548903        2.3264968953  W2        3033            0.0000000000
      9100      3034  TIP3      OH2           -11.4470962818       23.3502148903       -5.4510731047  W2        3034            0.0000000000
      9101      3034  TIP3      H1            -10.8827562818       22.8038748903       -5.9981131047  W2        3034            0.0000000000
      9102      3034  TIP3      H2            -11.5947562818       22.8284048903       -4.6623131047  W2        3034            0.0000000000
      9103      3035  TIP3      OH2           -16.4451262818       19.4868248903       -9.0325931047  W2        3035            0.0000000000
      9104      3035  TIP3      H1            -16.7621762818       18.5843548903       -9.0680531047  W2        3035            0.0000000000
      9105      3035  TIP3      H2            -15.6637162818       19.4885648903       -9.5854331047  W2        3035            0.0000000000
      9106      3036  TIP3      OH2           -12.8205062818       21.7388248903       -3.0370331047  W2        3036            0.0000000000
      9107      3036  TIP3      H1            -13.6559762818       22.1927748903       -2.9267931047  W2        3036            0.0000000000
      9108      3036  TIP3      H2            -12.2964462818       22.0146748903       -2.2850431047  W2        3036            0.0000000000
      9109      3037  TIP3      OH2           -12.2762462818       27.9515948903      -11.3523931047  W2        3037            0.0000000000
      9110      3037  TIP3      H1            -13.0211462818       27.4441248903      -11.6746031047  W2        3037            0.0000000000
      9111      3037  TIP3      H2            -12.4105262818       28.0003948903      -10.4059131047  W2        3037            0.0000000000
      9112      3038  TIP3      OH2            -5.1263562818       27.0844148903       -2.5656331047  W2        3038            0.0000000000
      9113      3038  TIP3      H1             -4.4844762818       27.5410448903       -3.1094131047  W2        3038            0.0000000000
      9114      3038  TIP3      H2             -5.9566662818       27.1976548903       -3.0282231047  W2        3038            0.0000000000
      9115      3039  TIP3      OH2            -8.3785662818       20.7655848903      -13.1531331047  W2        3039            0.0000000000
      9116      3039  TIP3      H1             -9.3171462818       20.8771448903      -13.3042531047  W2        3039            0.0000000000
      9117      3039  TIP3      H2             -8.0813562818       21.6222748903      -12.8465631047  W2        3039            0.0000000000
      9118      3040  TIP3      OH2           -10.7570362818       28.1359248903       -0.1154831047  W2        3040            0.0000000000
      9119      3040  TIP3      H1            -11.1024262818       27.7541648903        0.6914768953  W2        3040            0.0000000000
      9120      3040  TIP3      H2            -10.9570262818       29.0692848903       -0.0441931047  W2        3040            0.0000000000
      9121      3041  TIP3      OH2            -7.6602162818       22.6328548903      -11.4923931047  W2        3041            0.0000000000
      9122      3041  TIP3      H1             -6.7683162818       22.4953548903      -11.1732731047  W2        3041            0.0000000000
      9123      3041  TIP3      H2             -7.6038562818       23.4234648903      -12.0290431047  W2        3041            0.0000000000
      9124      3042  TIP3      OH2           -17.1514162818       27.2465948903       -5.5826031047  W2        3042            0.0000000000
      9125      3042  TIP3      H1            -16.4066962818       27.2441648903       -6.1839531047  W2        3042            0.0000000000
      9126      3042  TIP3      H2            -17.0737562818       26.4229748903       -5.1010931047  W2        3042            0.0000000000
      9127      3043  TIP3      OH2           -10.1508362818       29.4100248903      -12.3269331047  W2        3043            0.0000000000
      9128      3043  TIP3      H1            -10.4459962818       30.2368148903      -11.9454531047  W2        3043            0.0000000000
      9129      3043  TIP3      H2            -10.8538362818       28.7907148903      -12.1307931047  W2        3043            0.0000000000
      9130      3044  TIP3      OH2           -20.1434462818       25.7072848903       -0.2677531047  W2        3044            0.0000000000
      9131      3044  TIP3      H1            -19.9205862818       25.2892448903        0.5639968953  W2        3044            0.0000000000
      9132      3044  TIP3      H2            -20.7454362818       25.0947848903       -0.6904731047  W2        3044            0.0000000000
      9133      3045  TIP3      OH2           -13.1269562818       25.2242748903        1.9452168953  W2        3045            0.0000000000
      9134      3045  TIP3      H1            -13.4228762818       25.0585748903        1.0501268953  W2        3045            0.0000000000
      9135      3045  TIP3      H2            -12.1954362818       25.0043048903        1.9346068953  W2        3045            0.0000000000
      9136      3046  TIP3      OH2            -8.5066762818       30.5974748903       -0.1649831047  W2        3046            0.0000000000
      9137      3046  TIP3      H1             -9.4072462818       30.7807348903       -0.4325931047  W2        3046            0.0000000000
      9138      3046  TIP3      H2             -8.4725662818       30.8564048903        0.7558968953  W2        3046            0.0000000000
      9139      3047  TIP3      OH2            -2.7753462818       22.8422648903      -11.7977231047  W2        3047            0.0000000000
      9140      3047  TIP3      H1             -3.3297162818       22.4460648903      -12.4699731047  W2        3047            0.0000000000
      9141      3047  TIP3      H2             -2.6749862818       23.7527848903      -12.0753931047  W2        3047            0.0000000000
      9142      3048  TIP3      OH2            -2.8121462818       28.6424348903        1.0394268953  W2        3048            0.0000000000
      9143      3048  TIP3      H1             -3.6632962818       28.8808148903        0.6720668953  W2        3048            0.0000000000
      9144      3048  TIP3      H2             -2.2218062818       28.6257548903        0.2861368953  W2        3048            0.0000000000
      9145      3049  TIP3      OH2            -4.4801762818       31.6283048903      -11.3325131047  W2        3049            0.0000000000
      9146      3049  TIP3      H1             -4.8530662818       30.8026848903      -11.0234531047  W2        3049            0.0000000000
      9147      3049  TIP3      H2             -4.2028262818       31.4452448903      -12.2301731047  W2        3049            0.0000000000
      9148      3050  TIP3      OH2            -7.3197862818       26.4362548903       -4.3113231047  W2        3050            0.0000000000
      9149      3050  TIP3      H1             -8.2480962818       26.2044448903       -4.3383931047  W2        3050            0.0000000000
      9150      3050  TIP3      H2             -6.8686762818       25.6592348903       -4.6414431047  W2        3050            0.0000000000
      9151      3051  TIP3      OH2           -14.7764762818       30.7644148903       -8.1784531047  W2        3051            0.0000000000
      9152      3051  TIP3      H1            -14.2492562818       31.5378548903       -8.3785731047  W2        3051            0.0000000000
      9153      3051  TIP3      H2            -15.6566262818       30.9893348903       -8.4800531047  W2        3051            0.0000000000
      9154      3052  TIP3      OH2           -19.0217062818       25.6268248903      -13.5912131047  W2        3052            0.0000000000
      9155      3052  TIP3      H1            -18.4057162818       26.2535448903      -13.2117331047  W2        3052            0.0000000000
      9156      3052  TIP3      H2            -19.8834462818       25.9428048903      -13.3195631047  W2        3052            0.0000000000
      9157      3053  TIP3      OH2           -13.3492462818       28.4274048903       -8.6020231047  W2        3053            0.0000000000
      9158      3053  TIP3      H1            -13.5902462818       29.3528448903       -8.5604931047  W2        3053            0.0000000000
      9159      3053  TIP3      H2            -14.0898862818       27.9685348903       -8.2056331047  W2        3053            0.0000000000
      9160      3054  TIP3      OH2           -12.8345862818       32.5767648903       -2.2869131047  W2        3054            0.0000000000
      9161      3054  TIP3      H1            -12.4721162818       33.4313248903       -2.5204731047  W2        3054            0.0000000000
      9162      3054  TIP3      H2            -12.3030662818       32.2849248903       -1.5462831047  W2        3054            0.0000000000
      9163      3055  TIP3      OH2           -14.6661662818       33.4491648903       -9.0568031047  W2        3055            0.0000000000
      9164      3055  TIP3      H1            -15.6161162818       33.5549048903       -9.0054731047  W2        3055            0.0000000000
      9165      3055  TIP3      H2            -14.3143562818       34.2699048903       -8.7120531047  W2        3055            0.0000000000
      9166      3056  TIP3      OH2            -9.2905062818       28.6758348903       -2.5863531047  W2        3056            0.0000000000
      9167      3056  TIP3      H1             -9.7163762818       28.4480048903       -1.7599531047  W2        3056            0.0000000000
      9168      3056  TIP3      H2             -8.7099262818       27.9370148903       -2.7688231047  W2        3056            0.0000000000
      9169      3057  TIP3      OH2            -7.0876162818       29.6048848903      -13.5124531047  W2        3057            0.0000000000
      9170      3057  TIP3      H1             -6.7343062818       29.2248648903      -12.7081031047  W2        3057            0.0000000000
      9171      3057  TIP3      H2             -8.0362662818       29.5113648903      -13.4255231047  W2        3057            0.0000000000
      9172      3058  TIP3      OH2            -6.6320862818       33.2277848903       -0.1168731047  W2        3058            0.0000000000
      9173      3058  TIP3      H1             -7.2337662818       32.6720748903       -0.6122431047  W2        3058            0.0000000000
      9174      3058  TIP3      H2             -6.3507162818       33.8947648903       -0.7431331047  W2        3058            0.0000000000
      9175      3059  TIP3      OH2            -2.5841762818       34.0841348903      -13.3114331047  W2        3059            0.0000000000
      9176      3059  TIP3      H1             -1.8403862818       34.6701848903      -13.4512731047  W2        3059            0.0000000000
      9177      3059  TIP3      H2             -3.2783662818       34.6527148903      -12.9781931047  W2        3059            0.0000000000
      9178      3060  TIP3      OH2           -18.5094962818       20.4605548903       -0.7096131047  W2        3060            0.0000000000
      9179      3060  TIP3      H1            -19.4022662818       20.7990948903       -0.7772131047  W2        3060            0.0000000000
      9180      3060  TIP3      H2            -18.6082162818       19.6051648903       -0.2915331047  W2        3060            0.0000000000
      9181      3061  TIP3      OH2            -6.2216862818       28.2770848903      -11.2856631047  W2        3061            0.0000000000
      9182      3061  TIP3      H1             -6.4989262818       27.5490148903      -10.7295531047  W2        3061            0.0000000000
      9183      3061  TIP3      H2             -5.2943862818       28.3962848903      -11.0804031047  W2        3061            0.0000000000
      9184      3062  TIP3      OH2           -18.8582962818       32.2649948903       -2.2746731047  W2        3062            0.0000000000
      9185      3062  TIP3      H1            -18.6412662818       31.3332348903       -2.3057031047  W2        3062            0.0000000000
      9186      3062  TIP3      H2            -18.6119462818       32.5394948903       -1.3913931047  W2        3062            0.0000000000
      9187      3063  TIP3      OH2           -12.9968362818       30.7164948903      -15.0654531047  W2        3063            0.0000000000
      9188      3063  TIP3      H1            -12.7578562818       29.9683048903      -15.6125631047  W2        3063            0.0000000000
      9189      3063  TIP3      H2            -13.2657062818       30.3286648903      -14.2326731047  W2        3063            0.0000000000
      9190      3064  TIP3      OH2           -14.0597762818       30.2868748903      -12.6091931047  W2        3064            0.0000000000
      9191      3064  TIP3      H1            -13.9129762818       29.7668548903      -11.8191031047  W2        3064            0.0000000000
      9192      3064  TIP3      H2            -14.0626062818       31.1936348903      -12.3026031047  W2        3064            0.0000000000
      9193      3065  TIP3      OH2           -17.6066662818       27.5392048903      -12.0986531047  W2        3065            0.0000000000
      9194      3065  TIP3      H1            -18.2927362818       27.8914548903      -11.5316831047  W2        3065            0.0000000000
      9195      3065  TIP3      H2            -17.0838762818       28.3021648903      -12.3452231047  W2        3065            0.0000000000
      9196      3066  TIP3      OH2            -9.7751562818       20.2015848903       -1.8197531047  W2        3066            0.0000000000
      9197      3066  TIP3      H1             -9.0763662818       20.2754548903       -1.1697831047  W2        3066            0.0000000000
      9198      3066  TIP3      H2            -10.1560162818       19.3370848903       -1.6654631047  W2        3066            0.0000000000
      9199      3067  TIP3      OH2            -8.9906662818       19.8537548903      -10.7225231047  W2        3067            0.0000000000
      9200      3067  TIP3      H1             -8.7708362818       20.3252948903      -11.5259831047  W2        3067            0.0000000000
      9201      3067  TIP3      H2             -8.4322662818       20.2480148903      -10.0524631047  W2        3067            0.0000000000
      9202      3068  TIP3      OH2           -11.3220562818       31.9842348903      -11.8597731047  W2        3068            0.0000000000
      9203      3068  TIP3      H1            -12.1384462818       32.4812048903      -11.8073431047  W2        3068            0.0000000000
      9204      3068  TIP3      H2            -10.7924262818       32.4595848903      -12.4998931047  W2        3068            0.0000000000
      9205      3069  TIP3      OH2           -11.7906762818       21.5816348903       -9.8876831047  W2        3069            0.0000000000
      9206      3069  TIP3      H1            -10.9784162818       22.0859548903       -9.8415131047  W2        3069            0.0000000000
      9207      3069  TIP3      H2            -12.0353762818       21.4366048903       -8.9737231047  W2        3069            0.0000000000
      9208      3070  TIP3      OH2           -11.2550362818       22.5679048903       -0.7030231047  W2        3070            0.0000000000
      9209      3070  TIP3      H1            -11.1360062818       23.1414448903        0.0540168953  W2        3070            0.0000000000
      9210      3070  TIP3      H2            -10.5995762818       21.8798448903       -0.5882431047  W2        3070            0.0000000000
      9211      3071  TIP3      OH2           -10.9070062818       18.6629348903       -8.9495731047  W2        3071            0.0000000000
      9212      3071  TIP3      H1            -11.2536562818       19.2799948903       -8.3051431047  W2        3071            0.0000000000
      9213      3071  TIP3      H2            -10.2483162818       19.1635048903       -9.4310231047  W2        3071            0.0000000000
      9214      3072  TIP3      OH2           -13.9837462818       33.0279548903      -11.8780831047  W2        3072            0.0000000000
      9215      3072  TIP3      H1            -13.8228762818       33.8277048903      -12.3788231047  W2        3072            0.0000000000
      9216      3072  TIP3      H2            -14.1809662818       33.3345548903      -10.9930231047  W2        3072            0.0000000000
      9217      3073  TIP3      OH2           -15.2493062818       19.7258748903      -12.2623231047  W2        3073            0.0000000000
      9218      3073  TIP3      H1            -15.3328262818       20.6141848903      -11.9156831047  W2        3073            0.0000000000
      9219      3073  TIP3      H2            -14.3592762818       19.4605448903      -12.0306431047  W2        3073            0.0000000000
      9220      3074  TIP3      OH2            -5.0504562818       20.4749348903        0.1319468953  W2        3074            0.0000000000
      9221      3074  TIP3      H1             -5.9668762818       20.7371048903        0.0443168953  W2        3074            0.0000000000
      9222      3074  TIP3      H2             -4.7149562818       20.4718348903       -0.7645231047  W2        3074            0.0000000000
      9223      3075  TIP3      OH2            -6.4483562818       24.2250348903       -5.7723231047  W2        3075            0.0000000000
      9224      3075  TIP3      H1             -7.2459162818       23.8100548903       -6.1008231047  W2        3075            0.0000000000
      9225      3075  TIP3      H2             -6.0032462818       23.5344048903       -5.2812731047  W2        3075            0.0000000000
      9226      3076  TIP3      OH2           -16.9907762818       30.1530948903      -13.2018731047  W2        3076            0.0000000000
      9227      3076  TIP3      H1            -16.3986262818       30.8525748903      -12.9256331047  W2        3076            0.0000000000
      9228      3076  TIP3      H2            -16.5314762818       29.7200448903      -13.9214131047  W2        3076            0.0000000000
      9229      3077  TIP3      OH2           -18.6748562818       22.8173948903      -14.0859331047  W2        3077            0.0000000000
      9230      3077  TIP3      H1            -18.7195962818       23.7567048903      -13.9072331047  W2        3077            0.0000000000
      9231      3077  TIP3      H2            -19.5625362818       22.5818848903      -14.3557231047  W2        3077            0.0000000000
      9232      3078  TIP3      OH2            -5.3618962818       33.4812848903       -4.1499731047  W2        3078            0.0000000000
      9233      3078  TIP3      H1             -5.5174662818       34.1597248903       -4.8070431047  W2        3078            0.0000000000
      9234      3078  TIP3      H2             -4.4292562818       33.5532148903       -3.9469131047  W2        3078            0.0000000000
      9235      3079  TIP3      OH2           -17.8666562818       17.5990548903       -5.4128331047  W2        3079            0.0000000000
      9236      3079  TIP3      H1            -18.0956762818       17.6583048903       -6.3403331047  W2        3079            0.0000000000
      9237      3079  TIP3      H2            -18.3093162818       16.8076048903       -5.1064231047  W2        3079            0.0000000000
      9238      3080  TIP3      OH2           -18.9363262818       31.5397648903       -9.2522531047  W2        3080            0.0000000000
      9239      3080  TIP3      H1            -19.7684662818       32.0120348903       -9.2251131047  W2        3080            0.0000000000
      9240      3080  TIP3      H2            -18.3904962818       32.0495248903       -9.8509431047  W2        3080            0.0000000000
      9241      3081  TIP3      OH2           -19.6479562818       34.1521348903        2.0775468953  W2        3081            0.0000000000
      9242      3081  TIP3      H1            -19.1077362818       33.9355348903        2.8374668953  W2        3081            0.0000000000
      9243      3081  TIP3      H2            -20.1291562818       33.3467348903        1.8877968953  W2        3081            0.0000000000
      9244      3082  TIP3      OH2           -15.0506162818       33.0715748903        3.6979668953  W2        3082            0.0000000000
      9245      3082  TIP3      H1            -14.2828962818       32.6126548903        4.0388868953  W2        3082            0.0000000000
      9246      3082  TIP3      H2            -15.0719962818       32.8455548903        2.7680868953  W2        3082            0.0000000000
      9247      3083  TIP3      OH2           -10.9586562818       32.5796348903      -14.9268531047  W2        3083            0.0000000000
      9248      3083  TIP3      H1            -11.6025562818       31.9484948903      -14.6054831047  W2        3083            0.0000000000
      9249      3083  TIP3      H2            -10.1968262818       32.0484348903      -15.1585031047  W2        3083            0.0000000000
      9250      3084  TIP3      OH2            -8.4737462818       31.4516848903        2.4271168953  W2        3084            0.0000000000
      9251      3084  TIP3      H1             -8.8247962818       30.5949848903        2.6701568953  W2        3084            0.0000000000
      9252      3084  TIP3      H2             -7.7474262818       31.5943548903        3.0340168953  W2        3084            0.0000000000
      9253      3085  TIP3      OH2            -6.3543662818       32.3966248903      -14.6930531047  W2        3085            0.0000000000
      9254      3085  TIP3      H1             -6.0713262818       31.6021448903      -14.2403631047  W2        3085            0.0000000000
      9255      3085  TIP3      H2             -5.6145762818       32.6297248903      -15.2539431047  W2        3085            0.0000000000
      9256      3086  TIP3      OH2           -19.7410062818       27.9625448903        3.0319768953  W2        3086            0.0000000000
      9257      3086  TIP3      H1            -19.5969562818       27.0606148903        2.7456468953  W2        3086            0.0000000000
      9258      3086  TIP3      H2            -20.5132662818       28.2487548903        2.5442068953  W2        3086            0.0000000000
      9259      3087  TIP3      OH2           -15.3996362818       28.3061148903      -14.8355631047  W2        3087            0.0000000000
      9260      3087  TIP3      H1            -15.3352262818       27.5120748903      -14.3049231047  W2        3087            0.0000000000
      9261      3087  TIP3      H2            -14.7467162818       28.1873948903      -15.5253631047  W2        3087            0.0000000000
      9262      3088  TIP3      OH2           -13.0853962818       27.9323548903        2.4646168953  W2        3088            0.0000000000
      9263      3088  TIP3      H1            -13.4140162818       28.2031648903        1.6073568953  W2        3088            0.0000000000
      9264      3088  TIP3      H2            -12.9335762818       26.9913348903        2.3771168953  W2        3088            0.0000000000
      9265      3089  TIP3      OH2           -10.0472962818       29.3532848903      -15.0997631047  W2        3089            0.0000000000
      9266      3089  TIP3      H1            -10.3158862818       29.5334948903      -14.1988731047  W2        3089            0.0000000000
      9267      3089  TIP3      H2            -10.2537362818       28.4279048903      -15.2311831047  W2        3089            0.0000000000
      9268      3090  TIP3      OH2            -7.3508762818       27.8480848903       -0.1521531047  W2        3090            0.0000000000
      9269      3090  TIP3      H1             -6.6053962818       28.4364548903       -0.2717531047  W2        3090            0.0000000000
      9270      3090  TIP3      H2             -8.1081962818       28.4300548903       -0.0888431047  W2        3090            0.0000000000
      9271      3091  TIP3      OH2           -18.9083562818       25.1628748903        2.4519068953  W2        3091            0.0000000000
      9272      3091  TIP3      H1            -18.5002362818       24.3055348903        2.3309668953  W2        3091            0.0000000000
      9273      3091  TIP3      H2            -19.1685962818       25.1770048903        3.3729368953  W2        3091            0.0000000000
      9274      3092  TIP3      OH2           -14.2502562818       26.2787348903      -12.5297631047  W2        3092            0.0000000000
      9275      3092  TIP3      H1            -14.7100562818       25.7945648903      -11.8439131047  W2        3092            0.0000000000
      9276      3092  TIP3      H2            -13.9953862818       25.6102748903      -13.1657131047  W2        3092            0.0000000000
      9277      3093  TIP3      OH2           -14.9613262818       24.1714448903       -0.1738031047  W2        3093            0.0000000000
      9278      3093  TIP3      H1            -15.5797162818       24.8461048903        0.1066668953  W2        3093            0.0000000000
      9279      3093  TIP3      H2            -14.6172062818       24.4928348903       -1.0071831047  W2        3093            0.0000000000
      9280      3094  TIP3      OH2           -13.1792162818       24.5219148903      -14.2674431047  W2        3094            0.0000000000
      9281      3094  TIP3      H1            -13.3597162818       24.3670348903      -15.1946131047  W2        3094            0.0000000000
      9282      3094  TIP3      H2            -12.2291662818       24.6297848903      -14.2226531047  W2        3094            0.0000000000
      9283      3095  TIP3      OH2            -9.9415062818       26.6429748903        3.1036768953  W2        3095            0.0000000000
      9284      3095  TIP3      H1             -8.9883862818       26.7268848903        3.0762768953  W2        3095            0.0000000000
      9285      3095  TIP3      H2            -10.1020462818       25.9311548903        3.7231668953  W2        3095            0.0000000000
      9286      3096  TIP3      OH2            -3.7893862818       26.8763348903      -14.8216331047  W2        3096            0.0000000000
      9287      3096  TIP3      H1             -4.0629062818       26.4518848903      -15.6348031047  W2        3096            0.0000000000
      9288      3096  TIP3      H2             -3.7499762818       27.8077848903      -15.0385931047  W2        3096            0.0000000000
      9289      3097  TIP3      OH2           -14.6219562818       21.5265248903        0.9085068953  W2        3097            0.0000000000
      9290      3097  TIP3      H1            -14.4718662818       20.7976548903        0.3064768953  W2        3097            0.0000000000
      9291      3097  TIP3      H2            -14.6197162818       22.3036948903        0.3497268953  W2        3097            0.0000000000
      9292      3098  TIP3      OH2           -14.2093862818       19.8961048903       -1.5987531047  W2        3098            0.0000000000
      9293      3098  TIP3      H1            -13.6736362818       20.3477748903       -2.2508231047  W2        3098            0.0000000000
      9294      3098  TIP3      H2            -15.0614262818       19.7880848903       -2.0213431047  W2        3098            0.0000000000
      9295      3099  TIP3      OH2           -12.6275462818       25.3357248903       -1.3592331047  W2        3099            0.0000000000
      9296      3099  TIP3      H1            -11.8770662818       25.1794748903       -1.9324531047  W2        3099            0.0000000000
      9297      3099  TIP3      H2            -12.9667162818       26.1873848903       -1.6346831047  W2        3099            0.0000000000
      9298      3100  TIP3      OH2            -8.2119262818       23.1509048903        3.6692968953  W2        3100            0.0000000000
      9299      3100  TIP3      H1             -8.0197962818       22.2198448903        3.5577468953  W2        3100            0.0000000000
      9300      3100  TIP3      H2             -7.3542962818       23.5758548903        3.6588368953  W2        3100            0.0000000000
      9301      3101  TIP3      OH2            -6.8952062818       25.9394248903        1.7465668953  W2        3101            0.0000000000
      9302      3101  TIP3      H1             -7.1767062818       26.6488848903        1.1689468953  W2        3101            0.0000000000
      9303      3101  TIP3      H2             -5.9527762818       25.8667248903        1.5956868953  W2        3101            0.0000000000
      9304      3102  TIP3      OH2           -16.1433262818       22.7248748903        2.8200668953  W2        3102            0.0000000000
      9305      3102  TIP3      H1            -16.9104262818       22.1923548903        2.6098268953  W2        3102            0.0000000000
      9306      3102  TIP3      H2            -15.4644262818       22.4149148903        2.2206968953  W2        3102            0.0000000000
      9307      3103  TIP3      OH2           -13.4038362818       17.3526748903       -1.1673931047  W2        3103            0.0000000000
      9308      3103  TIP3      H1            -13.5018762818       18.2989948903       -1.2727731047  W2        3103            0.0000000000
      9309      3103  TIP3      H2            -14.1462162818       16.9800548903       -1.6430431047  W2        3103            0.0000000000
      9310      3104  TIP3      OH2           -12.1397862818       21.6742148903        2.3964468953  W2        3104            0.0000000000
      9311      3104  TIP3      H1            -12.3752462818       21.4548848903        3.2979368953  W2        3104            0.0000000000
      9312      3104  TIP3      H2            -12.9230962818       21.4673348903        1.8866968953  W2        3104            0.0000000000
      9313      3105  TIP3      OH2            -9.4241262818       20.8015648903        1.4717968953  W2        3105            0.0000000000
      9314      3105  TIP3      H1            -10.3715862818       20.8335348903        1.6041268953  W2        3105            0.0000000000
      9315      3105  TIP3      H2             -9.1114562818       20.1762748903        2.1256168953  W2        3105            0.0000000000
      9316      3106  TIP3      OH2            -7.7899762818       19.4356748903        3.4769868953  W2        3106            0.0000000000
      9317      3106  TIP3      H1             -7.8867962818       18.4834048903        3.4711768953  W2        3106            0.0000000000
      9318      3106  TIP3      H2             -8.1116662818       19.7043548903        4.3375368953  W2        3106            0.0000000000
      9319      3107  TIP3      OH2           -17.9630462818       20.6452548903        2.5245368953  W2        3107            0.0000000000
      9320      3107  TIP3      H1            -17.7513062818       19.9388648903        1.9142868953  W2        3107            0.0000000000
      9321      3107  TIP3      H2            -18.0742962818       20.2078548903        3.3686568953  W2        3107            0.0000000000
      9322      3108  TIP3      OH2           -13.1820262818       16.6464148903        1.5038868953  W2        3108            0.0000000000
      9323      3108  TIP3      H1            -12.4701862818       16.0066348903        1.4897968953  W2        3108            0.0000000000
      9324      3108  TIP3      H2            -13.2829862818       16.9132448903        0.5901968953  W2        3108            0.0000000000
      9325      3109  TIP3      OH2           -12.8282762818       18.3292548903        3.5575168953  W2        3109            0.0000000000
      9326      3109  TIP3      H1            -12.9600562818       17.8536348903        2.7373668953  W2        3109            0.0000000000
      9327      3109  TIP3      H2            -13.4275362818       19.0736148903        3.5022268953  W2        3109            0.0000000000
      9328      3110  TIP3      OH2           -13.2820462818       35.2122848903      -13.2660831047  W2        3110            0.0000000000
      9329      3110  TIP3      H1            -12.3489762818       35.3701548903      -13.1222431047  W2        3110            0.0000000000
      9330      3110  TIP3      H2            -13.5461662818       35.8875848903      -13.8909331047  W2        3110            0.0000000000
      9331      3111  TIP3      OH2           -19.7135562818       29.8486648903      -13.7832731047  W2        3111            0.0000000000
      9332      3111  TIP3      H1            -18.7996362818       29.9275548903      -13.5098831047  W2        3111            0.0000000000
      9333      3111  TIP3      H2            -19.7062462818       29.1616248903      -14.4497131047  W2        3111            0.0000000000
      9334      3112  TIP3      OH2           -21.0644962818       35.2415148903       -8.7058831047  W2        3112            0.0000000000
      9335      3112  TIP3      H1            -21.7117862818       34.7796848903       -9.2387631047  W2        3112            0.0000000000
      9336      3112  TIP3      H2            -20.7100362818       34.5698448903       -8.1232631047  W2        3112            0.0000000000
      9337      3113  TIP3      OH2           -20.1945762818       33.3222148903       -6.9012631047  W2        3113            0.0000000000
      9338      3113  TIP3      H1            -20.5288962818       32.4419448903       -6.7292431047  W2        3113            0.0000000000
      9339      3113  TIP3      H2            -19.9723362818       33.6677148903       -6.0367031047  W2        3113            0.0000000000
      9340      3114  TIP3      OH2            -2.6460962818       34.1318548903       -3.9207831047  W2        3114            0.0000000000
      9341      3114  TIP3      H1             -2.6674262818       34.3166948903       -2.9818431047  W2        3114            0.0000000000
      9342      3114  TIP3      H2             -1.9554762818       34.7002548903       -4.2616431047  W2        3114            0.0000000000
      9343      3115  TIP3      OH2            -3.0828062818       33.6989648903       -0.9988731047  W2        3115            0.0000000000
      9344      3115  TIP3      H1             -3.5699362818       32.9633748903       -1.3701331047  W2        3115            0.0000000000
      9345      3115  TIP3      H2             -2.5335362818       33.3053548903       -0.3209331047  W2        3115            0.0000000000
      9346      3116  TIP3      OH2            -4.6320762818       29.4887748903        3.6391568953  W2        3116            0.0000000000
      9347      3116  TIP3      H1             -5.4979662818       29.3837448903        4.0333868953  W2        3116            0.0000000000
      9348      3116  TIP3      H2             -4.2554862818       30.2471048903        4.0856268953  W2        3116            0.0000000000
      9349      3117  TIP3      OH2            -3.3311062818       27.7451448903      -10.8465931047  W2        3117            0.0000000000
      9350      3117  TIP3      H1             -2.4809662818       28.1662348903      -10.7194331047  W2        3117            0.0000000000
      9351      3117  TIP3      H2             -3.3255962818       27.0051548903      -10.2394531047  W2        3117            0.0000000000
      9352      3118  TIP3      OH2            -2.9365462818       25.7988848903       -9.0230231047  W2        3118            0.0000000000
      9353      3118  TIP3      H1             -3.6630862818       25.3191448903       -8.6252631047  W2        3118            0.0000000000
      9354      3118  TIP3      H2             -2.3552162818       26.0043548903       -8.2908631047  W2        3118            0.0000000000
      9355      3119  TIP3      OH2            -3.1774262818       28.5836348903       -4.0752631047  W2        3119            0.0000000000
      9356      3119  TIP3      H1             -2.3440062818       28.2056348903       -4.3559031047  W2        3119            0.0000000000
      9357      3119  TIP3      H2             -3.0653962818       29.5267548903       -4.1943531047  W2        3119            0.0000000000
      9358      3120  TIP3      OH2            -4.6911962818       31.4613848903       -1.7684231047  W2        3120            0.0000000000
      9359      3120  TIP3      H1             -5.3386662818       31.7865348903       -1.1429031047  W2        3120            0.0000000000
      9360      3120  TIP3      H2             -5.2087962818       31.0211548903       -2.4425931047  W2        3120            0.0000000000
      9361      3121  TIP3      OH2            -2.6682362818       25.6997348903      -12.6318931047  W2        3121            0.0000000000
      9362      3121  TIP3      H1             -3.1901262818       26.0561448903      -13.3508031047  W2        3121            0.0000000000
      9363      3121  TIP3      H2             -2.7013162818       26.3745148903      -11.9538031047  W2        3121            0.0000000000
      9364      3122  TIP3      OH2            -4.3193362818       22.9392948903      -14.0811831047  W2        3122            0.0000000000
      9365      3122  TIP3      H1             -4.2228962818       23.6059948903      -14.7612131047  W2        3122            0.0000000000
      9366      3122  TIP3      H2             -4.4593762818       22.1239248903      -14.5626331047  W2        3122            0.0000000000
      9367      3123  TIP3      OH2            -5.1498662818       24.3195348903       -8.4601531047  W2        3123            0.0000000000
      9368      3123  TIP3      H1             -5.2999862818       23.3743948903       -8.4803731047  W2        3123            0.0000000000
      9369      3123  TIP3      H2             -5.5034162818       24.6006748903       -7.6162431047  W2        3123            0.0000000000
      9370      3124  TIP3      OH2           -20.1146262818       26.3977548903       -4.4497731047  W2        3124            0.0000000000
      9371      3124  TIP3      H1            -19.9303362818       26.3159248903       -5.3854831047  W2        3124            0.0000000000
      9372      3124  TIP3      H2            -19.2653362818       26.2734548903       -4.0261331047  W2        3124            0.0000000000
      9373      3125  TIP3      OH2            -4.2935762818       26.2898648903        1.1786768953  W2        3125            0.0000000000
      9374      3125  TIP3      H1             -3.7108462818       25.5550948903        1.3703968953  W2        3125            0.0000000000
      9375      3125  TIP3      H2             -3.7296462818       27.0618948903        1.2252568953  W2        3125            0.0000000000
      9376      3126  TIP3      OH2            -2.7968662818       24.1924448903        1.8632168953  W2        3126            0.0000000000
      9377      3126  TIP3      H1             -3.6601962818       23.8136548903        1.6976868953  W2        3126            0.0000000000
      9378      3126  TIP3      H2             -2.1924962818       23.4539248903        1.7887968953  W2        3126            0.0000000000
      9379      3127  TIP3      OH2            -5.0719562818       20.3472748903      -14.9636331047  W2        3127            0.0000000000
      9380      3127  TIP3      H1             -4.4613762818       19.9759548903      -14.3268131047  W2        3127            0.0000000000
      9381      3127  TIP3      H2             -5.9088062818       19.9259648903      -14.7676331047  W2        3127            0.0000000000
      9382      3128  TIP3      OH2            -5.4393862818       21.9021148903       -9.9976431047  W2        3128            0.0000000000
      9383      3128  TIP3      H1             -5.1596762818       20.9951548903       -9.8734731047  W2        3128            0.0000000000
      9384      3128  TIP3      H2             -4.6802162818       22.3362648903      -10.3867231047  W2        3128            0.0000000000
      9385      3129  TIP3      OH2            -4.8275562818       22.4838548903       -4.5617531047  W2        3129            0.0000000000
      9386      3129  TIP3      H1             -3.8947562818       22.6958448903       -4.5961531047  W2        3129            0.0000000000
      9387      3129  TIP3      H2             -5.0628062818       22.5850648903       -3.6394531047  W2        3129            0.0000000000
      9388      3130  TIP3      OH2            -4.7983662818       23.2203848903       -1.7858131047  W2        3130            0.0000000000
      9389      3130  TIP3      H1             -5.6412362818       23.4884248903       -1.4198331047  W2        3130            0.0000000000
      9390      3130  TIP3      H2             -4.3559362818       24.0425748903       -1.9967031047  W2        3130            0.0000000000
      9391      3131  TIP3      OH2           -20.5171462818       21.6682548903        1.6911068953  W2        3131            0.0000000000
      9392      3131  TIP3      H1            -19.5976562818       21.5460848903        1.9274168953  W2        3131            0.0000000000
      9393      3131  TIP3      H2            -20.9666962818       20.9182248903        2.0804568953  W2        3131            0.0000000000
      9394      3132  TIP3      OH2            -2.5152062818       17.2004048903        3.5676868953  W2        3132            0.0000000000
      9395      3132  TIP3      H1             -2.1655062818       16.5467548903        2.9621568953  W2        3132            0.0000000000
      9396      3132  TIP3      H2             -2.3682562818       18.0378148903        3.1279468953  W2        3132            0.0000000000
      9397      3133  TIP3      OH2            -4.8259062818       19.1650448903       -9.9494431047  W2        3133            0.0000000000
      9398      3133  TIP3      H1             -4.6434062818       18.7161948903       -9.1239431047  W2        3133            0.0000000000
      9399      3133  TIP3      H2             -5.4256162818       18.5804848903      -10.4129831047  W2        3133            0.0000000000
      9400      3134  TIP3      OH2           -19.2958962818       19.9804148903       -5.4176031047  W2        3134            0.0000000000
      9401      3134  TIP3      H1            -18.8507362818       19.1886648903       -5.1156331047  W2        3134            0.0000000000
      9402      3134  TIP3      H2            -18.8295962818       20.6969348903       -4.9870431047  W2        3134            0.0000000000
      9403      3135  TIP3      OH2           -20.9918662818       22.9797148903       -4.3485831047  W2        3135            0.0000000000
      9404      3135  TIP3      H1            -20.4998862818       22.7587648903       -5.1393831047  W2        3135            0.0000000000
      9405      3135  TIP3      H2            -20.6297762818       23.8200548903       -4.0676331047  W2        3135            0.0000000000
      9406      3136  TIP3      OH2            -2.9954862818       19.3098648903        1.9168168953  W2        3136            0.0000000000
      9407      3136  TIP3      H1             -3.9129162818       19.5805748903        1.8811668953  W2        3136            0.0000000000
      9408      3136  TIP3      H2             -2.8725462818       18.7747048903        1.1327868953  W2        3136            0.0000000000
      9409      3137  TIP3      OH2            -2.9592862818       19.2328548903      -13.4214131047  W2        3137            0.0000000000
      9410      3137  TIP3      H1             -2.5470262818       18.5114248903      -13.8966131047  W2        3137            0.0000000000
      9411      3137  TIP3      H2             -2.2776362818       19.9023148903      -13.3629831047  W2        3137            0.0000000000
      9412      3138  TIP3      OH2           -20.6782162818       19.2376248903      -10.2943431047  W2        3138            0.0000000000
      9413      3138  TIP3      H1            -21.6033762818       19.4462848903      -10.4237931047  W2        3138            0.0000000000
      9414      3138  TIP3      H2            -20.2242262818       19.7217048903      -10.9841131047  W2        3138            0.0000000000
      9415      3139  TIP3      OH2            -5.9074962818       34.2217948903       -8.3486031047  W2        3139            0.0000000000
      9416      3139  TIP3      H1             -5.2552062818       33.8740048903       -8.9566931047  W2        3139            0.0000000000
      9417      3139  TIP3      H2             -5.3971162818       34.7101148903       -7.7026331047  W2        3139            0.0000000000
      9418      3140  TIP3      OH2           -20.7146762818       17.9755248903       -1.9500931047  W2        3140            0.0000000000
      9419      3140  TIP3      H1            -21.3796262818       17.7295548903       -1.3070031047  W2        3140            0.0000000000
      9420      3140  TIP3      H2            -21.1575462818       18.5975648903       -2.5272931047  W2        3140            0.0000000000
      9421      3141  TIP3      OH2           -18.5227462818       31.1509348903        2.1944868953  W2        3141            0.0000000000
      9422      3141  TIP3      H1            -19.3434962818       31.3255848903        1.7339568953  W2        3141            0.0000000000
      9423      3141  TIP3      H2            -18.7749662818       31.0774048903        3.1149268953  W2        3141            0.0000000000
      9424      3142  TIP3      OH2           -15.5684562818       32.1250548903       -1.5471131047  W2        3142            0.0000000000
      9425      3142  TIP3      H1            -15.9933462818       32.9349048903       -1.8296531047  W2        3142            0.0000000000
      9426      3142  TIP3      H2            -14.6641762818       32.2104648903       -1.8491331047  W2        3142            0.0000000000
      9427      3143  TIP3      OH2           -11.2573162818       33.5240548903        1.4122568953  W2        3143            0.0000000000
      9428      3143  TIP3      H1            -11.0725662818       33.1906648903        2.2902868953  W2        3143            0.0000000000
      9429      3143  TIP3      H2            -10.4108662818       33.8339148903        1.0901768953  W2        3143            0.0000000000
      9430      3144  TIP3      OH2            -8.9122762818       34.8099448903        0.6563968953  W2        3144            0.0000000000
      9431      3144  TIP3      H1             -8.2353862818       34.1771748903        0.4163168953  W2        3144            0.0000000000
      9432      3144  TIP3      H2             -8.5903962818       35.2109948903        1.4637268953  W2        3144            0.0000000000
      9433      3145  TIP3      OH2            -3.9948962818       17.3994948903       -0.2641031047  W2        3145            0.0000000000
      9434      3145  TIP3      H1             -4.8075462818       17.7245248903       -0.6516331047  W2        3145            0.0000000000
      9435      3145  TIP3      H2             -3.7620462818       16.6393448903       -0.7971931047  W2        3145            0.0000000000
      9436      3146  TIP3      OH2           -18.1667862818       35.3814448903       -1.4995831047  W2        3146            0.0000000000
      9437      3146  TIP3      H1            -18.8871462818       35.8215448903       -1.9508131047  W2        3146            0.0000000000
      9438      3146  TIP3      H2            -18.5323862818       35.1309148903       -0.6511831047  W2        3146            0.0000000000
      9439      3147  TIP3      OH2           -15.6995262818       34.9818348903       -2.4698631047  W2        3147            0.0000000000
      9440      3147  TIP3      H1            -16.5643062818       35.0536848903       -2.0658531047  W2        3147            0.0000000000
      9441      3147  TIP3      H2            -15.7546262818       35.5285648903       -3.2536131047  W2        3147            0.0000000000
      9442      3148  TIP3      OH2           -10.9889662818       34.8697248903       -3.2942631047  W2        3148            0.0000000000
      9443      3148  TIP3      H1            -11.4455662818       35.3986948903       -3.9484231047  W2        3148            0.0000000000
      9444      3148  TIP3      H2            -10.8261662818       35.4728648903       -2.5690331047  W2        3148            0.0000000000
      9445      3149  TIP3      OH2            -8.6613362818       33.7476848903       -2.3492331047  W2        3149            0.0000000000
      9446      3149  TIP3      H1             -9.5659662818       33.9127048903       -2.6150231047  W2        3149            0.0000000000
      9447      3149  TIP3      H2             -8.2324762818       34.6009048903       -2.4148931047  W2        3149            0.0000000000
      9448      3150  TIP3      OH2            -6.0571462818       35.3175948903       -2.0544531047  W2        3150            0.0000000000
      9449      3150  TIP3      H1             -6.2389462818       36.2334848903       -2.2649631047  W2        3150            0.0000000000
      9450      3150  TIP3      H2             -5.8803662818       34.9073048903       -2.9009931047  W2        3150            0.0000000000
      9451      3151  TIP3      OH2           -18.7519762818       34.0046948903       -4.5894031047  W2        3151            0.0000000000
      9452      3151  TIP3      H1            -18.7703762818       33.5792048903       -3.7321731047  W2        3151            0.0000000000
      9453      3151  TIP3      H2            -17.9471862818       33.6861948903       -4.9981831047  W2        3151            0.0000000000
      9454      3152  TIP3      OH2           -16.6106662818       32.7145648903       -5.9344131047  W2        3152            0.0000000000
      9455      3152  TIP3      H1            -16.8295962818       31.7983048903       -5.7648131047  W2        3152            0.0000000000
      9456      3152  TIP3      H2            -15.7864462818       32.8546048903       -5.4682731047  W2        3152            0.0000000000
      9457      3153  TIP3      OH2           -14.0734162818       33.1844948903       -5.0856131047  W2        3153            0.0000000000
      9458      3153  TIP3      H1            -13.8608462818       32.2963948903       -5.3725231047  W2        3153            0.0000000000
      9459      3153  TIP3      H2            -14.0089062818       33.1502648903       -4.1312131047  W2        3153            0.0000000000
      9460      3154  TIP3      OH2           -10.5650462818       18.8485548903       -5.9412831047  W2        3154            0.0000000000
      9461      3154  TIP3      H1            -11.2393662818       18.2191148903       -5.6857031047  W2        3154            0.0000000000
      9462      3154  TIP3      H2            -10.0011262818       18.3644448903       -6.5444931047  W2        3154            0.0000000000
      9463      3155  TIP3      OH2            -5.4223262818       16.9559548903       -5.8285731047  W2        3155            0.0000000000
      9464      3155  TIP3      H1             -4.8185662818       17.5034948903       -6.3304731047  W2        3155            0.0000000000
      9465      3155  TIP3      H2             -6.2921262818       17.2749948903       -6.0691631047  W2        3155            0.0000000000
      9466      3156  TIP3      OH2            -3.6952862818       18.0948248903       -7.4954831047  W2        3156            0.0000000000
      9467      3156  TIP3      H1             -3.0835362818       17.5803948903       -8.0221231047  W2        3156            0.0000000000
      9468      3156  TIP3      H2             -3.3129462818       18.9720348903       -7.4720431047  W2        3156            0.0000000000
      9469      3157  TIP3      OH2           -18.2382962818       17.4825848903       -8.1192931047  W2        3157            0.0000000000
      9470      3157  TIP3      H1            -19.0153162818       17.2480748903       -8.6267031047  W2        3157            0.0000000000
      9471      3157  TIP3      H2            -17.7079362818       16.6857948903       -8.1104931047  W2        3157            0.0000000000
      9472      3158  TIP3      OH2           -19.4019562818       17.2803948903      -12.3156831047  W2        3158            0.0000000000
      9473      3158  TIP3      H1            -18.9628862818       17.8914448903      -12.9073331047  W2        3158            0.0000000000
      9474      3158  TIP3      H2            -20.0357162818       17.8188048903      -11.8416831047  W2        3158            0.0000000000
      9475      3159  TIP3      OH2           -13.6590362818       17.4092948903       -8.3059831047  W2        3159            0.0000000000
      9476      3159  TIP3      H1            -12.7846962818       17.7977248903       -8.3355531047  W2        3159            0.0000000000
      9477      3159  TIP3      H2            -13.7949562818       17.1940748903       -7.3832631047  W2        3159            0.0000000000
      9478      3160  TIP3      OH2            -8.1021962818       17.4392748903       -6.6568131047  W2        3160            0.0000000000
      9479      3160  TIP3      H1             -8.0260362818       17.5344348903       -7.6062131047  W2        3160            0.0000000000
      9480      3160  TIP3      H2             -8.3772762818       16.5315648903       -6.5279031047  W2        3160            0.0000000000
      9481      3161  TIP3      OH2            -6.7489362818       17.4650548903      -10.9643131047  W2        3161            0.0000000000
      9482      3161  TIP3      H1             -7.4518262818       18.0799748903      -11.1741731047  W2        3161            0.0000000000
      9483      3161  TIP3      H2             -7.1937962818       16.6277248903      -10.8332231047  W2        3161            0.0000000000
      9484      3162  TIP3      OH2           -19.5010062818       33.2286148903      -11.4181731047  W2        3162            0.0000000000
      9485      3162  TIP3      H1            -20.1860162818       33.1905048903      -12.0856631047  W2        3162            0.0000000000
      9486      3162  TIP3      H2            -19.4972862818       34.1413748903      -11.1299631047  W2        3162            0.0000000000
      9487      3163  TIP3      OH2           -17.5410462818       19.1965448903      -13.8732731047  W2        3163            0.0000000000
      9488      3163  TIP3      H1            -17.0497062818       18.5667848903      -14.4007231047  W2        3163            0.0000000000
      9489      3163  TIP3      H2            -16.9174162818       19.4924848903      -13.2101531047  W2        3163            0.0000000000
      9490      3164  TIP3      OH2           -12.5150362818       19.4896948903      -11.4162231047  W2        3164            0.0000000000
      9491      3164  TIP3      H1            -12.3369062818       18.8430148903      -10.7333631047  W2        3164            0.0000000000
      9492      3164  TIP3      H2            -12.5684162818       20.3234648903      -10.9491131047  W2        3164            0.0000000000
      9493      3165  TIP3      OH2           -10.6366562818       34.4381048903      -13.0205531047  W2        3165            0.0000000000
      9494      3165  TIP3      H1             -9.7706362818       34.8048448903      -13.1987331047  W2        3165            0.0000000000
      9495      3165  TIP3      H2            -10.8833762818       33.9989048903      -13.8344731047  W2        3165            0.0000000000
      9496      3166  TIP3      OH2            -3.9276962818       34.0011348903      -10.3414431047  W2        3166            0.0000000000
      9497      3166  TIP3      H1             -4.1219862818       33.2533448903      -10.9064831047  W2        3166            0.0000000000
      9498      3166  TIP3      H2             -3.9666862818       34.7591448903      -10.9246531047  W2        3166            0.0000000000
      9499      3167  TIP3      OH2           -18.2804962818       17.9967748903        1.3983268953  W2        3167            0.0000000000
      9500      3167  TIP3      H1            -18.6466762818       17.2310348903        1.8407968953  W2        3167            0.0000000000
      9501      3167  TIP3      H2            -17.3676462818       18.0257948903        1.6848368953  W2        3167            0.0000000000
      9502      3168  TIP3      OH2           -16.3074162818       17.3472148903        2.9340368953  W2        3168            0.0000000000
      9503      3168  TIP3      H1            -15.4090562818       17.0732348903        2.7493768953  W2        3168            0.0000000000
      9504      3168  TIP3      H2            -16.6941062818       16.6048148903        3.3982968953  W2        3168            0.0000000000
      9505      3169  TIP3      OH2           -17.6828862818       34.1486948903      -14.3929631047  W2        3169            0.0000000000
      9506      3169  TIP3      H1            -17.9504262818       34.4349848903      -13.5196531047  W2        3169            0.0000000000
      9507      3169  TIP3      H2            -16.9116262818       33.6026148903      -14.2407131047  W2        3169            0.0000000000
      9508      3170  TIP3      OH2            -7.8861862818       16.6797448903        3.1163168953  W2        3170            0.0000000000
      9509      3170  TIP3      H1             -7.8094662818       16.2538148903        3.9700868953  W2        3170            0.0000000000
      9510      3170  TIP3      H2             -6.9925262818       16.6932148903        2.7736668953  W2        3170            0.0000000000
      9511      3171  TIP3      OH2            -4.7100762818       32.7523748903        1.8087368953  W2        3171            0.0000000000
      9512      3171  TIP3      H1             -5.4918862818       32.5661748903        1.2887968953  W2        3171            0.0000000000
      9513      3171  TIP3      H2             -4.7820862818       33.6818048903        2.0259868953  W2        3171            0.0000000000
      9514      3172  TIP3      OH2             9.6959637182       26.6388148903       -8.1605431047  W2        3172            0.0000000000
      9515      3172  TIP3      H1              9.7850737182       27.5826348903       -8.2928331047  W2        3172            0.0000000000
      9516      3172  TIP3      H2              9.0577237182       26.3634548903       -8.8186031047  W2        3172            0.0000000000
      9517      3173  TIP3      OH2             8.6290937182       25.8938848903       -4.7417231047  W2        3173            0.0000000000
      9518      3173  TIP3      H1              8.5908437182       25.2475148903       -4.0367631047  W2        3173            0.0000000000
      9519      3173  TIP3      H2              8.3067437182       25.4273248903       -5.5128531047  W2        3173            0.0000000000
      9520      3174  TIP3      OH2             0.9975937182       25.5080948903       -3.1487331047  W2        3174            0.0000000000
      9521      3174  TIP3      H1              1.0388037182       24.8824248903       -2.4254931047  W2        3174            0.0000000000
      9522      3174  TIP3      H2              1.7003637182       26.1319548903       -2.9666931047  W2        3174            0.0000000000
      9523      3175  TIP3      OH2            12.3351137182       28.8329248903       -6.4402131047  W2        3175            0.0000000000
      9524      3175  TIP3      H1             11.8943837182       28.1125248903       -5.9896531047  W2        3175            0.0000000000
      9525      3175  TIP3      H2             12.3220837182       29.5536448903       -5.8104431047  W2        3175            0.0000000000
      9526      3176  TIP3      OH2             1.9209037182       29.9579848903       -4.6138231047  W2        3176            0.0000000000
      9527      3176  TIP3      H1              1.5514237182       29.1560348903       -4.9833931047  W2        3176            0.0000000000
      9528      3176  TIP3      H2              2.8620137182       29.7894748903       -4.5674831047  W2        3176            0.0000000000
      9529      3177  TIP3      OH2            -1.4690462818       23.6182448903       -9.2209431047  W2        3177            0.0000000000
      9530      3177  TIP3      H1             -1.9167062818       24.4641148903       -9.2392931047  W2        3177            0.0000000000
      9531      3177  TIP3      H2             -2.0299262818       23.0386648903       -9.7364331047  W2        3177            0.0000000000
      9532      3178  TIP3      OH2            -0.7584362818       25.7802048903       -7.0951431047  W2        3178            0.0000000000
      9533      3178  TIP3      H1             -0.5450862818       25.0103648903       -6.5678431047  W2        3178            0.0000000000
      9534      3178  TIP3      H2             -0.0206762818       25.8698748903       -7.6983831047  W2        3178            0.0000000000
      9535      3179  TIP3      OH2             9.4466637182       33.9370948903       -6.2281731047  W2        3179            0.0000000000
      9536      3179  TIP3      H1             10.0663037182       33.2605648903       -6.5012531047  W2        3179            0.0000000000
      9537      3179  TIP3      H2              9.2384037182       33.7191748903       -5.3196831047  W2        3179            0.0000000000
      9538      3180  TIP3      OH2             7.0185337182       28.3260248903       -4.3356231047  W2        3180            0.0000000000
      9539      3180  TIP3      H1              7.3223237182       27.6401648903       -4.9302131047  W2        3180            0.0000000000
      9540      3180  TIP3      H2              7.7399337182       28.4448948903       -3.7178231047  W2        3180            0.0000000000
      9541      3181  TIP3      OH2            15.6815137182       19.9275548903       -3.4750031047  W2        3181            0.0000000000
      9542      3181  TIP3      H1             15.7307337182       20.5376748903       -2.7390931047  W2        3181            0.0000000000
      9543      3181  TIP3      H2             16.1070237182       20.3886448903       -4.1978931047  W2        3181            0.0000000000
      9544      3182  TIP3      OH2            10.1592337182       22.7202648903       -4.0081431047  W2        3182            0.0000000000
      9545      3182  TIP3      H1             10.3018237182       21.7739648903       -3.9879831047  W2        3182            0.0000000000
      9546      3182  TIP3      H2             10.0531337182       22.9272448903       -4.9366531047  W2        3182            0.0000000000
      9547      3183  TIP3      OH2             3.3140637182       20.8219048903       -6.7356631047  W2        3183            0.0000000000
      9548      3183  TIP3      H1              3.3571737182       21.6817548903       -7.1540331047  W2        3183            0.0000000000
      9549      3183  TIP3      H2              2.8564737182       20.2693748903       -7.3693431047  W2        3183            0.0000000000
      9550      3184  TIP3      OH2            11.0363337182       20.9524648903       -8.3348331047  W2        3184            0.0000000000
      9551      3184  TIP3      H1             11.6827637182       20.6237848903       -7.7100731047  W2        3184            0.0000000000
      9552      3184  TIP3      H2             11.5462737182       21.4703648903       -8.9576931047  W2        3184            0.0000000000
      9553      3185  TIP3      OH2            -0.0657862818       23.2184848903       -5.9735231047  W2        3185            0.0000000000
      9554      3185  TIP3      H1              0.5878737182       22.6686548903       -5.5415131047  W2        3185            0.0000000000
      9555      3185  TIP3      H2             -0.0418562818       22.9443848903       -6.8903231047  W2        3185            0.0000000000
      9556      3186  TIP3      OH2             5.0906637182       24.7686148903       -6.7583731047  W2        3186            0.0000000000
      9557      3186  TIP3      H1              5.7067637182       24.2421548903       -6.2489731047  W2        3186            0.0000000000
      9558      3186  TIP3      H2              4.5045437182       24.1284848903       -7.1620131047  W2        3186            0.0000000000
      9559      3187  TIP3      OH2            16.0729737182       21.4054748903       -1.2390231047  W2        3187            0.0000000000
      9560      3187  TIP3      H1             15.3844337182       22.0635448903       -1.3343631047  W2        3187            0.0000000000
      9561      3187  TIP3      H2             16.0884337182       21.2082648903       -0.3024831047  W2        3187            0.0000000000
      9562      3188  TIP3      OH2             2.1242537182       19.7397448903       -2.6615831047  W2        3188            0.0000000000
      9563      3188  TIP3      H1              1.9054237182       20.2698048903       -3.4279831047  W2        3188            0.0000000000
      9564      3188  TIP3      H2              1.4563437182       19.9662948903       -2.0144431047  W2        3188            0.0000000000
      9565      3189  TIP3      OH2             9.4932337182       29.2398548903       -9.1176731047  W2        3189            0.0000000000
      9566      3189  TIP3      H1              9.1977437182       28.9170848903       -9.9689831047  W2        3189            0.0000000000
      9567      3189  TIP3      H2              9.1690137182       30.1395248903       -9.0764131047  W2        3189            0.0000000000
      9568      3190  TIP3      OH2             4.6933937182       27.4153148903       -2.3742131047  W2        3190            0.0000000000
      9569      3190  TIP3      H1              3.9533037182       28.0134648903       -2.2706931047  W2        3190            0.0000000000
      9570      3190  TIP3      H2              5.4073437182       27.9692748903       -2.6898531047  W2        3190            0.0000000000
      9571      3191  TIP3      OH2            12.8001737182       20.2433948903       -6.3542431047  W2        3191            0.0000000000
      9572      3191  TIP3      H1             12.5849737182       19.4777348903       -5.8216431047  W2        3191            0.0000000000
      9573      3191  TIP3      H2             13.4559137182       20.7158548903       -5.8413931047  W2        3191            0.0000000000
      9574      3192  TIP3      OH2             1.7179837182       21.6319248903       -4.7093631047  W2        3192            0.0000000000
      9575      3192  TIP3      H1              2.3316137182       22.2646848903       -4.3361231047  W2        3192            0.0000000000
      9576      3192  TIP3      H2              2.2300537182       21.1594248903       -5.3656731047  W2        3192            0.0000000000
      9577      3193  TIP3      OH2             3.1008237182       29.3796148903       -1.5870631047  W2        3193            0.0000000000
      9578      3193  TIP3      H1              3.0955837182       30.2589648903       -1.9651331047  W2        3193            0.0000000000
      9579      3193  TIP3      H2              2.2472337182       29.2960248903       -1.1620731047  W2        3193            0.0000000000
      9580      3194  TIP3      OH2            -0.7780862818       29.0504048903      -10.8051331047  W2        3194            0.0000000000
      9581      3194  TIP3      H1             -1.0499962818       29.2795048903      -11.6938431047  W2        3194            0.0000000000
      9582      3194  TIP3      H2             -0.7325162818       29.8882848903      -10.3446031047  W2        3194            0.0000000000
      9583      3195  TIP3      OH2            12.8468837182       30.6719948903       -4.0922831047  W2        3195            0.0000000000
      9584      3195  TIP3      H1             11.9052537182       30.7303848903       -3.9305931047  W2        3195            0.0000000000
      9585      3195  TIP3      H2             13.1234937182       31.5780448903       -4.2293131047  W2        3195            0.0000000000
      9586      3196  TIP3      OH2            13.1475837182       18.9585248903       -2.6748931047  W2        3196            0.0000000000
      9587      3196  TIP3      H1             12.4115037182       19.5692348903       -2.7127631047  W2        3196            0.0000000000
      9588      3196  TIP3      H2             13.8309837182       19.3734248903       -3.2012531047  W2        3196            0.0000000000
      9589      3197  TIP3      OH2             6.1507237182       17.0452548903       -5.2090931047  W2        3197            0.0000000000
      9590      3197  TIP3      H1              6.0331437182       16.0968548903       -5.2632631047  W2        3197            0.0000000000
      9591      3197  TIP3      H2              5.2957337182       17.3778648903       -4.9359831047  W2        3197            0.0000000000
      9592      3198  TIP3      OH2            11.0990037182       32.4533448903       -7.4671231047  W2        3198            0.0000000000
      9593      3198  TIP3      H1             11.5242337182       31.7461348903       -7.9521631047  W2        3198            0.0000000000
      9594      3198  TIP3      H2             11.4160037182       33.2546148903       -7.8839031047  W2        3198            0.0000000000
      9595      3199  TIP3      OH2            12.2586537182       30.3541948903       -8.9584631047  W2        3199            0.0000000000
      9596      3199  TIP3      H1             12.0011337182       29.6642048903       -9.5698731047  W2        3199            0.0000000000
      9597      3199  TIP3      H2             12.3297337182       29.9113148903       -8.1128731047  W2        3199            0.0000000000
      9598      3200  TIP3      OH2            13.9446737182       28.9208648903       -0.4811131047  W2        3200            0.0000000000
      9599      3200  TIP3      H1             14.0843037182       28.3291148903       -1.2204131047  W2        3200            0.0000000000
      9600      3200  TIP3      H2             14.1119537182       29.7934548903       -0.8372331047  W2        3200            0.0000000000
      9601      3201  TIP3      OH2             8.4172137182       25.8828148903      -10.7085131047  W2        3201            0.0000000000
      9602      3201  TIP3      H1              7.7057637182       26.4177848903      -11.0604631047  W2        3201            0.0000000000
      9603      3201  TIP3      H2              9.1081737182       25.9380248903      -11.3686231047  W2        3201            0.0000000000
      9604      3202  TIP3      OH2             8.4711337182       24.3402448903      -13.6700131047  W2        3202            0.0000000000
      9605      3202  TIP3      H1              9.1721237182       24.3629348903      -13.0186131047  W2        3202            0.0000000000
      9606      3202  TIP3      H2              8.7734237182       23.7122148903      -14.3260831047  W2        3202            0.0000000000
      9607      3203  TIP3      OH2            15.7866037182       25.2606648903       -2.4150731047  W2        3203            0.0000000000
      9608      3203  TIP3      H1             15.1340137182       25.9552248903       -2.3259831047  W2        3203            0.0000000000
      9609      3203  TIP3      H2             16.2516337182       25.4707548903       -3.2249131047  W2        3203            0.0000000000
      9610      3204  TIP3      OH2            11.8229837182       26.0921448903       -9.7569231047  W2        3204            0.0000000000
      9611      3204  TIP3      H1             11.0910837182       26.3205148903       -9.1838631047  W2        3204            0.0000000000
      9612      3204  TIP3      H2             12.2702037182       25.3784148903       -9.3021731047  W2        3204            0.0000000000
      9613      3205  TIP3      OH2            11.7203337182       24.2664048903       -0.6892231047  W2        3205            0.0000000000
      9614      3205  TIP3      H1             11.8002437182       25.0298448903       -0.1173731047  W2        3205            0.0000000000
      9615      3205  TIP3      H2             11.1191037182       24.5456448903       -1.3797131047  W2        3205            0.0000000000
      9616      3206  TIP3      OH2             3.4683537182       26.7227648903       -7.8744231047  W2        3206            0.0000000000
      9617      3206  TIP3      H1              3.1378737182       26.3521048903       -8.6927231047  W2        3206            0.0000000000
      9618      3206  TIP3      H2              4.0567637182       26.0521648903       -7.5275931047  W2        3206            0.0000000000
      9619      3207  TIP3      OH2             4.8351037182       30.1508248903       -5.1932031047  W2        3207            0.0000000000
      9620      3207  TIP3      H1              4.7402337182       29.5721348903       -5.9497431047  W2        3207            0.0000000000
      9621      3207  TIP3      H2              5.5644637182       29.7793948903       -4.6969231047  W2        3207            0.0000000000
      9622      3208  TIP3      OH2             3.8349037182       25.4913248903       -4.2409231047  W2        3208            0.0000000000
      9623      3208  TIP3      H1              4.4001537182       25.6127448903       -5.0038031047  W2        3208            0.0000000000
      9624      3208  TIP3      H2              4.1537937182       26.1288248903       -3.6020731047  W2        3208            0.0000000000
      9625      3209  TIP3      OH2            10.1441237182       30.9945148903       -3.5068731047  W2        3209            0.0000000000
      9626      3209  TIP3      H1              9.9037837182       31.6568248903       -2.8589531047  W2        3209            0.0000000000
      9627      3209  TIP3      H2              9.9459437182       30.1600348903       -3.0819131047  W2        3209            0.0000000000
      9628      3210  TIP3      OH2             4.7149737182       29.8905948903        0.4762668953  W2        3210            0.0000000000
      9629      3210  TIP3      H1              4.4037237182       30.6729148903        0.9315868953  W2        3210            0.0000000000
      9630      3210  TIP3      H2              4.0649937182       29.7375048903       -0.2095331047  W2        3210            0.0000000000
      9631      3211  TIP3      OH2            10.6939337182       25.2544348903      -12.0718031047  W2        3211            0.0000000000
      9632      3211  TIP3      H1             11.2734837182       25.4044648903      -11.3249131047  W2        3211            0.0000000000
      9633      3211  TIP3      H2             11.1079337182       25.7251748903      -12.7951631047  W2        3211            0.0000000000
      9634      3212  TIP3      OH2             1.6349637182       26.0887048903       -0.2951631047  W2        3212            0.0000000000
      9635      3212  TIP3      H1              1.7052837182       26.7393848903        0.4033368953  W2        3212            0.0000000000
      9636      3212  TIP3      H2              0.7441837182       26.1914548903       -0.6300731047  W2        3212            0.0000000000
      9637      3213  TIP3      OH2             8.4204237182       31.9912848903       -8.6364931047  W2        3213            0.0000000000
      9638      3213  TIP3      H1              8.8941837182       32.2869148903       -7.8590731047  W2        3213            0.0000000000
      9639      3213  TIP3      H2              7.8573537182       32.7294448903       -8.8695331047  W2        3213            0.0000000000
      9640      3214  TIP3      OH2             2.9545637182       31.9620948903        1.2396468953  W2        3214            0.0000000000
      9641      3214  TIP3      H1              2.9620937182       31.8260648903        0.2921968953  W2        3214            0.0000000000
      9642      3214  TIP3      H2              2.0386037182       31.8449048903        1.4916468953  W2        3214            0.0000000000
      9643      3215  TIP3      OH2            14.3927737182       17.0044748903      -12.2588331047  W2        3215            0.0000000000
      9644      3215  TIP3      H1             13.4928437182       17.1433748903      -11.9637731047  W2        3215            0.0000000000
      9645      3215  TIP3      H2             14.6446137182       17.8359348903      -12.6606631047  W2        3215            0.0000000000
      9646      3216  TIP3      OH2             2.4586237182       25.7921948903      -10.2851431047  W2        3216            0.0000000000
      9647      3216  TIP3      H1              2.1667537182       26.5603648903      -10.7760131047  W2        3216            0.0000000000
      9648      3216  TIP3      H2              1.7841437182       25.1328148903      -10.4480031047  W2        3216            0.0000000000
      9649      3217  TIP3      OH2            15.5819137182       31.3707148903      -13.8824431047  W2        3217            0.0000000000
      9650      3217  TIP3      H1             15.6552637182       32.3097348903      -13.7119131047  W2        3217            0.0000000000
      9651      3217  TIP3      H2             16.4874237182       31.0655748903      -13.9387131047  W2        3217            0.0000000000
      9652      3218  TIP3      OH2            -1.4483662818       28.1551148903       -1.4701631047  W2        3218            0.0000000000
      9653      3218  TIP3      H1             -1.9495262818       28.1270548903       -2.2851931047  W2        3218            0.0000000000
      9654      3218  TIP3      H2             -1.4429962818       27.2494348903       -1.1604331047  W2        3218            0.0000000000
      9655      3219  TIP3      OH2            -1.6980962818       30.9354948903       -4.5861431047  W2        3219            0.0000000000
      9656      3219  TIP3      H1             -0.7520362818       30.7911948903       -4.6051931047  W2        3219            0.0000000000
      9657      3219  TIP3      H2             -1.8104662818       31.7197748903       -4.0490231047  W2        3219            0.0000000000
      9658      3220  TIP3      OH2            16.4997537182       31.6014648903        1.0962268953  W2        3220            0.0000000000
      9659      3220  TIP3      H1             16.4504337182       30.6462748903        1.0589868953  W2        3220            0.0000000000
      9660      3220  TIP3      H2             15.6729837182       31.8689948903        1.4976068953  W2        3220            0.0000000000
      9661      3221  TIP3      OH2             7.4781537182       31.1753848903       -0.0276331047  W2        3221            0.0000000000
      9662      3221  TIP3      H1              7.5656137182       32.0018448903        0.4472768953  W2        3221            0.0000000000
      9663      3221  TIP3      H2              6.6146637182       30.8457648903        0.2212968953  W2        3221            0.0000000000
      9664      3222  TIP3      OH2             7.8927337182       34.9477548903      -10.2215731047  W2        3222            0.0000000000
      9665      3222  TIP3      H1              7.8173337182       34.8264748903      -11.1680531047  W2        3222            0.0000000000
      9666      3222  TIP3      H2              7.9256037182       35.8970248903      -10.1031131047  W2        3222            0.0000000000
      9667      3223  TIP3      OH2             1.5461137182       33.7364548903       -8.4406731047  W2        3223            0.0000000000
      9668      3223  TIP3      H1              1.6981537182       33.3884948903       -7.5620231047  W2        3223            0.0000000000
      9669      3223  TIP3      H2              0.6951537182       33.3801848903       -8.6959531047  W2        3223            0.0000000000
      9670      3224  TIP3      OH2            10.9943337182       34.1017748903      -13.2193331047  W2        3224            0.0000000000
      9671      3224  TIP3      H1             11.3691737182       33.3573848903      -13.6900731047  W2        3224            0.0000000000
      9672      3224  TIP3      H2             10.9987037182       33.8318348903      -12.3010031047  W2        3224            0.0000000000
      9673      3225  TIP3      OH2            10.6631437182       34.0274848903      -10.4701131047  W2        3225            0.0000000000
      9674      3225  TIP3      H1              9.7281237182       34.1276748903      -10.2914131047  W2        3225            0.0000000000
      9675      3225  TIP3      H2             10.9433337182       33.3180848903       -9.8917931047  W2        3225            0.0000000000
      9676      3226  TIP3      OH2            13.6517337182       23.0947148903        1.5764468953  W2        3226            0.0000000000
      9677      3226  TIP3      H1             13.2444137182       23.5752748903        0.8557768953  W2        3226            0.0000000000
      9678      3226  TIP3      H2             13.6923037182       22.1893148903        1.2685268953  W2        3226            0.0000000000
      9679      3227  TIP3      OH2             0.8006837182       29.4786548903       -0.4268831047  W2        3227            0.0000000000
      9680      3227  TIP3      H1              1.0168137182       29.1172148903        0.4326968953  W2        3227            0.0000000000
      9681      3227  TIP3      H2             -0.0548462818       29.1040348903       -0.6365331047  W2        3227            0.0000000000
      9682      3228  TIP3      OH2             3.4194837182       17.9487048903       -4.4314631047  W2        3228            0.0000000000
      9683      3228  TIP3      H1              2.5578537182       17.8615248903       -4.8391731047  W2        3228            0.0000000000
      9684      3228  TIP3      H2              3.3970537182       18.8047148903       -4.0037031047  W2        3228            0.0000000000
      9685      3229  TIP3      OH2             8.0822637182       17.6707448903       -1.0567631047  W2        3229            0.0000000000
      9686      3229  TIP3      H1              8.5025737182       17.2554548903       -0.3037031047  W2        3229            0.0000000000
      9687      3229  TIP3      H2              7.1492237182       17.4920748903       -0.9395631047  W2        3229            0.0000000000
      9688      3230  TIP3      OH2            11.4087537182       21.4262648903       -0.2033131047  W2        3230            0.0000000000
      9689      3230  TIP3      H1             10.8947037182       21.3004848903        0.5942868953  W2        3230            0.0000000000
      9690      3230  TIP3      H2             11.2532237182       22.3385748903       -0.4476931047  W2        3230            0.0000000000
      9691      3231  TIP3      OH2            12.1712437182       26.2872648903      -14.4420131047  W2        3231            0.0000000000
      9692      3231  TIP3      H1             12.2133237182       26.0646548903      -15.3720131047  W2        3231            0.0000000000
      9693      3231  TIP3      H2             13.0204537182       26.6859748903      -14.2520231047  W2        3231            0.0000000000
      9694      3232  TIP3      OH2             7.7439937182       20.1630848903      -13.7716831047  W2        3232            0.0000000000
      9695      3232  TIP3      H1              7.4904737182       20.1822448903      -12.8488731047  W2        3232            0.0000000000
      9696      3232  TIP3      H2              7.4872037182       19.2916248903      -14.0730631047  W2        3232            0.0000000000
      9697      3233  TIP3      OH2             3.5104937182       22.9141548903       -3.3364431047  W2        3233            0.0000000000
      9698      3233  TIP3      H1              2.8687037182       22.8738848903       -2.6274331047  W2        3233            0.0000000000
      9699      3233  TIP3      H2              3.5476937182       23.8406248903       -3.5741431047  W2        3233            0.0000000000
      9700      3234  TIP3      OH2             3.5074037182       23.1351648903       -8.4244431047  W2        3234            0.0000000000
      9701      3234  TIP3      H1              2.6146937182       22.7947748903       -8.4830631047  W2        3234            0.0000000000
      9702      3234  TIP3      H2              3.9580637182       22.7582548903       -9.1801231047  W2        3234            0.0000000000
      9703      3235  TIP3      OH2             9.0429537182       23.5511948903       -9.6073631047  W2        3235            0.0000000000
      9704      3235  TIP3      H1              8.6339837182       24.3660548903       -9.8988831047  W2        3235            0.0000000000
      9705      3235  TIP3      H2              9.7635737182       23.4112048903      -10.2216531047  W2        3235            0.0000000000
      9706      3236  TIP3      OH2             8.1451137182       23.7268348903        1.8807068953  W2        3236            0.0000000000
      9707      3236  TIP3      H1              7.5824937182       23.0219948903        2.2014868953  W2        3236            0.0000000000
      9708      3236  TIP3      H2              8.9714537182       23.6060248903        2.3484668953  W2        3236            0.0000000000
      9709      3237  TIP3      OH2            10.0477237182       22.9972348903       -6.7933931047  W2        3237            0.0000000000
      9710      3237  TIP3      H1              9.8521737182       23.6029148903       -7.5083331047  W2        3237            0.0000000000
      9711      3237  TIP3      H2             10.2289837182       22.1637548903       -7.2277631047  W2        3237            0.0000000000
      9712      3238  TIP3      OH2             1.2605437182       23.2345048903       -1.4692431047  W2        3238            0.0000000000
      9713      3238  TIP3      H1              1.2224837182       23.6346648903       -0.6005331047  W2        3238            0.0000000000
      9714      3238  TIP3      H2              0.7696537182       22.4177448903       -1.3789531047  W2        3238            0.0000000000
      9715      3239  TIP3      OH2             4.6262837182       20.6087348903      -14.6706431047  W2        3239            0.0000000000
      9716      3239  TIP3      H1              4.1953537182       20.1637448903      -13.9409031047  W2        3239            0.0000000000
      9717      3239  TIP3      H2              3.9081537182       20.9803648903      -15.1828931047  W2        3239            0.0000000000
      9718      3240  TIP3      OH2            -2.1313762818       20.3506848903       -7.6187731047  W2        3240            0.0000000000
      9719      3240  TIP3      H1             -1.5006062818       20.3218948903       -6.8993831047  W2        3240            0.0000000000
      9720      3240  TIP3      H2             -1.6819462818       19.9255548903       -8.3491831047  W2        3240            0.0000000000
      9721      3241  TIP3      OH2            -0.8571662818       21.0968848903      -12.1947331047  W2        3241            0.0000000000
      9722      3241  TIP3      H1             -0.3829962818       21.6878748903      -12.7796431047  W2        3241            0.0000000000
      9723      3241  TIP3      H2             -1.5745262818       21.6271748903      -11.8477231047  W2        3241            0.0000000000
      9724      3242  TIP3      OH2             9.3116437182       24.6353648903       -2.1221531047  W2        3242            0.0000000000
      9725      3242  TIP3      H1              9.6351237182       24.0043348903       -2.7651031047  W2        3242            0.0000000000
      9726      3242  TIP3      H2              8.8715737182       24.1005848903       -1.4614131047  W2        3242            0.0000000000
      9727      3243  TIP3      OH2             6.0889337182       20.5629148903       -7.3380331047  W2        3243            0.0000000000
      9728      3243  TIP3      H1              5.1780437182       20.6195948903       -7.0494331047  W2        3243            0.0000000000
      9729      3243  TIP3      H2              6.5942237182       20.5024648903       -6.5273131047  W2        3243            0.0000000000
      9730      3244  TIP3      OH2             0.9172737182       22.1915448903       -8.5112731047  W2        3244            0.0000000000
      9731      3244  TIP3      H1              0.0280737182       22.2910948903       -8.8513131047  W2        3244            0.0000000000
      9732      3244  TIP3      H2              1.2137637182       21.3498448903       -8.8574831047  W2        3244            0.0000000000
      9733      3245  TIP3      OH2             4.5704537182       22.1918048903      -10.8548131047  W2        3245            0.0000000000
      9734      3245  TIP3      H1              5.5020037182       22.3208048903      -10.6765031047  W2        3245            0.0000000000
      9735      3245  TIP3      H2              4.3554837182       22.8612348903      -11.5043431047  W2        3245            0.0000000000
      9736      3246  TIP3      OH2            10.4941237182       19.7975448903       -4.0738531047  W2        3246            0.0000000000
      9737      3246  TIP3      H1              9.8172837182       19.9288548903       -3.4098831047  W2        3246            0.0000000000
      9738      3246  TIP3      H2             10.0086137182       19.6424948903       -4.8840831047  W2        3246            0.0000000000
      9739      3247  TIP3      OH2             3.2444737182       23.3860248903      -13.2882031047  W2        3247            0.0000000000
      9740      3247  TIP3      H1              2.7019837182       23.0064048903      -13.9794431047  W2        3247            0.0000000000
      9741      3247  TIP3      H2              4.0779637182       23.5804948903      -13.7167931047  W2        3247            0.0000000000
      9742      3248  TIP3      OH2            13.7816337182       35.4690848903        2.2029068953  W2        3248            0.0000000000
      9743      3248  TIP3      H1             13.9815037182       35.8932748903        1.3684368953  W2        3248            0.0000000000
      9744      3248  TIP3      H2             14.4370037182       35.8129048903        2.8099468953  W2        3248            0.0000000000
      9745      3249  TIP3      OH2             1.3796137182       27.9432148903        1.8109568953  W2        3249            0.0000000000
      9746      3249  TIP3      H1              2.1118537182       28.1978048903        2.3724068953  W2        3249            0.0000000000
      9747      3249  TIP3      H2              0.5994837182       28.1477548903        2.3264968953  W2        3249            0.0000000000
      9748      3250  TIP3      OH2             7.4089037182       23.3502148903       -5.4510731047  W2        3250            0.0000000000
      9749      3250  TIP3      H1              7.9732437182       22.8038748903       -5.9981131047  W2        3250            0.0000000000
      9750      3250  TIP3      H2              7.2612437182       22.8284048903       -4.6623131047  W2        3250            0.0000000000
      9751      3251  TIP3      OH2             2.4108737182       19.4868248903       -9.0325931047  W2        3251            0.0000000000
      9752      3251  TIP3      H1              2.0938237182       18.5843548903       -9.0680531047  W2        3251            0.0000000000
      9753      3251  TIP3      H2              3.1922837182       19.4885648903       -9.5854331047  W2        3251            0.0000000000
      9754      3252  TIP3      OH2             6.0354937182       21.7388248903       -3.0370331047  W2        3252            0.0000000000
      9755      3252  TIP3      H1              5.2000237182       22.1927748903       -2.9267931047  W2        3252            0.0000000000
      9756      3252  TIP3      H2              6.5595537182       22.0146748903       -2.2850431047  W2        3252            0.0000000000
      9757      3253  TIP3      OH2             6.5797537182       27.9515948903      -11.3523931047  W2        3253            0.0000000000
      9758      3253  TIP3      H1              5.8348537182       27.4441248903      -11.6746031047  W2        3253            0.0000000000
      9759      3253  TIP3      H2              6.4454737182       28.0003948903      -10.4059131047  W2        3253            0.0000000000
      9760      3254  TIP3      OH2            13.7296437182       27.0844148903       -2.5656331047  W2        3254            0.0000000000
      9761      3254  TIP3      H1             14.3715237182       27.5410448903       -3.1094131047  W2        3254            0.0000000000
      9762      3254  TIP3      H2             12.8993337182       27.1976548903       -3.0282231047  W2        3254            0.0000000000
      9763      3255  TIP3      OH2            10.4774337182       20.7655848903      -13.1531331047  W2        3255            0.0000000000
      9764      3255  TIP3      H1              9.5388537182       20.8771448903      -13.3042531047  W2        3255            0.0000000000
      9765      3255  TIP3      H2             10.7746437182       21.6222748903      -12.8465631047  W2        3255            0.0000000000
      9766      3256  TIP3      OH2             8.0989637182       28.1359248903       -0.1154831047  W2        3256            0.0000000000
      9767      3256  TIP3      H1              7.7535737182       27.7541648903        0.6914768953  W2        3256            0.0000000000
      9768      3256  TIP3      H2              7.8989737182       29.0692848903       -0.0441931047  W2        3256            0.0000000000
      9769      3257  TIP3      OH2            11.1957837182       22.6328548903      -11.4923931047  W2        3257            0.0000000000
      9770      3257  TIP3      H1             12.0876837182       22.4953548903      -11.1732731047  W2        3257            0.0000000000
      9771      3257  TIP3      H2             11.2521437182       23.4234648903      -12.0290431047  W2        3257            0.0000000000
      9772      3258  TIP3      OH2             1.7045837182       27.2465948903       -5.5826031047  W2        3258            0.0000000000
      9773      3258  TIP3      H1              2.4493037182       27.2441648903       -6.1839531047  W2        3258            0.0000000000
      9774      3258  TIP3      H2              1.7822437182       26.4229748903       -5.1010931047  W2        3258            0.0000000000
      9775      3259  TIP3      OH2             8.7051637182       29.4100248903      -12.3269331047  W2        3259            0.0000000000
      9776      3259  TIP3      H1              8.4100037182       30.2368148903      -11.9454531047  W2        3259            0.0000000000
      9777      3259  TIP3      H2              8.0021637182       28.7907148903      -12.1307931047  W2        3259            0.0000000000
      9778      3260  TIP3      OH2            -1.2874462818       25.7072848903       -0.2677531047  W2        3260            0.0000000000
      9779      3260  TIP3      H1             -1.0645862818       25.2892448903        0.5639968953  W2        3260            0.0000000000
      9780      3260  TIP3      H2             -1.8894362818       25.0947848903       -0.6904731047  W2        3260            0.0000000000
      9781      3261  TIP3      OH2             5.7290437182       25.2242748903        1.9452168953  W2        3261            0.0000000000
      9782      3261  TIP3      H1              5.4331237182       25.0585748903        1.0501268953  W2        3261            0.0000000000
      9783      3261  TIP3      H2              6.6605637182       25.0043048903        1.9346068953  W2        3261            0.0000000000
      9784      3262  TIP3      OH2            10.3493237182       30.5974748903       -0.1649831047  W2        3262            0.0000000000
      9785      3262  TIP3      H1              9.4487537182       30.7807348903       -0.4325931047  W2        3262            0.0000000000
      9786      3262  TIP3      H2             10.3834337182       30.8564048903        0.7558968953  W2        3262            0.0000000000
      9787      3263  TIP3      OH2            16.0806537182       22.8422648903      -11.7977231047  W2        3263            0.0000000000
      9788      3263  TIP3      H1             15.5262837182       22.4460648903      -12.4699731047  W2        3263            0.0000000000
      9789      3263  TIP3      H2             16.1810137182       23.7527848903      -12.0753931047  W2        3263            0.0000000000
      9790      3264  TIP3      OH2            16.0438537182       28.6424348903        1.0394268953  W2        3264            0.0000000000
      9791      3264  TIP3      H1             15.1927037182       28.8808148903        0.6720668953  W2        3264            0.0000000000
      9792      3264  TIP3      H2             16.6341937182       28.6257548903        0.2861368953  W2        3264            0.0000000000
      9793      3265  TIP3      OH2            14.3758237182       31.6283048903      -11.3325131047  W2        3265            0.0000000000
      9794      3265  TIP3      H1             14.0029337182       30.8026848903      -11.0234531047  W2        3265            0.0000000000
      9795      3265  TIP3      H2             14.6531737182       31.4452448903      -12.2301731047  W2        3265            0.0000000000
      9796      3266  TIP3      OH2            11.5362137182       26.4362548903       -4.3113231047  W2        3266            0.0000000000
      9797      3266  TIP3      H1             10.6079037182       26.2044448903       -4.3383931047  W2        3266            0.0000000000
      9798      3266  TIP3      H2             11.9873237182       25.6592348903       -4.6414431047  W2        3266            0.0000000000
      9799      3267  TIP3      OH2             4.0795237182       30.7644148903       -8.1784531047  W2        3267            0.0000000000
      9800      3267  TIP3      H1              4.6067437182       31.5378548903       -8.3785731047  W2        3267            0.0000000000
      9801      3267  TIP3      H2              3.1993737182       30.9893348903       -8.4800531047  W2        3267            0.0000000000
      9802      3268  TIP3      OH2            -0.1657062818       25.6268248903      -13.5912131047  W2        3268            0.0000000000
      9803      3268  TIP3      H1              0.4502837182       26.2535448903      -13.2117331047  W2        3268            0.0000000000
      9804      3268  TIP3      H2             -1.0274462818       25.9428048903      -13.3195631047  W2        3268            0.0000000000
      9805      3269  TIP3      OH2             5.5067537182       28.4274048903       -8.6020231047  W2        3269            0.0000000000
      9806      3269  TIP3      H1              5.2657537182       29.3528448903       -8.5604931047  W2        3269            0.0000000000
      9807      3269  TIP3      H2              4.7661137182       27.9685348903       -8.2056331047  W2        3269            0.0000000000
      9808      3270  TIP3      OH2             6.0214137182       32.5767648903       -2.2869131047  W2        3270            0.0000000000
      9809      3270  TIP3      H1              6.3838837182       33.4313248903       -2.5204731047  W2        3270            0.0000000000
      9810      3270  TIP3      H2              6.5529337182       32.2849248903       -1.5462831047  W2        3270            0.0000000000
      9811      3271  TIP3      OH2             4.1898337182       33.4491648903       -9.0568031047  W2        3271            0.0000000000
      9812      3271  TIP3      H1              3.2398837182       33.5549048903       -9.0054731047  W2        3271            0.0000000000
      9813      3271  TIP3      H2              4.5416437182       34.2699048903       -8.7120531047  W2        3271            0.0000000000
      9814      3272  TIP3      OH2             9.5654937182       28.6758348903       -2.5863531047  W2        3272            0.0000000000
      9815      3272  TIP3      H1              9.1396237182       28.4480048903       -1.7599531047  W2        3272            0.0000000000
      9816      3272  TIP3      H2             10.1460737182       27.9370148903       -2.7688231047  W2        3272            0.0000000000
      9817      3273  TIP3      OH2            11.7683837182       29.6048848903      -13.5124531047  W2        3273            0.0000000000
      9818      3273  TIP3      H1             12.1216937182       29.2248648903      -12.7081031047  W2        3273            0.0000000000
      9819      3273  TIP3      H2             10.8197337182       29.5113648903      -13.4255231047  W2        3273            0.0000000000
      9820      3274  TIP3      OH2            12.2239137182       33.2277848903       -0.1168731047  W2        3274            0.0000000000
      9821      3274  TIP3      H1             11.6222337182       32.6720748903       -0.6122431047  W2        3274            0.0000000000
      9822      3274  TIP3      H2             12.5052837182       33.8947648903       -0.7431331047  W2        3274            0.0000000000
      9823      3275  TIP3      OH2            16.2718237182       34.0841348903      -13.3114331047  W2        3275            0.0000000000
      9824      3275  TIP3      H1             17.0156137182       34.6701848903      -13.4512731047  W2        3275            0.0000000000
      9825      3275  TIP3      H2             15.5776337182       34.6527148903      -12.9781931047  W2        3275            0.0000000000
      9826      3276  TIP3      OH2             0.3465037182       20.4605548903       -0.7096131047  W2        3276            0.0000000000
      9827      3276  TIP3      H1             -0.5462662818       20.7990948903       -0.7772131047  W2        3276            0.0000000000
      9828      3276  TIP3      H2              0.2477837182       19.6051648903       -0.2915331047  W2        3276            0.0000000000
      9829      3277  TIP3      OH2            12.6343137182       28.2770848903      -11.2856631047  W2        3277            0.0000000000
      9830      3277  TIP3      H1             12.3570737182       27.5490148903      -10.7295531047  W2        3277            0.0000000000
      9831      3277  TIP3      H2             13.5616137182       28.3962848903      -11.0804031047  W2        3277            0.0000000000
      9832      3278  TIP3      OH2            -0.0022962818       32.2649948903       -2.2746731047  W2        3278            0.0000000000
      9833      3278  TIP3      H1              0.2147337182       31.3332348903       -2.3057031047  W2        3278            0.0000000000
      9834      3278  TIP3      H2              0.2440537182       32.5394948903       -1.3913931047  W2        3278            0.0000000000
      9835      3279  TIP3      OH2             5.8591637182       30.7164948903      -15.0654531047  W2        3279            0.0000000000
      9836      3279  TIP3      H1              6.0981437182       29.9683048903      -15.6125631047  W2        3279            0.0000000000
      9837      3279  TIP3      H2              5.5902937182       30.3286648903      -14.2326731047  W2        3279            0.0000000000
      9838      3280  TIP3      OH2             4.7962237182       30.2868748903      -12.6091931047  W2        3280            0.0000000000
      9839      3280  TIP3      H1              4.9430237182       29.7668548903      -11.8191031047  W2        3280            0.0000000000
      9840      3280  TIP3      H2              4.7933937182       31.1936348903      -12.3026031047  W2        3280            0.0000000000
      9841      3281  TIP3      OH2             1.2493337182       27.5392048903      -12.0986531047  W2        3281            0.0000000000
      9842      3281  TIP3      H1              0.5632637182       27.8914548903      -11.5316831047  W2        3281            0.0000000000
      9843      3281  TIP3      H2              1.7721237182       28.3021648903      -12.3452231047  W2        3281            0.0000000000
      9844      3282  TIP3      OH2             9.0808437182       20.2015848903       -1.8197531047  W2        3282            0.0000000000
      9845      3282  TIP3      H1              9.7796337182       20.2754548903       -1.1697831047  W2        3282            0.0000000000
      9846      3282  TIP3      H2              8.6999837182       19.3370848903       -1.6654631047  W2        3282            0.0000000000
      9847      3283  TIP3      OH2             9.8653337182       19.8537548903      -10.7225231047  W2        3283            0.0000000000
      9848      3283  TIP3      H1             10.0851637182       20.3252948903      -11.5259831047  W2        3283            0.0000000000
      9849      3283  TIP3      H2             10.4237337182       20.2480148903      -10.0524631047  W2        3283            0.0000000000
      9850      3284  TIP3      OH2             7.5339437182       31.9842348903      -11.8597731047  W2        3284            0.0000000000
      9851      3284  TIP3      H1              6.7175537182       32.4812048903      -11.8073431047  W2        3284            0.0000000000
      9852      3284  TIP3      H2              8.0635737182       32.4595848903      -12.4998931047  W2        3284            0.0000000000
      9853      3285  TIP3      OH2             7.0653237182       21.5816348903       -9.8876831047  W2        3285            0.0000000000
      9854      3285  TIP3      H1              7.8775837182       22.0859548903       -9.8415131047  W2        3285            0.0000000000
      9855      3285  TIP3      H2              6.8206237182       21.4366048903       -8.9737231047  W2        3285            0.0000000000
      9856      3286  TIP3      OH2             7.6009637182       22.5679048903       -0.7030231047  W2        3286            0.0000000000
      9857      3286  TIP3      H1              7.7199937182       23.1414448903        0.0540168953  W2        3286            0.0000000000
      9858      3286  TIP3      H2              8.2564237182       21.8798448903       -0.5882431047  W2        3286            0.0000000000
      9859      3287  TIP3      OH2             7.9489937182       18.6629348903       -8.9495731047  W2        3287            0.0000000000
      9860      3287  TIP3      H1              7.6023437182       19.2799948903       -8.3051431047  W2        3287            0.0000000000
      9861      3287  TIP3      H2              8.6076837182       19.1635048903       -9.4310231047  W2        3287            0.0000000000
      9862      3288  TIP3      OH2             4.8722537182       33.0279548903      -11.8780831047  W2        3288            0.0000000000
      9863      3288  TIP3      H1              5.0331237182       33.8277048903      -12.3788231047  W2        3288            0.0000000000
      9864      3288  TIP3      H2              4.6750337182       33.3345548903      -10.9930231047  W2        3288            0.0000000000
      9865      3289  TIP3      OH2             3.6066937182       19.7258748903      -12.2623231047  W2        3289            0.0000000000
      9866      3289  TIP3      H1              3.5231737182       20.6141848903      -11.9156831047  W2        3289            0.0000000000
      9867      3289  TIP3      H2              4.4967237182       19.4605448903      -12.0306431047  W2        3289            0.0000000000
      9868      3290  TIP3      OH2            13.8055437182       20.4749348903        0.1319468953  W2        3290            0.0000000000
      9869      3290  TIP3      H1             12.8891237182       20.7371048903        0.0443168953  W2        3290            0.0000000000
      9870      3290  TIP3      H2             14.1410437182       20.4718348903       -0.7645231047  W2        3290            0.0000000000
      9871      3291  TIP3      OH2            12.4076437182       24.2250348903       -5.7723231047  W2        3291            0.0000000000
      9872      3291  TIP3      H1             11.6100837182       23.8100548903       -6.1008231047  W2        3291            0.0000000000
      9873      3291  TIP3      H2             12.8527537182       23.5344048903       -5.2812731047  W2        3291            0.0000000000
      9874      3292  TIP3      OH2             1.8652237182       30.1530948903      -13.2018731047  W2        3292            0.0000000000
      9875      3292  TIP3      H1              2.4573737182       30.8525748903      -12.9256331047  W2        3292            0.0000000000
      9876      3292  TIP3      H2              2.3245237182       29.7200448903      -13.9214131047  W2        3292            0.0000000000
      9877      3293  TIP3      OH2             0.1811437182       22.8173948903      -14.0859331047  W2        3293            0.0000000000
      9878      3293  TIP3      H1              0.1364037182       23.7567048903      -13.9072331047  W2        3293            0.0000000000
      9879      3293  TIP3      H2             -0.7065362818       22.5818848903      -14.3557231047  W2        3293            0.0000000000
      9880      3294  TIP3      OH2            13.4941037182       33.4812848903       -4.1499731047  W2        3294            0.0000000000
      9881      3294  TIP3      H1             13.3385337182       34.1597248903       -4.8070431047  W2        3294            0.0000000000
      9882      3294  TIP3      H2             14.4267437182       33.5532148903       -3.9469131047  W2        3294            0.0000000000
      9883      3295  TIP3      OH2             0.9893437182       17.5990548903       -5.4128331047  W2        3295            0.0000000000
      9884      3295  TIP3      H1              0.7603237182       17.6583048903       -6.3403331047  W2        3295            0.0000000000
      9885      3295  TIP3      H2              0.5466837182       16.8076048903       -5.1064231047  W2        3295            0.0000000000
      9886      3296  TIP3      OH2            -0.0803262818       31.5397648903       -9.2522531047  W2        3296            0.0000000000
      9887      3296  TIP3      H1             -0.9124662818       32.0120348903       -9.2251131047  W2        3296            0.0000000000
      9888      3296  TIP3      H2              0.4655037182       32.0495248903       -9.8509431047  W2        3296            0.0000000000
      9889      3297  TIP3      OH2            -0.7919562818       34.1521348903        2.0775468953  W2        3297            0.0000000000
      9890      3297  TIP3      H1             -0.2517362818       33.9355348903        2.8374668953  W2        3297            0.0000000000
      9891      3297  TIP3      H2             -1.2731562818       33.3467348903        1.8877968953  W2        3297            0.0000000000
      9892      3298  TIP3      OH2             3.8053837182       33.0715748903        3.6979668953  W2        3298            0.0000000000
      9893      3298  TIP3      H1              4.5731037182       32.6126548903        4.0388868953  W2        3298            0.0000000000
      9894      3298  TIP3      H2              3.7840037182       32.8455548903        2.7680868953  W2        3298            0.0000000000
      9895      3299  TIP3      OH2             7.8973437182       32.5796348903      -14.9268531047  W2        3299            0.0000000000
      9896      3299  TIP3      H1              7.2534437182       31.9484948903      -14.6054831047  W2        3299            0.0000000000
      9897      3299  TIP3      H2              8.6591737182       32.0484348903      -15.1585031047  W2        3299            0.0000000000
      9898      3300  TIP3      OH2            10.3822537182       31.4516848903        2.4271168953  W2        3300            0.0000000000
      9899      3300  TIP3      H1             10.0312037182       30.5949848903        2.6701568953  W2        3300            0.0000000000
      9900      3300  TIP3      H2             11.1085737182       31.5943548903        3.0340168953  W2        3300            0.0000000000
      9901      3301  TIP3      OH2            12.5016337182       32.3966248903      -14.6930531047  W2        3301            0.0000000000
      9902      3301  TIP3      H1             12.7846737182       31.6021448903      -14.2403631047  W2        3301            0.0000000000
      9903      3301  TIP3      H2             13.2414237182       32.6297248903      -15.2539431047  W2        3301            0.0000000000
      9904      3302  TIP3      OH2            -0.8850062818       27.9625448903        3.0319768953  W2        3302            0.0000000000
      9905      3302  TIP3      H1             -0.7409562818       27.0606148903        2.7456468953  W2        3302            0.0000000000
      9906      3302  TIP3      H2             -1.6572662818       28.2487548903        2.5442068953  W2        3302            0.0000000000
      9907      3303  TIP3      OH2             3.4563637182       28.3061148903      -14.8355631047  W2        3303            0.0000000000
      9908      3303  TIP3      H1              3.5207737182       27.5120748903      -14.3049231047  W2        3303            0.0000000000
      9909      3303  TIP3      H2              4.1092837182       28.1873948903      -15.5253631047  W2        3303            0.0000000000
      9910      3304  TIP3      OH2             5.7706037182       27.9323548903        2.4646168953  W2        3304            0.0000000000
      9911      3304  TIP3      H1              5.4419837182       28.2031648903        1.6073568953  W2        3304            0.0000000000
      9912      3304  TIP3      H2              5.9224237182       26.9913348903        2.3771168953  W2        3304            0.0000000000
      9913      3305  TIP3      OH2             8.8087037182       29.3532848903      -15.0997631047  W2        3305            0.0000000000
      9914      3305  TIP3      H1              8.5401137182       29.5334948903      -14.1988731047  W2        3305            0.0000000000
      9915      3305  TIP3      H2              8.6022637182       28.4279048903      -15.2311831047  W2        3305            0.0000000000
      9916      3306  TIP3      OH2            11.5051237182       27.8480848903       -0.1521531047  W2        3306            0.0000000000
      9917      3306  TIP3      H1             12.2506037182       28.4364548903       -0.2717531047  W2        3306            0.0000000000
      9918      3306  TIP3      H2             10.7478037182       28.4300548903       -0.0888431047  W2        3306            0.0000000000
      9919      3307  TIP3      OH2            -0.0523562818       25.1628748903        2.4519068953  W2        3307            0.0000000000
      9920      3307  TIP3      H1              0.3557637182       24.3055348903        2.3309668953  W2        3307            0.0000000000
      9921      3307  TIP3      H2             -0.3125962818       25.1770048903        3.3729368953  W2        3307            0.0000000000
      9922      3308  TIP3      OH2             4.6057437182       26.2787348903      -12.5297631047  W2        3308            0.0000000000
      9923      3308  TIP3      H1              4.1459437182       25.7945648903      -11.8439131047  W2        3308            0.0000000000
      9924      3308  TIP3      H2              4.8606137182       25.6102748903      -13.1657131047  W2        3308            0.0000000000
      9925      3309  TIP3      OH2             3.8946737182       24.1714448903       -0.1738031047  W2        3309            0.0000000000
      9926      3309  TIP3      H1              3.2762837182       24.8461048903        0.1066668953  W2        3309            0.0000000000
      9927      3309  TIP3      H2              4.2387937182       24.4928348903       -1.0071831047  W2        3309            0.0000000000
      9928      3310  TIP3      OH2             5.6767837182       24.5219148903      -14.2674431047  W2        3310            0.0000000000
      9929      3310  TIP3      H1              5.4962837182       24.3670348903      -15.1946131047  W2        3310            0.0000000000
      9930      3310  TIP3      H2              6.6268337182       24.6297848903      -14.2226531047  W2        3310            0.0000000000
      9931      3311  TIP3      OH2             8.9144937182       26.6429748903        3.1036768953  W2        3311            0.0000000000
      9932      3311  TIP3      H1              9.8676137182       26.7268848903        3.0762768953  W2        3311            0.0000000000
      9933      3311  TIP3      H2              8.7539537182       25.9311548903        3.7231668953  W2        3311            0.0000000000
      9934      3312  TIP3      OH2            15.0666137182       26.8763348903      -14.8216331047  W2        3312            0.0000000000
      9935      3312  TIP3      H1             14.7930937182       26.4518848903      -15.6348031047  W2        3312            0.0000000000
      9936      3312  TIP3      H2             15.1060237182       27.8077848903      -15.0385931047  W2        3312            0.0000000000
      9937      3313  TIP3      OH2             4.2340437182       21.5265248903        0.9085068953  W2        3313            0.0000000000
      9938      3313  TIP3      H1              4.3841337182       20.7976548903        0.3064768953  W2        3313            0.0000000000
      9939      3313  TIP3      H2              4.2362837182       22.3036948903        0.3497268953  W2        3313            0.0000000000
      9940      3314  TIP3      OH2             4.6466137182       19.8961048903       -1.5987531047  W2        3314            0.0000000000
      9941      3314  TIP3      H1              5.1823637182       20.3477748903       -2.2508231047  W2        3314            0.0000000000
      9942      3314  TIP3      H2              3.7945737182       19.7880848903       -2.0213431047  W2        3314            0.0000000000
      9943      3315  TIP3      OH2             6.2284537182       25.3357248903       -1.3592331047  W2        3315            0.0000000000
      9944      3315  TIP3      H1              6.9789337182       25.1794748903       -1.9324531047  W2        3315            0.0000000000
      9945      3315  TIP3      H2              5.8892837182       26.1873848903       -1.6346831047  W2        3315            0.0000000000
      9946      3316  TIP3      OH2            10.6440737182       23.1509048903        3.6692968953  W2        3316            0.0000000000
      9947      3316  TIP3      H1             10.8362037182       22.2198448903        3.5577468953  W2        3316            0.0000000000
      9948      3316  TIP3      H2             11.5017037182       23.5758548903        3.6588368953  W2        3316            0.0000000000
      9949      3317  TIP3      OH2            11.9607937182       25.9394248903        1.7465668953  W2        3317            0.0000000000
      9950      3317  TIP3      H1             11.6792937182       26.6488848903        1.1689468953  W2        3317            0.0000000000
      9951      3317  TIP3      H2             12.9032237182       25.8667248903        1.5956868953  W2        3317            0.0000000000
      9952      3318  TIP3      OH2             2.7126737182       22.7248748903        2.8200668953  W2        3318            0.0000000000
      9953      3318  TIP3      H1              1.9455737182       22.1923548903        2.6098268953  W2        3318            0.0000000000
      9954      3318  TIP3      H2              3.3915737182       22.4149148903        2.2206968953  W2        3318            0.0000000000
      9955      3319  TIP3      OH2             5.4521637182       17.3526748903       -1.1673931047  W2        3319            0.0000000000
      9956      3319  TIP3      H1              5.3541237182       18.2989948903       -1.2727731047  W2        3319            0.0000000000
      9957      3319  TIP3      H2              4.7097837182       16.9800548903       -1.6430431047  W2        3319            0.0000000000
      9958      3320  TIP3      OH2             6.7162137182       21.6742148903        2.3964468953  W2        3320            0.0000000000
      9959      3320  TIP3      H1              6.4807537182       21.4548848903        3.2979368953  W2        3320            0.0000000000
      9960      3320  TIP3      H2              5.9329037182       21.4673348903        1.8866968953  W2        3320            0.0000000000
      9961      3321  TIP3      OH2             9.4318737182       20.8015648903        1.4717968953  W2        3321            0.0000000000
      9962      3321  TIP3      H1              8.4844137182       20.8335348903        1.6041268953  W2        3321            0.0000000000
      9963      3321  TIP3      H2              9.7445437182       20.1762748903        2.1256168953  W2        3321            0.0000000000
      9964      3322  TIP3      OH2            11.0660237182       19.4356748903        3.4769868953  W2        3322            0.0000000000
      9965      3322  TIP3      H1             10.9692037182       18.4834048903        3.4711768953  W2        3322            0.0000000000
      9966      3322  TIP3      H2             10.7443337182       19.7043548903        4.3375368953  W2        3322            0.0000000000
      9967      3323  TIP3      OH2             0.8929537182       20.6452548903        2.5245368953  W2        3323            0.0000000000
      9968      3323  TIP3      H1              1.1046937182       19.9388648903        1.9142868953  W2        3323            0.0000000000
      9969      3323  TIP3      H2              0.7817037182       20.2078548903        3.3686568953  W2        3323            0.0000000000
      9970      3324  TIP3      OH2             5.6739737182       16.6464148903        1.5038868953  W2        3324            0.0000000000
      9971      3324  TIP3      H1              6.3858137182       16.0066348903        1.4897968953  W2        3324            0.0000000000
      9972      3324  TIP3      H2              5.5730137182       16.9132448903        0.5901968953  W2        3324            0.0000000000
      9973      3325  TIP3      OH2             6.0277237182       18.3292548903        3.5575168953  W2        3325            0.0000000000
      9974      3325  TIP3      H1              5.8959437182       17.8536348903        2.7373668953  W2        3325            0.0000000000
      9975      3325  TIP3      H2              5.4284637182       19.0736148903        3.5022268953  W2        3325            0.0000000000
      9976      3326  TIP3      OH2             5.5739537182       35.2122848903      -13.2660831047  W2        3326            0.0000000000
      9977      3326  TIP3      H1              6.5070237182       35.3701548903      -13.1222431047  W2        3326            0.0000000000
      9978      3326  TIP3      H2              5.3098337182       35.8875848903      -13.8909331047  W2        3326            0.0000000000
      9979      3327  TIP3      OH2            -0.8575562818       29.8486648903      -13.7832731047  W2        3327            0.0000000000
      9980      3327  TIP3      H1              0.0563637182       29.9275548903      -13.5098831047  W2        3327            0.0000000000
      9981      3327  TIP3      H2             -0.8502462818       29.1616248903      -14.4497131047  W2        3327            0.0000000000
      9982      3328  TIP3      OH2            -2.2084962818       35.2415148903       -8.7058831047  W2        3328            0.0000000000
      9983      3328  TIP3      H1             -2.8557862818       34.7796848903       -9.2387631047  W2        3328            0.0000000000
      9984      3328  TIP3      H2             -1.8540362818       34.5698448903       -8.1232631047  W2        3328            0.0000000000
      9985      3329  TIP3      OH2            -1.3385762818       33.3222148903       -6.9012631047  W2        3329            0.0000000000
      9986      3329  TIP3      H1             -1.6728962818       32.4419448903       -6.7292431047  W2        3329            0.0000000000
      9987      3329  TIP3      H2             -1.1163362818       33.6677148903       -6.0367031047  W2        3329            0.0000000000
      9988      3330  TIP3      OH2            16.2099037182       34.1318548903       -3.9207831047  W2        3330            0.0000000000
      9989      3330  TIP3      H1             16.1885737182       34.3166948903       -2.9818431047  W2        3330            0.0000000000
      9990      3330  TIP3      H2             16.9005237182       34.7002548903       -4.2616431047  W2        3330            0.0000000000
      9991      3331  TIP3      OH2            15.7731937182       33.6989648903       -0.9988731047  W2        3331            0.0000000000
      9992      3331  TIP3      H1             15.2860637182       32.9633748903       -1.3701331047  W2        3331            0.0000000000
      9993      3331  TIP3      H2             16.3224637182       33.3053548903       -0.3209331047  W2        3331            0.0000000000
      9994      3332  TIP3      OH2            14.2239237182       29.4887748903        3.6391568953  W2        3332            0.0000000000
      9995      3332  TIP3      H1             13.3580337182       29.3837448903        4.0333868953  W2        3332            0.0000000000
      9996      3332  TIP3      H2             14.6005137182       30.2471048903        4.0856268953  W2        3332            0.0000000000
      9997      3333  TIP3      OH2            15.5248937182       27.7451448903      -10.8465931047  W2        3333            0.0000000000
      9998      3333  TIP3      H1             16.3750337182       28.1662348903      -10.7194331047  W2        3333            0.0000000000
      9999      3333  TIP3      H2             15.5304037182       27.0051548903      -10.2394531047  W2        3333            0.0000000000
     10000      3334  TIP3      OH2            15.9194537182       25.7988848903       -9.0230231047  W2        3334            0.0000000000
     10001      3334  TIP3      H1             15.1929137182       25.3191448903       -8.6252631047  W2        3334            0.0000000000
     10002      3334  TIP3      H2             16.5007837182       26.0043548903       -8.2908631047  W2        3334            0.0000000000
     10003      3335  TIP3      OH2            15.6785737182       28.5836348903       -4.0752631047  W2        3335            0.0000000000
     10004      3335  TIP3      H1             16.5119937182       28.2056348903       -4.3559031047  W2        3335            0.0000000000
     10005      3335  TIP3      H2             15.7906037182       29.5267548903       -4.1943531047  W2        3335            0.0000000000
     10006      3336  TIP3      OH2            14.1648037182       31.4613848903       -1.7684231047  W2        3336            0.0000000000
     10007      3336  TIP3      H1             13.5173337182       31.7865348903       -1.1429031047  W2        3336            0.0000000000
     10008      3336  TIP3      H2             13.6472037182       31.0211548903       -2.4425931047  W2        3336            0.0000000000
     10009      3337  TIP3      OH2            16.1877637182       25.6997348903      -12.6318931047  W2        3337            0.0000000000
     10010      3337  TIP3      H1             15.6658737182       26.0561448903      -13.3508031047  W2        3337            0.0000000000
     10011      3337  TIP3      H2             16.1546837182       26.3745148903      -11.9538031047  W2        3337            0.0000000000
     10012      3338  TIP3      OH2            14.5366637182       22.9392948903      -14.0811831047  W2        3338            0.0000000000
     10013      3338  TIP3      H1             14.6331037182       23.6059948903      -14.7612131047  W2        3338            0.0000000000
     10014      3338  TIP3      H2             14.3966237182       22.1239248903      -14.5626331047  W2        3338            0.0000000000
     10015      3339  TIP3      OH2            13.7061337182       24.3195348903       -8.4601531047  W2        3339            0.0000000000
     10016      3339  TIP3      H1             13.5560137182       23.3743948903       -8.4803731047  W2        3339            0.0000000000
     10017      3339  TIP3      H2             13.3525837182       24.6006748903       -7.6162431047  W2        3339            0.0000000000
     10018      3340  TIP3      OH2            -1.2586262818       26.3977548903       -4.4497731047  W2        3340            0.0000000000
     10019      3340  TIP3      H1             -1.0743362818       26.3159248903       -5.3854831047  W2        3340            0.0000000000
     10020      3340  TIP3      H2             -0.4093362818       26.2734548903       -4.0261331047  W2        3340            0.0000000000
     10021      3341  TIP3      OH2            14.5624237182       26.2898648903        1.1786768953  W2        3341            0.0000000000
     10022      3341  TIP3      H1             15.1451537182       25.5550948903        1.3703968953  W2        3341            0.0000000000
     10023      3341  TIP3      H2             15.1263537182       27.0618948903        1.2252568953  W2        3341            0.0000000000
     10024      3342  TIP3      OH2            16.0591337182       24.1924448903        1.8632168953  W2        3342            0.0000000000
     10025      3342  TIP3      H1             15.1958037182       23.8136548903        1.6976868953  W2        3342            0.0000000000
     10026      3342  TIP3      H2             16.6635037182       23.4539248903        1.7887968953  W2        3342            0.0000000000
     10027      3343  TIP3      OH2            13.7840437182       20.3472748903      -14.9636331047  W2        3343            0.0000000000
     10028      3343  TIP3      H1             14.3946237182       19.9759548903      -14.3268131047  W2        3343            0.0000000000
     10029      3343  TIP3      H2             12.9471937182       19.9259648903      -14.7676331047  W2        3343            0.0000000000
     10030      3344  TIP3      OH2            13.4166137182       21.9021148903       -9.9976431047  W2        3344            0.0000000000
     10031      3344  TIP3      H1             13.6963237182       20.9951548903       -9.8734731047  W2        3344            0.0000000000
     10032      3344  TIP3      H2             14.1757837182       22.3362648903      -10.3867231047  W2        3344            0.0000000000
     10033      3345  TIP3      OH2            14.0284437182       22.4838548903       -4.5617531047  W2        3345            0.0000000000
     10034      3345  TIP3      H1             14.9612437182       22.6958448903       -4.5961531047  W2        3345            0.0000000000
     10035      3345  TIP3      H2             13.7931937182       22.5850648903       -3.6394531047  W2        3345            0.0000000000
     10036      3346  TIP3      OH2            14.0576337182       23.2203848903       -1.7858131047  W2        3346            0.0000000000
     10037      3346  TIP3      H1             13.2147637182       23.4884248903       -1.4198331047  W2        3346            0.0000000000
     10038      3346  TIP3      H2             14.5000637182       24.0425748903       -1.9967031047  W2        3346            0.0000000000
     10039      3347  TIP3      OH2            -1.6611462818       21.6682548903        1.6911068953  W2        3347            0.0000000000
     10040      3347  TIP3      H1             -0.7416562818       21.5460848903        1.9274168953  W2        3347            0.0000000000
     10041      3347  TIP3      H2             -2.1106962818       20.9182248903        2.0804568953  W2        3347            0.0000000000
     10042      3348  TIP3      OH2            16.3407937182       17.2004048903        3.5676868953  W2        3348            0.0000000000
     10043      3348  TIP3      H1             16.6904937182       16.5467548903        2.9621568953  W2        3348            0.0000000000
     10044      3348  TIP3      H2             16.4877437182       18.0378148903        3.1279468953  W2        3348            0.0000000000
     10045      3349  TIP3      OH2            14.0300937182       19.1650448903       -9.9494431047  W2        3349            0.0000000000
     10046      3349  TIP3      H1             14.2125937182       18.7161948903       -9.1239431047  W2        3349            0.0000000000
     10047      3349  TIP3      H2             13.4303837182       18.5804848903      -10.4129831047  W2        3349            0.0000000000
     10048      3350  TIP3      OH2            -0.4398962818       19.9804148903       -5.4176031047  W2        3350            0.0000000000
     10049      3350  TIP3      H1              0.0052637182       19.1886648903       -5.1156331047  W2        3350            0.0000000000
     10050      3350  TIP3      H2              0.0264037182       20.6969348903       -4.9870431047  W2        3350            0.0000000000
     10051      3351  TIP3      OH2            -2.1358662818       22.9797148903       -4.3485831047  W2        3351            0.0000000000
     10052      3351  TIP3      H1             -1.6438862818       22.7587648903       -5.1393831047  W2        3351            0.0000000000
     10053      3351  TIP3      H2             -1.7737762818       23.8200548903       -4.0676331047  W2        3351            0.0000000000
     10054      3352  TIP3      OH2            15.8605137182       19.3098648903        1.9168168953  W2        3352            0.0000000000
     10055      3352  TIP3      H1             14.9430837182       19.5805748903        1.8811668953  W2        3352            0.0000000000
     10056      3352  TIP3      H2             15.9834537182       18.7747048903        1.1327868953  W2        3352            0.0000000000
     10057      3353  TIP3      OH2            15.8967137182       19.2328548903      -13.4214131047  W2        3353            0.0000000000
     10058      3353  TIP3      H1             16.3089737182       18.5114248903      -13.8966131047  W2        3353            0.0000000000
     10059      3353  TIP3      H2             16.5783637182       19.9023148903      -13.3629831047  W2        3353            0.0000000000
     10060      3354  TIP3      OH2            -1.8222162818       19.2376248903      -10.2943431047  W2        3354            0.0000000000
     10061      3354  TIP3      H1             -2.7473762818       19.4462848903      -10.4237931047  W2        3354            0.0000000000
     10062      3354  TIP3      H2             -1.3682262818       19.7217048903      -10.9841131047  W2        3354            0.0000000000
     10063      3355  TIP3      OH2            12.9485037182       34.2217948903       -8.3486031047  W2        3355            0.0000000000
     10064      3355  TIP3      H1             13.6007937182       33.8740048903       -8.9566931047  W2        3355            0.0000000000
     10065      3355  TIP3      H2             13.4588837182       34.7101148903       -7.7026331047  W2        3355            0.0000000000
     10066      3356  TIP3      OH2            -1.8586762818       17.9755248903       -1.9500931047  W2        3356            0.0000000000
     10067      3356  TIP3      H1             -2.5236262818       17.7295548903       -1.3070031047  W2        3356            0.0000000000
     10068      3356  TIP3      H2             -2.3015462818       18.5975648903       -2.5272931047  W2        3356            0.0000000000
     10069      3357  TIP3      OH2             0.3332537182       31.1509348903        2.1944868953  W2        3357            0.0000000000
     10070      3357  TIP3      H1             -0.4874962818       31.3255848903        1.7339568953  W2        3357            0.0000000000
     10071      3357  TIP3      H2              0.0810337182       31.0774048903        3.1149268953  W2        3357            0.0000000000
     10072      3358  TIP3      OH2             3.2875437182       32.1250548903       -1.5471131047  W2        3358            0.0000000000
     10073      3358  TIP3      H1              2.8626537182       32.9349048903       -1.8296531047  W2        3358            0.0000000000
     10074      3358  TIP3      H2              4.1918237182       32.2104648903       -1.8491331047  W2        3358            0.0000000000
     10075      3359  TIP3      OH2             7.5986837182       33.5240548903        1.4122568953  W2        3359            0.0000000000
     10076      3359  TIP3      H1              7.7834337182       33.1906648903        2.2902868953  W2        3359            0.0000000000
     10077      3359  TIP3      H2              8.4451337182       33.8339148903        1.0901768953  W2        3359            0.0000000000
     10078      3360  TIP3      OH2             9.9437237182       34.8099448903        0.6563968953  W2        3360            0.0000000000
     10079      3360  TIP3      H1             10.6206137182       34.1771748903        0.4163168953  W2        3360            0.0000000000
     10080      3360  TIP3      H2             10.2656037182       35.2109948903        1.4637268953  W2        3360            0.0000000000
     10081      3361  TIP3      OH2            14.8611037182       17.3994948903       -0.2641031047  W2        3361            0.0000000000
     10082      3361  TIP3      H1             14.0484537182       17.7245248903       -0.6516331047  W2        3361            0.0000000000
     10083      3361  TIP3      H2             15.0939537182       16.6393448903       -0.7971931047  W2        3361            0.0000000000
     10084      3362  TIP3      OH2             0.6892137182       35.3814448903       -1.4995831047  W2        3362            0.0000000000
     10085      3362  TIP3      H1             -0.0311462818       35.8215448903       -1.9508131047  W2        3362            0.0000000000
     10086      3362  TIP3      H2              0.3236137182       35.1309148903       -0.6511831047  W2        3362            0.0000000000
     10087      3363  TIP3      OH2             3.1564737182       34.9818348903       -2.4698631047  W2        3363            0.0000000000
     10088      3363  TIP3      H1              2.2916937182       35.0536848903       -2.0658531047  W2        3363            0.0000000000
     10089      3363  TIP3      H2              3.1013737182       35.5285648903       -3.2536131047  W2        3363            0.0000000000
     10090      3364  TIP3      OH2             7.8670337182       34.8697248903       -3.2942631047  W2        3364            0.0000000000
     10091      3364  TIP3      H1              7.4104337182       35.3986948903       -3.9484231047  W2        3364            0.0000000000
     10092      3364  TIP3      H2              8.0298337182       35.4728648903       -2.5690331047  W2        3364            0.0000000000
     10093      3365  TIP3      OH2            10.1946637182       33.7476848903       -2.3492331047  W2        3365            0.0000000000
     10094      3365  TIP3      H1              9.2900337182       33.9127048903       -2.6150231047  W2        3365            0.0000000000
     10095      3365  TIP3      H2             10.6235237182       34.6009048903       -2.4148931047  W2        3365            0.0000000000
     10096      3366  TIP3      OH2            12.7988537182       35.3175948903       -2.0544531047  W2        3366            0.0000000000
     10097      3366  TIP3      H1             12.6170537182       36.2334848903       -2.2649631047  W2        3366            0.0000000000
     10098      3366  TIP3      H2             12.9756337182       34.9073048903       -2.9009931047  W2        3366            0.0000000000
     10099      3367  TIP3      OH2             0.1040237182       34.0046948903       -4.5894031047  W2        3367            0.0000000000
     10100      3367  TIP3      H1              0.0856237182       33.5792048903       -3.7321731047  W2        3367            0.0000000000
     10101      3367  TIP3      H2              0.9088137182       33.6861948903       -4.9981831047  W2        3367            0.0000000000
     10102      3368  TIP3      OH2             2.2453337182       32.7145648903       -5.9344131047  W2        3368            0.0000000000
     10103      3368  TIP3      H1              2.0264037182       31.7983048903       -5.7648131047  W2        3368            0.0000000000
     10104      3368  TIP3      H2              3.0695537182       32.8546048903       -5.4682731047  W2        3368            0.0000000000
     10105      3369  TIP3      OH2             4.7825837182       33.1844948903       -5.0856131047  W2        3369            0.0000000000
     10106      3369  TIP3      H1              4.9951537182       32.2963948903       -5.3725231047  W2        3369            0.0000000000
     10107      3369  TIP3      H2              4.8470937182       33.1502648903       -4.1312131047  W2        3369            0.0000000000
     10108      3370  TIP3      OH2             8.2909537182       18.8485548903       -5.9412831047  W2        3370            0.0000000000
     10109      3370  TIP3      H1              7.6166337182       18.2191148903       -5.6857031047  W2        3370            0.0000000000
     10110      3370  TIP3      H2              8.8548737182       18.3644448903       -6.5444931047  W2        3370            0.0000000000
     10111      3371  TIP3      OH2            13.4336737182       16.9559548903       -5.8285731047  W2        3371            0.0000000000
     10112      3371  TIP3      H1             14.0374337182       17.5034948903       -6.3304731047  W2        3371            0.0000000000
     10113      3371  TIP3      H2             12.5638737182       17.2749948903       -6.0691631047  W2        3371            0.0000000000
     10114      3372  TIP3      OH2            15.1607137182       18.0948248903       -7.4954831047  W2        3372            0.0000000000
     10115      3372  TIP3      H1             15.7724637182       17.5803948903       -8.0221231047  W2        3372            0.0000000000
     10116      3372  TIP3      H2             15.5430537182       18.9720348903       -7.4720431047  W2        3372            0.0000000000
     10117      3373  TIP3      OH2             0.6177037182       17.4825848903       -8.1192931047  W2        3373            0.0000000000
     10118      3373  TIP3      H1             -0.1593162818       17.2480748903       -8.6267031047  W2        3373            0.0000000000
     10119      3373  TIP3      H2              1.1480637182       16.6857948903       -8.1104931047  W2        3373            0.0000000000
     10120      3374  TIP3      OH2            -0.5459562818       17.2803948903      -12.3156831047  W2        3374            0.0000000000
     10121      3374  TIP3      H1             -0.1068862818       17.8914448903      -12.9073331047  W2        3374            0.0000000000
     10122      3374  TIP3      H2             -1.1797162818       17.8188048903      -11.8416831047  W2        3374            0.0000000000
     10123      3375  TIP3      OH2             5.1969637182       17.4092948903       -8.3059831047  W2        3375            0.0000000000
     10124      3375  TIP3      H1              6.0713037182       17.7977248903       -8.3355531047  W2        3375            0.0000000000
     10125      3375  TIP3      H2              5.0610437182       17.1940748903       -7.3832631047  W2        3375            0.0000000000
     10126      3376  TIP3      OH2            10.7538037182       17.4392748903       -6.6568131047  W2        3376            0.0000000000
     10127      3376  TIP3      H1             10.8299637182       17.5344348903       -7.6062131047  W2        3376            0.0000000000
     10128      3376  TIP3      H2             10.4787237182       16.5315648903       -6.5279031047  W2        3376            0.0000000000
     10129      3377  TIP3      OH2            12.1070637182       17.4650548903      -10.9643131047  W2        3377            0.0000000000
     10130      3377  TIP3      H1             11.4041737182       18.0799748903      -11.1741731047  W2        3377            0.0000000000
     10131      3377  TIP3      H2             11.6622037182       16.6277248903      -10.8332231047  W2        3377            0.0000000000
     10132      3378  TIP3      OH2            -0.6450062818       33.2286148903      -11.4181731047  W2        3378            0.0000000000
     10133      3378  TIP3      H1             -1.3300162818       33.1905048903      -12.0856631047  W2        3378            0.0000000000
     10134      3378  TIP3      H2             -0.6412862818       34.1413748903      -11.1299631047  W2        3378            0.0000000000
     10135      3379  TIP3      OH2             1.3149537182       19.1965448903      -13.8732731047  W2        3379            0.0000000000
     10136      3379  TIP3      H1              1.8062937182       18.5667848903      -14.4007231047  W2        3379            0.0000000000
     10137      3379  TIP3      H2              1.9385837182       19.4924848903      -13.2101531047  W2        3379            0.0000000000
     10138      3380  TIP3      OH2             6.3409637182       19.4896948903      -11.4162231047  W2        3380            0.0000000000
     10139      3380  TIP3      H1              6.5190937182       18.8430148903      -10.7333631047  W2        3380            0.0000000000
     10140      3380  TIP3      H2              6.2875837182       20.3234648903      -10.9491131047  W2        3380            0.0000000000
     10141      3381  TIP3      OH2             8.2193437182       34.4381048903      -13.0205531047  W2        3381            0.0000000000
     10142      3381  TIP3      H1              9.0853637182       34.8048448903      -13.1987331047  W2        3381            0.0000000000
     10143      3381  TIP3      H2              7.9726237182       33.9989048903      -13.8344731047  W2        3381            0.0000000000
     10144      3382  TIP3      OH2            14.9283037182       34.0011348903      -10.3414431047  W2        3382            0.0000000000
     10145      3382  TIP3      H1             14.7340137182       33.2533448903      -10.9064831047  W2        3382            0.0000000000
     10146      3382  TIP3      H2             14.8893137182       34.7591448903      -10.9246531047  W2        3382            0.0000000000
     10147      3383  TIP3      OH2             0.5755037182       17.9967748903        1.3983268953  W2        3383            0.0000000000
     10148      3383  TIP3      H1              0.2093237182       17.2310348903        1.8407968953  W2        3383            0.0000000000
     10149      3383  TIP3      H2              1.4883537182       18.0257948903        1.6848368953  W2        3383            0.0000000000
     10150      3384  TIP3      OH2             2.5485837182       17.3472148903        2.9340368953  W2        3384            0.0000000000
     10151      3384  TIP3      H1              3.4469437182       17.0732348903        2.7493768953  W2        3384            0.0000000000
     10152      3384  TIP3      H2              2.1618937182       16.6048148903        3.3982968953  W2        3384            0.0000000000
     10153      3385  TIP3      OH2             1.1731137182       34.1486948903      -14.3929631047  W2        3385            0.0000000000
     10154      3385  TIP3      H1              0.9055737182       34.4349848903      -13.5196531047  W2        3385            0.0000000000
     10155      3385  TIP3      H2              1.9443737182       33.6026148903      -14.2407131047  W2        3385            0.0000000000
     10156      3386  TIP3      OH2            10.9698137182       16.6797448903        3.1163168953  W2        3386            0.0000000000
     10157      3386  TIP3      H1             11.0465337182       16.2538148903        3.9700868953  W2        3386            0.0000000000
     10158      3386  TIP3      H2             11.8634737182       16.6932148903        2.7736668953  W2        3386            0.0000000000
     10159      3387  TIP3      OH2            14.1459237182       32.7523748903        1.8087368953  W2        3387            0.0000000000
     10160      3387  TIP3      H1             13.3641137182       32.5661748903        1.2887968953  W2        3387            0.0000000000
     10161      3387  TIP3      H2             14.0739137182       33.6818048903        2.0259868953  W2        3387            0.0000000000
     10162      3388  TIP3      OH2            28.5519637182       26.6388148903       -8.1605431047  W2        3388            0.0000000000
     10163      3388  TIP3      H1             28.6410737182       27.5826348903       -8.2928331047  W2        3388            0.0000000000
     10164      3388  TIP3      H2             27.9137237182       26.3634548903       -8.8186031047  W2        3388            0.0000000000
     10165      3389  TIP3      OH2            27.4850937182       25.8938848903       -4.7417231047  W2        3389            0.0000000000
     10166      3389  TIP3      H1             27.4468437182       25.2475148903       -4.0367631047  W2        3389            0.0000000000
     10167      3389  TIP3      H2             27.1627437182       25.4273248903       -5.5128531047  W2        3389            0.0000000000
     10168      3390  TIP3      OH2            19.8535937182       25.5080948903       -3.1487331047  W2        3390            0.0000000000
     10169      3390  TIP3      H1             19.8948037182       24.8824248903       -2.4254931047  W2        3390            0.0000000000
     10170      3390  TIP3      H2             20.5563637182       26.1319548903       -2.9666931047  W2        3390            0.0000000000
     10171      3391  TIP3      OH2            31.1911137182       28.8329248903       -6.4402131047  W2        3391            0.0000000000
     10172      3391  TIP3      H1             30.7503837182       28.1125248903       -5.9896531047  W2        3391            0.0000000000
     10173      3391  TIP3      H2             31.1780837182       29.5536448903       -5.8104431047  W2        3391            0.0000000000
     10174      3392  TIP3      OH2            20.7769037182       29.9579848903       -4.6138231047  W2        3392            0.0000000000
     10175      3392  TIP3      H1             20.4074237182       29.1560348903       -4.9833931047  W2        3392            0.0000000000
     10176      3392  TIP3      H2             21.7180137182       29.7894748903       -4.5674831047  W2        3392            0.0000000000
     10177      3393  TIP3      OH2            17.3869537182       23.6182448903       -9.2209431047  W2        3393            0.0000000000
     10178      3393  TIP3      H1             16.9392937182       24.4641148903       -9.2392931047  W2        3393            0.0000000000
     10179      3393  TIP3      H2             16.8260737182       23.0386648903       -9.7364331047  W2        3393            0.0000000000
     10180      3394  TIP3      OH2            18.0975637182       25.7802048903       -7.0951431047  W2        3394            0.0000000000
     10181      3394  TIP3      H1             18.3109137182       25.0103648903       -6.5678431047  W2        3394            0.0000000000
     10182      3394  TIP3      H2             18.8353237182       25.8698748903       -7.6983831047  W2        3394            0.0000000000
     10183      3395  TIP3      OH2            28.3026637182       33.9370948903       -6.2281731047  W2        3395            0.0000000000
     10184      3395  TIP3      H1             28.9223037182       33.2605648903       -6.5012531047  W2        3395            0.0000000000
     10185      3395  TIP3      H2             28.0944037182       33.7191748903       -5.3196831047  W2        3395            0.0000000000
     10186      3396  TIP3      OH2            25.8745337182       28.3260248903       -4.3356231047  W2        3396            0.0000000000
     10187      3396  TIP3      H1             26.1783237182       27.6401648903       -4.9302131047  W2        3396            0.0000000000
     10188      3396  TIP3      H2             26.5959337182       28.4448948903       -3.7178231047  W2        3396            0.0000000000
     10189      3397  TIP3      OH2            34.5375137182       19.9275548903       -3.4750031047  W2        3397            0.0000000000
     10190      3397  TIP3      H1             34.5867337182       20.5376748903       -2.7390931047  W2        3397            0.0000000000
     10191      3397  TIP3      H2             34.9630237182       20.3886448903       -4.1978931047  W2        3397            0.0000000000
     10192      3398  TIP3      OH2            29.0152337182       22.7202648903       -4.0081431047  W2        3398            0.0000000000
     10193      3398  TIP3      H1             29.1578237182       21.7739648903       -3.9879831047  W2        3398            0.0000000000
     10194      3398  TIP3      H2             28.9091337182       22.9272448903       -4.9366531047  W2        3398            0.0000000000
     10195      3399  TIP3      OH2            22.1700637182       20.8219048903       -6.7356631047  W2        3399            0.0000000000
     10196      3399  TIP3      H1             22.2131737182       21.6817548903       -7.1540331047  W2        3399            0.0000000000
     10197      3399  TIP3      H2             21.7124737182       20.2693748903       -7.3693431047  W2        3399            0.0000000000
     10198      3400  TIP3      OH2            29.8923337182       20.9524648903       -8.3348331047  W2        3400            0.0000000000
     10199      3400  TIP3      H1             30.5387637182       20.6237848903       -7.7100731047  W2        3400            0.0000000000
     10200      3400  TIP3      H2             30.4022737182       21.4703648903       -8.9576931047  W2        3400            0.0000000000
     10201      3401  TIP3      OH2            18.7902137182       23.2184848903       -5.9735231047  W2        3401            0.0000000000
     10202      3401  TIP3      H1             19.4438737182       22.6686548903       -5.5415131047  W2        3401            0.0000000000
     10203      3401  TIP3      H2             18.8141437182       22.9443848903       -6.8903231047  W2        3401            0.0000000000
     10204      3402  TIP3      OH2            23.9466637182       24.7686148903       -6.7583731047  W2        3402            0.0000000000
     10205      3402  TIP3      H1             24.5627637182       24.2421548903       -6.2489731047  W2        3402            0.0000000000
     10206      3402  TIP3      H2             23.3605437182       24.1284848903       -7.1620131047  W2        3402            0.0000000000
     10207      3403  TIP3      OH2            34.9289737182       21.4054748903       -1.2390231047  W2        3403            0.0000000000
     10208      3403  TIP3      H1             34.2404337182       22.0635448903       -1.3343631047  W2        3403            0.0000000000
     10209      3403  TIP3      H2             34.9444337182       21.2082648903       -0.3024831047  W2        3403            0.0000000000
     10210      3404  TIP3      OH2            20.9802537182       19.7397448903       -2.6615831047  W2        3404            0.0000000000
     10211      3404  TIP3      H1             20.7614237182       20.2698048903       -3.4279831047  W2        3404            0.0000000000
     10212      3404  TIP3      H2             20.3123437182       19.9662948903       -2.0144431047  W2        3404            0.0000000000
     10213      3405  TIP3      OH2            28.3492337182       29.2398548903       -9.1176731047  W2        3405            0.0000000000
     10214      3405  TIP3      H1             28.0537437182       28.9170848903       -9.9689831047  W2        3405            0.0000000000
     10215      3405  TIP3      H2             28.0250137182       30.1395248903       -9.0764131047  W2        3405            0.0000000000
     10216      3406  TIP3      OH2            23.5493937182       27.4153148903       -2.3742131047  W2        3406            0.0000000000
     10217      3406  TIP3      H1             22.8093037182       28.0134648903       -2.2706931047  W2        3406            0.0000000000
     10218      3406  TIP3      H2             24.2633437182       27.9692748903       -2.6898531047  W2        3406            0.0000000000
     10219      3407  TIP3      OH2            31.6561737182       20.2433948903       -6.3542431047  W2        3407            0.0000000000
     10220      3407  TIP3      H1             31.4409737182       19.4777348903       -5.8216431047  W2        3407            0.0000000000
     10221      3407  TIP3      H2             32.3119137182       20.7158548903       -5.8413931047  W2        3407            0.0000000000
     10222      3408  TIP3      OH2            20.5739837182       21.6319248903       -4.7093631047  W2        3408            0.0000000000
     10223      3408  TIP3      H1             21.1876137182       22.2646848903       -4.3361231047  W2        3408            0.0000000000
     10224      3408  TIP3      H2             21.0860537182       21.1594248903       -5.3656731047  W2        3408            0.0000000000
     10225      3409  TIP3      OH2            21.9568237182       29.3796148903       -1.5870631047  W2        3409            0.0000000000
     10226      3409  TIP3      H1             21.9515837182       30.2589648903       -1.9651331047  W2        3409            0.0000000000
     10227      3409  TIP3      H2             21.1032337182       29.2960248903       -1.1620731047  W2        3409            0.0000000000
     10228      3410  TIP3      OH2            18.0779137182       29.0504048903      -10.8051331047  W2        3410            0.0000000000
     10229      3410  TIP3      H1             17.8060037182       29.2795048903      -11.6938431047  W2        3410            0.0000000000
     10230      3410  TIP3      H2             18.1234837182       29.8882848903      -10.3446031047  W2        3410            0.0000000000
     10231      3411  TIP3      OH2            31.7028837182       30.6719948903       -4.0922831047  W2        3411            0.0000000000
     10232      3411  TIP3      H1             30.7612537182       30.7303848903       -3.9305931047  W2        3411            0.0000000000
     10233      3411  TIP3      H2             31.9794937182       31.5780448903       -4.2293131047  W2        3411            0.0000000000
     10234      3412  TIP3      OH2            32.0035837182       18.9585248903       -2.6748931047  W2        3412            0.0000000000
     10235      3412  TIP3      H1             31.2675037182       19.5692348903       -2.7127631047  W2        3412            0.0000000000
     10236      3412  TIP3      H2             32.6869837182       19.3734248903       -3.2012531047  W2        3412            0.0000000000
     10237      3413  TIP3      OH2            25.0067237182       17.0452548903       -5.2090931047  W2        3413            0.0000000000
     10238      3413  TIP3      H1             24.8891437182       16.0968548903       -5.2632631047  W2        3413            0.0000000000
     10239      3413  TIP3      H2             24.1517337182       17.3778648903       -4.9359831047  W2        3413            0.0000000000
     10240      3414  TIP3      OH2            29.9550037182       32.4533448903       -7.4671231047  W2        3414            0.0000000000
     10241      3414  TIP3      H1             30.3802337182       31.7461348903       -7.9521631047  W2        3414            0.0000000000
     10242      3414  TIP3      H2             30.2720037182       33.2546148903       -7.8839031047  W2        3414            0.0000000000
     10243      3415  TIP3      OH2            31.1146537182       30.3541948903       -8.9584631047  W2        3415            0.0000000000
     10244      3415  TIP3      H1             30.8571337182       29.6642048903       -9.5698731047  W2        3415            0.0000000000
     10245      3415  TIP3      H2             31.1857337182       29.9113148903       -8.1128731047  W2        3415            0.0000000000
     10246      3416  TIP3      OH2            32.8006737182       28.9208648903       -0.4811131047  W2        3416            0.0000000000
     10247      3416  TIP3      H1             32.9403037182       28.3291148903       -1.2204131047  W2        3416            0.0000000000
     10248      3416  TIP3      H2             32.9679537182       29.7934548903       -0.8372331047  W2        3416            0.0000000000
     10249      3417  TIP3      OH2            27.2732137182       25.8828148903      -10.7085131047  W2        3417            0.0000000000
     10250      3417  TIP3      H1             26.5617637182       26.4177848903      -11.0604631047  W2        3417            0.0000000000
     10251      3417  TIP3      H2             27.9641737182       25.9380248903      -11.3686231047  W2        3417            0.0000000000
     10252      3418  TIP3      OH2            27.3271337182       24.3402448903      -13.6700131047  W2        3418            0.0000000000
     10253      3418  TIP3      H1             28.0281237182       24.3629348903      -13.0186131047  W2        3418            0.0000000000
     10254      3418  TIP3      H2             27.6294237182       23.7122148903      -14.3260831047  W2        3418            0.0000000000
     10255      3419  TIP3      OH2            34.6426037182       25.2606648903       -2.4150731047  W2        3419            0.0000000000
     10256      3419  TIP3      H1             33.9900137182       25.9552248903       -2.3259831047  W2        3419            0.0000000000
     10257      3419  TIP3      H2             35.1076337182       25.4707548903       -3.2249131047  W2        3419            0.0000000000
     10258      3420  TIP3      OH2            30.6789837182       26.0921448903       -9.7569231047  W2        3420            0.0000000000
     10259      3420  TIP3      H1             29.9470837182       26.3205148903       -9.1838631047  W2        3420            0.0000000000
     10260      3420  TIP3      H2             31.1262037182       25.3784148903       -9.3021731047  W2        3420            0.0000000000
     10261      3421  TIP3      OH2            30.5763337182       24.2664048903       -0.6892231047  W2        3421            0.0000000000
     10262      3421  TIP3      H1             30.6562437182       25.0298448903       -0.1173731047  W2        3421            0.0000000000
     10263      3421  TIP3      H2             29.9751037182       24.5456448903       -1.3797131047  W2        3421            0.0000000000
     10264      3422  TIP3      OH2            22.3243537182       26.7227648903       -7.8744231047  W2        3422            0.0000000000
     10265      3422  TIP3      H1             21.9938737182       26.3521048903       -8.6927231047  W2        3422            0.0000000000
     10266      3422  TIP3      H2             22.9127637182       26.0521648903       -7.5275931047  W2        3422            0.0000000000
     10267      3423  TIP3      OH2            23.6911037182       30.1508248903       -5.1932031047  W2        3423            0.0000000000
     10268      3423  TIP3      H1             23.5962337182       29.5721348903       -5.9497431047  W2        3423            0.0000000000
     10269      3423  TIP3      H2             24.4204637182       29.7793948903       -4.6969231047  W2        3423            0.0000000000
     10270      3424  TIP3      OH2            22.6909037182       25.4913248903       -4.2409231047  W2        3424            0.0000000000
     10271      3424  TIP3      H1             23.2561537182       25.6127448903       -5.0038031047  W2        3424            0.0000000000
     10272      3424  TIP3      H2             23.0097937182       26.1288248903       -3.6020731047  W2        3424            0.0000000000
     10273      3425  TIP3      OH2            29.0001237182       30.9945148903       -3.5068731047  W2        3425            0.0000000000
     10274      3425  TIP3      H1             28.7597837182       31.6568248903       -2.8589531047  W2        3425            0.0000000000
     10275      3425  TIP3      H2             28.8019437182       30.1600348903       -3.0819131047  W2        3425            0.0000000000
     10276      3426  TIP3      OH2            23.5709737182       29.8905948903        0.4762668953  W2        3426            0.0000000000
     10277      3426  TIP3      H1             23.2597237182       30.6729148903        0.9315868953  W2        3426            0.0000000000
     10278      3426  TIP3      H2             22.9209937182       29.7375048903       -0.2095331047  W2        3426            0.0000000000
     10279      3427  TIP3      OH2            29.5499337182       25.2544348903      -12.0718031047  W2        3427            0.0000000000
     10280      3427  TIP3      H1             30.1294837182       25.4044648903      -11.3249131047  W2        3427            0.0000000000
     10281      3427  TIP3      H2             29.9639337182       25.7251748903      -12.7951631047  W2        3427            0.0000000000
     10282      3428  TIP3      OH2            20.4909637182       26.0887048903       -0.2951631047  W2        3428            0.0000000000
     10283      3428  TIP3      H1             20.5612837182       26.7393848903        0.4033368953  W2        3428            0.0000000000
     10284      3428  TIP3      H2             19.6001837182       26.1914548903       -0.6300731047  W2        3428            0.0000000000
     10285      3429  TIP3      OH2            27.2764237182       31.9912848903       -8.6364931047  W2        3429            0.0000000000
     10286      3429  TIP3      H1             27.7501837182       32.2869148903       -7.8590731047  W2        3429            0.0000000000
     10287      3429  TIP3      H2             26.7133537182       32.7294448903       -8.8695331047  W2        3429            0.0000000000
     10288      3430  TIP3      OH2            21.8105637182       31.9620948903        1.2396468953  W2        3430            0.0000000000
     10289      3430  TIP3      H1             21.8180937182       31.8260648903        0.2921968953  W2        3430            0.0000000000
     10290      3430  TIP3      H2             20.8946037182       31.8449048903        1.4916468953  W2        3430            0.0000000000
     10291      3431  TIP3      OH2            33.2487737182       17.0044748903      -12.2588331047  W2        3431            0.0000000000
     10292      3431  TIP3      H1             32.3488437182       17.1433748903      -11.9637731047  W2        3431            0.0000000000
     10293      3431  TIP3      H2             33.5006137182       17.8359348903      -12.6606631047  W2        3431            0.0000000000
     10294      3432  TIP3      OH2            21.3146237182       25.7921948903      -10.2851431047  W2        3432            0.0000000000
     10295      3432  TIP3      H1             21.0227537182       26.5603648903      -10.7760131047  W2        3432            0.0000000000
     10296      3432  TIP3      H2             20.6401437182       25.1328148903      -10.4480031047  W2        3432            0.0000000000
     10297      3433  TIP3      OH2            34.4379137182       31.3707148903      -13.8824431047  W2        3433            0.0000000000
     10298      3433  TIP3      H1             34.5112637182       32.3097348903      -13.7119131047  W2        3433            0.0000000000
     10299      3433  TIP3      H2             35.3434237182       31.0655748903      -13.9387131047  W2        3433            0.0000000000
     10300      3434  TIP3      OH2            17.4076337182       28.1551148903       -1.4701631047  W2        3434            0.0000000000
     10301      3434  TIP3      H1             16.9064737182       28.1270548903       -2.2851931047  W2        3434            0.0000000000
     10302      3434  TIP3      H2             17.4130037182       27.2494348903       -1.1604331047  W2        3434            0.0000000000
     10303      3435  TIP3      OH2            17.1579037182       30.9354948903       -4.5861431047  W2        3435            0.0000000000
     10304      3435  TIP3      H1             18.1039637182       30.7911948903       -4.6051931047  W2        3435            0.0000000000
     10305      3435  TIP3      H2             17.0455337182       31.7197748903       -4.0490231047  W2        3435            0.0000000000
     10306      3436  TIP3      OH2            35.3557537182       31.6014648903        1.0962268953  W2        3436            0.0000000000
     10307      3436  TIP3      H1             35.3064337182       30.6462748903        1.0589868953  W2        3436            0.0000000000
     10308      3436  TIP3      H2             34.5289837182       31.8689948903        1.4976068953  W2        3436            0.0000000000
     10309      3437  TIP3      OH2            26.3341537182       31.1753848903       -0.0276331047  W2        3437            0.0000000000
     10310      3437  TIP3      H1             26.4216137182       32.0018448903        0.4472768953  W2        3437            0.0000000000
     10311      3437  TIP3      H2             25.4706637182       30.8457648903        0.2212968953  W2        3437            0.0000000000
     10312      3438  TIP3      OH2            26.7487337182       34.9477548903      -10.2215731047  W2        3438            0.0000000000
     10313      3438  TIP3      H1             26.6733337182       34.8264748903      -11.1680531047  W2        3438            0.0000000000
     10314      3438  TIP3      H2             26.7816037182       35.8970248903      -10.1031131047  W2        3438            0.0000000000
     10315      3439  TIP3      OH2            20.4021137182       33.7364548903       -8.4406731047  W2        3439            0.0000000000
     10316      3439  TIP3      H1             20.5541537182       33.3884948903       -7.5620231047  W2        3439            0.0000000000
     10317      3439  TIP3      H2             19.5511537182       33.3801848903       -8.6959531047  W2        3439            0.0000000000
     10318      3440  TIP3      OH2            29.8503337182       34.1017748903      -13.2193331047  W2        3440            0.0000000000
     10319      3440  TIP3      H1             30.2251737182       33.3573848903      -13.6900731047  W2        3440            0.0000000000
     10320      3440  TIP3      H2             29.8547037182       33.8318348903      -12.3010031047  W2        3440            0.0000000000
     10321      3441  TIP3      OH2            29.5191437182       34.0274848903      -10.4701131047  W2        3441            0.0000000000
     10322      3441  TIP3      H1             28.5841237182       34.1276748903      -10.2914131047  W2        3441            0.0000000000
     10323      3441  TIP3      H2             29.7993337182       33.3180848903       -9.8917931047  W2        3441            0.0000000000
     10324      3442  TIP3      OH2            32.5077337182       23.0947148903        1.5764468953  W2        3442            0.0000000000
     10325      3442  TIP3      H1             32.1004137182       23.5752748903        0.8557768953  W2        3442            0.0000000000
     10326      3442  TIP3      H2             32.5483037182       22.1893148903        1.2685268953  W2        3442            0.0000000000
     10327      3443  TIP3      OH2            19.6566837182       29.4786548903       -0.4268831047  W2        3443            0.0000000000
     10328      3443  TIP3      H1             19.8728137182       29.1172148903        0.4326968953  W2        3443            0.0000000000
     10329      3443  TIP3      H2             18.8011537182       29.1040348903       -0.6365331047  W2        3443            0.0000000000
     10330      3444  TIP3      OH2            22.2754837182       17.9487048903       -4.4314631047  W2        3444            0.0000000000
     10331      3444  TIP3      H1             21.4138537182       17.8615248903       -4.8391731047  W2        3444            0.0000000000
     10332      3444  TIP3      H2             22.2530537182       18.8047148903       -4.0037031047  W2        3444            0.0000000000
     10333      3445  TIP3      OH2            26.9382637182       17.6707448903       -1.0567631047  W2        3445            0.0000000000
     10334      3445  TIP3      H1             27.3585737182       17.2554548903       -0.3037031047  W2        3445            0.0000000000
     10335      3445  TIP3      H2             26.0052237182       17.4920748903       -0.9395631047  W2        3445            0.0000000000
     10336      3446  TIP3      OH2            30.2647537182       21.4262648903       -0.2033131047  W2        3446            0.0000000000
     10337      3446  TIP3      H1             29.7507037182       21.3004848903        0.5942868953  W2        3446            0.0000000000
     10338      3446  TIP3      H2             30.1092237182       22.3385748903       -0.4476931047  W2        3446            0.0000000000
     10339      3447  TIP3      OH2            31.0272437182       26.2872648903      -14.4420131047  W2        3447            0.0000000000
     10340      3447  TIP3      H1             31.0693237182       26.0646548903      -15.3720131047  W2        3447            0.0000000000
     10341      3447  TIP3      H2             31.8764537182       26.6859748903      -14.2520231047  W2        3447            0.0000000000
     10342      3448  TIP3      OH2            26.5999937182       20.1630848903      -13.7716831047  W2        3448            0.0000000000
     10343      3448  TIP3      H1             26.3464737182       20.1822448903      -12.8488731047  W2        3448            0.0000000000
     10344      3448  TIP3      H2             26.3432037182       19.2916248903      -14.0730631047  W2        3448            0.0000000000
     10345      3449  TIP3      OH2            22.3664937182       22.9141548903       -3.3364431047  W2        3449            0.0000000000
     10346      3449  TIP3      H1             21.7247037182       22.8738848903       -2.6274331047  W2        3449            0.0000000000
     10347      3449  TIP3      H2             22.4036937182       23.8406248903       -3.5741431047  W2        3449            0.0000000000
     10348      3450  TIP3      OH2            22.3634037182       23.1351648903       -8.4244431047  W2        3450            0.0000000000
     10349      3450  TIP3      H1             21.4706937182       22.7947748903       -8.4830631047  W2        3450            0.0000000000
     10350      3450  TIP3      H2             22.8140637182       22.7582548903       -9.1801231047  W2        3450            0.0000000000
     10351      3451  TIP3      OH2            27.8989537182       23.5511948903       -9.6073631047  W2        3451            0.0000000000
     10352      3451  TIP3      H1             27.4899837182       24.3660548903       -9.8988831047  W2        3451            0.0000000000
     10353      3451  TIP3      H2             28.6195737182       23.4112048903      -10.2216531047  W2        3451            0.0000000000
     10354      3452  TIP3      OH2            27.0011137182       23.7268348903        1.8807068953  W2        3452            0.0000000000
     10355      3452  TIP3      H1             26.4384937182       23.0219948903        2.2014868953  W2        3452            0.0000000000
     10356      3452  TIP3      H2             27.8274537182       23.6060248903        2.3484668953  W2        3452            0.0000000000
     10357      3453  TIP3      OH2            28.9037237182       22.9972348903       -6.7933931047  W2        3453            0.0000000000
     10358      3453  TIP3      H1             28.7081737182       23.6029148903       -7.5083331047  W2        3453            0.0000000000
     10359      3453  TIP3      H2             29.0849837182       22.1637548903       -7.2277631047  W2        3453            0.0000000000
     10360      3454  TIP3      OH2            20.1165437182       23.2345048903       -1.4692431047  W2        3454            0.0000000000
     10361      3454  TIP3      H1             20.0784837182       23.6346648903       -0.6005331047  W2        3454            0.0000000000
     10362      3454  TIP3      H2             19.6256537182       22.4177448903       -1.3789531047  W2        3454            0.0000000000
     10363      3455  TIP3      OH2            23.4822837182       20.6087348903      -14.6706431047  W2        3455            0.0000000000
     10364      3455  TIP3      H1             23.0513537182       20.1637448903      -13.9409031047  W2        3455            0.0000000000
     10365      3455  TIP3      H2             22.7641537182       20.9803648903      -15.1828931047  W2        3455            0.0000000000
     10366      3456  TIP3      OH2            16.7246237182       20.3506848903       -7.6187731047  W2        3456            0.0000000000
     10367      3456  TIP3      H1             17.3553937182       20.3218948903       -6.8993831047  W2        3456            0.0000000000
     10368      3456  TIP3      H2             17.1740537182       19.9255548903       -8.3491831047  W2        3456            0.0000000000
     10369      3457  TIP3      OH2            17.9988337182       21.0968848903      -12.1947331047  W2        3457            0.0000000000
     10370      3457  TIP3      H1             18.4730037182       21.6878748903      -12.7796431047  W2        3457            0.0000000000
     10371      3457  TIP3      H2             17.2814737182       21.6271748903      -11.8477231047  W2        3457            0.0000000000
     10372      3458  TIP3      OH2            28.1676437182       24.6353648903       -2.1221531047  W2        3458            0.0000000000
     10373      3458  TIP3      H1             28.4911237182       24.0043348903       -2.7651031047  W2        3458            0.0000000000
     10374      3458  TIP3      H2             27.7275737182       24.1005848903       -1.4614131047  W2        3458            0.0000000000
     10375      3459  TIP3      OH2            24.9449337182       20.5629148903       -7.3380331047  W2        3459            0.0000000000
     10376      3459  TIP3      H1             24.0340437182       20.6195948903       -7.0494331047  W2        3459            0.0000000000
     10377      3459  TIP3      H2             25.4502237182       20.5024648903       -6.5273131047  W2        3459            0.0000000000
     10378      3460  TIP3      OH2            19.7732737182       22.1915448903       -8.5112731047  W2        3460            0.0000000000
     10379      3460  TIP3      H1             18.8840737182       22.2910948903       -8.8513131047  W2        3460            0.0000000000
     10380      3460  TIP3      H2             20.0697637182       21.3498448903       -8.8574831047  W2        3460            0.0000000000
     10381      3461  TIP3      OH2            23.4264537182       22.1918048903      -10.8548131047  W2        3461            0.0000000000
     10382      3461  TIP3      H1             24.3580037182       22.3208048903      -10.6765031047  W2        3461            0.0000000000
     10383      3461  TIP3      H2             23.2114837182       22.8612348903      -11.5043431047  W2        3461            0.0000000000
     10384      3462  TIP3      OH2            29.3501237182       19.7975448903       -4.0738531047  W2        3462            0.0000000000
     10385      3462  TIP3      H1             28.6732837182       19.9288548903       -3.4098831047  W2        3462            0.0000000000
     10386      3462  TIP3      H2             28.8646137182       19.6424948903       -4.8840831047  W2        3462            0.0000000000
     10387      3463  TIP3      OH2            22.1004737182       23.3860248903      -13.2882031047  W2        3463            0.0000000000
     10388      3463  TIP3      H1             21.5579837182       23.0064048903      -13.9794431047  W2        3463            0.0000000000
     10389      3463  TIP3      H2             22.9339637182       23.5804948903      -13.7167931047  W2        3463            0.0000000000
     10390      3464  TIP3      OH2            32.6376337182       35.4690848903        2.2029068953  W2        3464            0.0000000000
     10391      3464  TIP3      H1             32.8375037182       35.8932748903        1.3684368953  W2        3464            0.0000000000
     10392      3464  TIP3      H2             33.2930037182       35.8129048903        2.8099468953  W2        3464            0.0000000000
     10393      3465  TIP3      OH2            20.2356137182       27.9432148903        1.8109568953  W2        3465            0.0000000000
     10394      3465  TIP3      H1             20.9678537182       28.1978048903        2.3724068953  W2        3465            0.0000000000
     10395      3465  TIP3      H2             19.4554837182       28.1477548903        2.3264968953  W2        3465            0.0000000000
     10396      3466  TIP3      OH2            26.2649037182       23.3502148903       -5.4510731047  W2        3466            0.0000000000
     10397      3466  TIP3      H1             26.8292437182       22.8038748903       -5.9981131047  W2        3466            0.0000000000
     10398      3466  TIP3      H2             26.1172437182       22.8284048903       -4.6623131047  W2        3466            0.0000000000
     10399      3467  TIP3      OH2            21.2668737182       19.4868248903       -9.0325931047  W2        3467            0.0000000000
     10400      3467  TIP3      H1             20.9498237182       18.5843548903       -9.0680531047  W2        3467            0.0000000000
     10401      3467  TIP3      H2             22.0482837182       19.4885648903       -9.5854331047  W2        3467            0.0000000000
     10402      3468  TIP3      OH2            24.8914937182       21.7388248903       -3.0370331047  W2        3468            0.0000000000
     10403      3468  TIP3      H1             24.0560237182       22.1927748903       -2.9267931047  W2        3468            0.0000000000
     10404      3468  TIP3      H2             25.4155537182       22.0146748903       -2.2850431047  W2        3468            0.0000000000
     10405      3469  TIP3      OH2            25.4357537182       27.9515948903      -11.3523931047  W2        3469            0.0000000000
     10406      3469  TIP3      H1             24.6908537182       27.4441248903      -11.6746031047  W2        3469            0.0000000000
     10407      3469  TIP3      H2             25.3014737182       28.0003948903      -10.4059131047  W2        3469            0.0000000000
     10408      3470  TIP3      OH2            32.5856437182       27.0844148903       -2.5656331047  W2        3470            0.0000000000
     10409      3470  TIP3      H1             33.2275237182       27.5410448903       -3.1094131047  W2        3470            0.0000000000
     10410      3470  TIP3      H2             31.7553337182       27.1976548903       -3.0282231047  W2        3470            0.0000000000
     10411      3471  TIP3      OH2            29.3334337182       20.7655848903      -13.1531331047  W2        3471            0.0000000000
     10412      3471  TIP3      H1             28.3948537182       20.8771448903      -13.3042531047  W2        3471            0.0000000000
     10413      3471  TIP3      H2             29.6306437182       21.6222748903      -12.8465631047  W2        3471            0.0000000000
     10414      3472  TIP3      OH2            26.9549637182       28.1359248903       -0.1154831047  W2        3472            0.0000000000
     10415      3472  TIP3      H1             26.6095737182       27.7541648903        0.6914768953  W2        3472            0.0000000000
     10416      3472  TIP3      H2             26.7549737182       29.0692848903       -0.0441931047  W2        3472            0.0000000000
     10417      3473  TIP3      OH2            30.0517837182       22.6328548903      -11.4923931047  W2        3473            0.0000000000
     10418      3473  TIP3      H1             30.9436837182       22.4953548903      -11.1732731047  W2        3473            0.0000000000
     10419      3473  TIP3      H2             30.1081437182       23.4234648903      -12.0290431047  W2        3473            0.0000000000
     10420      3474  TIP3      OH2            20.5605837182       27.2465948903       -5.5826031047  W2        3474            0.0000000000
     10421      3474  TIP3      H1             21.3053037182       27.2441648903       -6.1839531047  W2        3474            0.0000000000
     10422      3474  TIP3      H2             20.6382437182       26.4229748903       -5.1010931047  W2        3474            0.0000000000
     10423      3475  TIP3      OH2            27.5611637182       29.4100248903      -12.3269331047  W2        3475            0.0000000000
     10424      3475  TIP3      H1             27.2660037182       30.2368148903      -11.9454531047  W2        3475            0.0000000000
     10425      3475  TIP3      H2             26.8581637182       28.7907148903      -12.1307931047  W2        3475            0.0000000000
     10426      3476  TIP3      OH2            17.5685537182       25.7072848903       -0.2677531047  W2        3476            0.0000000000
     10427      3476  TIP3      H1             17.7914137182       25.2892448903        0.5639968953  W2        3476            0.0000000000
     10428      3476  TIP3      H2             16.9665637182       25.0947848903       -0.6904731047  W2        3476            0.0000000000
     10429      3477  TIP3      OH2            24.5850437182       25.2242748903        1.9452168953  W2        3477            0.0000000000
     10430      3477  TIP3      H1             24.2891237182       25.0585748903        1.0501268953  W2        3477            0.0000000000
     10431      3477  TIP3      H2             25.5165637182       25.0043048903        1.9346068953  W2        3477            0.0000000000
     10432      3478  TIP3      OH2            29.2053237182       30.5974748903       -0.1649831047  W2        3478            0.0000000000
     10433      3478  TIP3      H1             28.3047537182       30.7807348903       -0.4325931047  W2        3478            0.0000000000
     10434      3478  TIP3      H2             29.2394337182       30.8564048903        0.7558968953  W2        3478            0.0000000000
     10435      3479  TIP3      OH2            34.9366537182       22.8422648903      -11.7977231047  W2        3479            0.0000000000
     10436      3479  TIP3      H1             34.3822837182       22.4460648903      -12.4699731047  W2        3479            0.0000000000
     10437      3479  TIP3      H2             35.0370137182       23.7527848903      -12.0753931047  W2        3479            0.0000000000
     10438      3480  TIP3      OH2            34.8998537182       28.6424348903        1.0394268953  W2        3480            0.0000000000
     10439      3480  TIP3      H1             34.0487037182       28.8808148903        0.6720668953  W2        3480            0.0000000000
     10440      3480  TIP3      H2             35.4901937182       28.6257548903        0.2861368953  W2        3480            0.0000000000
     10441      3481  TIP3      OH2            33.2318237182       31.6283048903      -11.3325131047  W2        3481            0.0000000000
     10442      3481  TIP3      H1             32.8589337182       30.8026848903      -11.0234531047  W2        3481            0.0000000000
     10443      3481  TIP3      H2             33.5091737182       31.4452448903      -12.2301731047  W2        3481            0.0000000000
     10444      3482  TIP3      OH2            30.3922137182       26.4362548903       -4.3113231047  W2        3482            0.0000000000
     10445      3482  TIP3      H1             29.4639037182       26.2044448903       -4.3383931047  W2        3482            0.0000000000
     10446      3482  TIP3      H2             30.8433237182       25.6592348903       -4.6414431047  W2        3482            0.0000000000
     10447      3483  TIP3      OH2            22.9355237182       30.7644148903       -8.1784531047  W2        3483            0.0000000000
     10448      3483  TIP3      H1             23.4627437182       31.5378548903       -8.3785731047  W2        3483            0.0000000000
     10449      3483  TIP3      H2             22.0553737182       30.9893348903       -8.4800531047  W2        3483            0.0000000000
     10450      3484  TIP3      OH2            18.6902937182       25.6268248903      -13.5912131047  W2        3484            0.0000000000
     10451      3484  TIP3      H1             19.3062837182       26.2535448903      -13.2117331047  W2        3484            0.0000000000
     10452      3484  TIP3      H2             17.8285537182       25.9428048903      -13.3195631047  W2        3484            0.0000000000
     10453      3485  TIP3      OH2            24.3627537182       28.4274048903       -8.6020231047  W2        3485            0.0000000000
     10454      3485  TIP3      H1             24.1217537182       29.3528448903       -8.5604931047  W2        3485            0.0000000000
     10455      3485  TIP3      H2             23.6221137182       27.9685348903       -8.2056331047  W2        3485            0.0000000000
     10456      3486  TIP3      OH2            24.8774137182       32.5767648903       -2.2869131047  W2        3486            0.0000000000
     10457      3486  TIP3      H1             25.2398837182       33.4313248903       -2.5204731047  W2        3486            0.0000000000
     10458      3486  TIP3      H2             25.4089337182       32.2849248903       -1.5462831047  W2        3486            0.0000000000
     10459      3487  TIP3      OH2            23.0458337182       33.4491648903       -9.0568031047  W2        3487            0.0000000000
     10460      3487  TIP3      H1             22.0958837182       33.5549048903       -9.0054731047  W2        3487            0.0000000000
     10461      3487  TIP3      H2             23.3976437182       34.2699048903       -8.7120531047  W2        3487            0.0000000000
     10462      3488  TIP3      OH2            28.4214937182       28.6758348903       -2.5863531047  W2        3488            0.0000000000
     10463      3488  TIP3      H1             27.9956237182       28.4480048903       -1.7599531047  W2        3488            0.0000000000
     10464      3488  TIP3      H2             29.0020737182       27.9370148903       -2.7688231047  W2        3488            0.0000000000
     10465      3489  TIP3      OH2            30.6243837182       29.6048848903      -13.5124531047  W2        3489            0.0000000000
     10466      3489  TIP3      H1             30.9776937182       29.2248648903      -12.7081031047  W2        3489            0.0000000000
     10467      3489  TIP3      H2             29.6757337182       29.5113648903      -13.4255231047  W2        3489            0.0000000000
     10468      3490  TIP3      OH2            31.0799137182       33.2277848903       -0.1168731047  W2        3490            0.0000000000
     10469      3490  TIP3      H1             30.4782337182       32.6720748903       -0.6122431047  W2        3490            0.0000000000
     10470      3490  TIP3      H2             31.3612837182       33.8947648903       -0.7431331047  W2        3490            0.0000000000
     10471      3491  TIP3      OH2            35.1278237182       34.0841348903      -13.3114331047  W2        3491            0.0000000000
     10472      3491  TIP3      H1             35.8716137182       34.6701848903      -13.4512731047  W2        3491            0.0000000000
     10473      3491  TIP3      H2             34.4336337182       34.6527148903      -12.9781931047  W2        3491            0.0000000000
     10474      3492  TIP3      OH2            19.2025037182       20.4605548903       -0.7096131047  W2        3492            0.0000000000
     10475      3492  TIP3      H1             18.3097337182       20.7990948903       -0.7772131047  W2        3492            0.0000000000
     10476      3492  TIP3      H2             19.1037837182       19.6051648903       -0.2915331047  W2        3492            0.0000000000
     10477      3493  TIP3      OH2            31.4903137182       28.2770848903      -11.2856631047  W2        3493            0.0000000000
     10478      3493  TIP3      H1             31.2130737182       27.5490148903      -10.7295531047  W2        3493            0.0000000000
     10479      3493  TIP3      H2             32.4176137182       28.3962848903      -11.0804031047  W2        3493            0.0000000000
     10480      3494  TIP3      OH2            18.8537037182       32.2649948903       -2.2746731047  W2        3494            0.0000000000
     10481      3494  TIP3      H1             19.0707337182       31.3332348903       -2.3057031047  W2        3494            0.0000000000
     10482      3494  TIP3      H2             19.1000537182       32.5394948903       -1.3913931047  W2        3494            0.0000000000
     10483      3495  TIP3      OH2            24.7151637182       30.7164948903      -15.0654531047  W2        3495            0.0000000000
     10484      3495  TIP3      H1             24.9541437182       29.9683048903      -15.6125631047  W2        3495            0.0000000000
     10485      3495  TIP3      H2             24.4462937182       30.3286648903      -14.2326731047  W2        3495            0.0000000000
     10486      3496  TIP3      OH2            23.6522237182       30.2868748903      -12.6091931047  W2        3496            0.0000000000
     10487      3496  TIP3      H1             23.7990237182       29.7668548903      -11.8191031047  W2        3496            0.0000000000
     10488      3496  TIP3      H2             23.6493937182       31.1936348903      -12.3026031047  W2        3496            0.0000000000
     10489      3497  TIP3      OH2            20.1053337182       27.5392048903      -12.0986531047  W2        3497            0.0000000000
     10490      3497  TIP3      H1             19.4192637182       27.8914548903      -11.5316831047  W2        3497            0.0000000000
     10491      3497  TIP3      H2             20.6281237182       28.3021648903      -12.3452231047  W2        3497            0.0000000000
     10492      3498  TIP3      OH2            27.9368437182       20.2015848903       -1.8197531047  W2        3498            0.0000000000
     10493      3498  TIP3      H1             28.6356337182       20.2754548903       -1.1697831047  W2        3498            0.0000000000
     10494      3498  TIP3      H2             27.5559837182       19.3370848903       -1.6654631047  W2        3498            0.0000000000
     10495      3499  TIP3      OH2            28.7213337182       19.8537548903      -10.7225231047  W2        3499            0.0000000000
     10496      3499  TIP3      H1             28.9411637182       20.3252948903      -11.5259831047  W2        3499            0.0000000000
     10497      3499  TIP3      H2             29.2797337182       20.2480148903      -10.0524631047  W2        3499            0.0000000000
     10498      3500  TIP3      OH2            26.3899437182       31.9842348903      -11.8597731047  W2        3500            0.0000000000
     10499      3500  TIP3      H1             25.5735537182       32.4812048903      -11.8073431047  W2        3500            0.0000000000
     10500      3500  TIP3      H2             26.9195737182       32.4595848903      -12.4998931047  W2        3500            0.0000000000
     10501      3501  TIP3      OH2            25.9213237182       21.5816348903       -9.8876831047  W2        3501            0.0000000000
     10502      3501  TIP3      H1             26.7335837182       22.0859548903       -9.8415131047  W2        3501            0.0000000000
     10503      3501  TIP3      H2             25.6766237182       21.4366048903       -8.9737231047  W2        3501            0.0000000000
     10504      3502  TIP3      OH2            26.4569637182       22.5679048903       -0.7030231047  W2        3502            0.0000000000
     10505      3502  TIP3      H1             26.5759937182       23.1414448903        0.0540168953  W2        3502            0.0000000000
     10506      3502  TIP3      H2             27.1124237182       21.8798448903       -0.5882431047  W2        3502            0.0000000000
     10507      3503  TIP3      OH2            26.8049937182       18.6629348903       -8.9495731047  W2        3503            0.0000000000
     10508      3503  TIP3      H1             26.4583437182       19.2799948903       -8.3051431047  W2        3503            0.0000000000
     10509      3503  TIP3      H2             27.4636837182       19.1635048903       -9.4310231047  W2        3503            0.0000000000
     10510      3504  TIP3      OH2            23.7282537182       33.0279548903      -11.8780831047  W2        3504            0.0000000000
     10511      3504  TIP3      H1             23.8891237182       33.8277048903      -12.3788231047  W2        3504            0.0000000000
     10512      3504  TIP3      H2             23.5310337182       33.3345548903      -10.9930231047  W2        3504            0.0000000000
     10513      3505  TIP3      OH2            22.4626937182       19.7258748903      -12.2623231047  W2        3505            0.0000000000
     10514      3505  TIP3      H1             22.3791737182       20.6141848903      -11.9156831047  W2        3505            0.0000000000
     10515      3505  TIP3      H2             23.3527237182       19.4605448903      -12.0306431047  W2        3505            0.0000000000
     10516      3506  TIP3      OH2            32.6615437182       20.4749348903        0.1319468953  W2        3506            0.0000000000
     10517      3506  TIP3      H1             31.7451237182       20.7371048903        0.0443168953  W2        3506            0.0000000000
     10518      3506  TIP3      H2             32.9970437182       20.4718348903       -0.7645231047  W2        3506            0.0000000000
     10519      3507  TIP3      OH2            31.2636437182       24.2250348903       -5.7723231047  W2        3507            0.0000000000
     10520      3507  TIP3      H1             30.4660837182       23.8100548903       -6.1008231047  W2        3507            0.0000000000
     10521      3507  TIP3      H2             31.7087537182       23.5344048903       -5.2812731047  W2        3507            0.0000000000
     10522      3508  TIP3      OH2            20.7212237182       30.1530948903      -13.2018731047  W2        3508            0.0000000000
     10523      3508  TIP3      H1             21.3133737182       30.8525748903      -12.9256331047  W2        3508            0.0000000000
     10524      3508  TIP3      H2             21.1805237182       29.7200448903      -13.9214131047  W2        3508            0.0000000000
     10525      3509  TIP3      OH2            19.0371437182       22.8173948903      -14.0859331047  W2        3509            0.0000000000
     10526      3509  TIP3      H1             18.9924037182       23.7567048903      -13.9072331047  W2        3509            0.0000000000
     10527      3509  TIP3      H2             18.1494637182       22.5818848903      -14.3557231047  W2        3509            0.0000000000
     10528      3510  TIP3      OH2            32.3501037182       33.4812848903       -4.1499731047  W2        3510            0.0000000000
     10529      3510  TIP3      H1             32.1945337182       34.1597248903       -4.8070431047  W2        3510            0.0000000000
     10530      3510  TIP3      H2             33.2827437182       33.5532148903       -3.9469131047  W2        3510            0.0000000000
     10531      3511  TIP3      OH2            19.8453437182       17.5990548903       -5.4128331047  W2        3511            0.0000000000
     10532      3511  TIP3      H1             19.6163237182       17.6583048903       -6.3403331047  W2        3511            0.0000000000
     10533      3511  TIP3      H2             19.4026837182       16.8076048903       -5.1064231047  W2        3511            0.0000000000
     10534      3512  TIP3      OH2            18.7756737182       31.5397648903       -9.2522531047  W2        3512            0.0000000000
     10535      3512  TIP3      H1             17.9435337182       32.0120348903       -9.2251131047  W2        3512            0.0000000000
     10536      3512  TIP3      H2             19.3215037182       32.0495248903       -9.8509431047  W2        3512            0.0000000000
     10537      3513  TIP3      OH2            18.0640437182       34.1521348903        2.0775468953  W2        3513            0.0000000000
     10538      3513  TIP3      H1             18.6042637182       33.9355348903        2.8374668953  W2        3513            0.0000000000
     10539      3513  TIP3      H2             17.5828437182       33.3467348903        1.8877968953  W2        3513            0.0000000000
     10540      3514  TIP3      OH2            22.6613837182       33.0715748903        3.6979668953  W2        3514            0.0000000000
     10541      3514  TIP3      H1             23.4291037182       32.6126548903        4.0388868953  W2        3514            0.0000000000
     10542      3514  TIP3      H2             22.6400037182       32.8455548903        2.7680868953  W2        3514            0.0000000000
     10543      3515  TIP3      OH2            26.7533437182       32.5796348903      -14.9268531047  W2        3515            0.0000000000
     10544      3515  TIP3      H1             26.1094437182       31.9484948903      -14.6054831047  W2        3515            0.0000000000
     10545      3515  TIP3      H2             27.5151737182       32.0484348903      -15.1585031047  W2        3515            0.0000000000
     10546      3516  TIP3      OH2            29.2382537182       31.4516848903        2.4271168953  W2        3516            0.0000000000
     10547      3516  TIP3      H1             28.8872037182       30.5949848903        2.6701568953  W2        3516            0.0000000000
     10548      3516  TIP3      H2             29.9645737182       31.5943548903        3.0340168953  W2        3516            0.0000000000
     10549      3517  TIP3      OH2            31.3576337182       32.3966248903      -14.6930531047  W2        3517            0.0000000000
     10550      3517  TIP3      H1             31.6406737182       31.6021448903      -14.2403631047  W2        3517            0.0000000000
     10551      3517  TIP3      H2             32.0974237182       32.6297248903      -15.2539431047  W2        3517            0.0000000000
     10552      3518  TIP3      OH2            17.9709937182       27.9625448903        3.0319768953  W2        3518            0.0000000000
     10553      3518  TIP3      H1             18.1150437182       27.0606148903        2.7456468953  W2        3518            0.0000000000
     10554      3518  TIP3      H2             17.1987337182       28.2487548903        2.5442068953  W2        3518            0.0000000000
     10555      3519  TIP3      OH2            22.3123637182       28.3061148903      -14.8355631047  W2        3519            0.0000000000
     10556      3519  TIP3      H1             22.3767737182       27.5120748903      -14.3049231047  W2        3519            0.0000000000
     10557      3519  TIP3      H2             22.9652837182       28.1873948903      -15.5253631047  W2        3519            0.0000000000
     10558      3520  TIP3      OH2            24.6266037182       27.9323548903        2.4646168953  W2        3520            0.0000000000
     10559      3520  TIP3      H1             24.2979837182       28.2031648903        1.6073568953  W2        3520            0.0000000000
     10560      3520  TIP3      H2             24.7784237182       26.9913348903        2.3771168953  W2        3520            0.0000000000
     10561      3521  TIP3      OH2            27.6647037182       29.3532848903      -15.0997631047  W2        3521            0.0000000000
     10562      3521  TIP3      H1             27.3961137182       29.5334948903      -14.1988731047  W2        3521            0.0000000000
     10563      3521  TIP3      H2             27.4582637182       28.4279048903      -15.2311831047  W2        3521            0.0000000000
     10564      3522  TIP3      OH2            30.3611237182       27.8480848903       -0.1521531047  W2        3522            0.0000000000
     10565      3522  TIP3      H1             31.1066037182       28.4364548903       -0.2717531047  W2        3522            0.0000000000
     10566      3522  TIP3      H2             29.6038037182       28.4300548903       -0.0888431047  W2        3522            0.0000000000
     10567      3523  TIP3      OH2            18.8036437182       25.1628748903        2.4519068953  W2        3523            0.0000000000
     10568      3523  TIP3      H1             19.2117637182       24.3055348903        2.3309668953  W2        3523            0.0000000000
     10569      3523  TIP3      H2             18.5434037182       25.1770048903        3.3729368953  W2        3523            0.0000000000
     10570      3524  TIP3      OH2            23.4617437182       26.2787348903      -12.5297631047  W2        3524            0.0000000000
     10571      3524  TIP3      H1             23.0019437182       25.7945648903      -11.8439131047  W2        3524            0.0000000000
     10572      3524  TIP3      H2             23.7166137182       25.6102748903      -13.1657131047  W2        3524            0.0000000000
     10573      3525  TIP3      OH2            22.7506737182       24.1714448903       -0.1738031047  W2        3525            0.0000000000
     10574      3525  TIP3      H1             22.1322837182       24.8461048903        0.1066668953  W2        3525            0.0000000000
     10575      3525  TIP3      H2             23.0947937182       24.4928348903       -1.0071831047  W2        3525            0.0000000000
     10576      3526  TIP3      OH2            24.5327837182       24.5219148903      -14.2674431047  W2        3526            0.0000000000
     10577      3526  TIP3      H1             24.3522837182       24.3670348903      -15.1946131047  W2        3526            0.0000000000
     10578      3526  TIP3      H2             25.4828337182       24.6297848903      -14.2226531047  W2        3526            0.0000000000
     10579      3527  TIP3      OH2            27.7704937182       26.6429748903        3.1036768953  W2        3527            0.0000000000
     10580      3527  TIP3      H1             28.7236137182       26.7268848903        3.0762768953  W2        3527            0.0000000000
     10581      3527  TIP3      H2             27.6099537182       25.9311548903        3.7231668953  W2        3527            0.0000000000
     10582      3528  TIP3      OH2            33.9226137182       26.8763348903      -14.8216331047  W2        3528            0.0000000000
     10583      3528  TIP3      H1             33.6490937182       26.4518848903      -15.6348031047  W2        3528            0.0000000000
     10584      3528  TIP3      H2             33.9620237182       27.8077848903      -15.0385931047  W2        3528            0.0000000000
     10585      3529  TIP3      OH2            23.0900437182       21.5265248903        0.9085068953  W2        3529            0.0000000000
     10586      3529  TIP3      H1             23.2401337182       20.7976548903        0.3064768953  W2        3529            0.0000000000
     10587      3529  TIP3      H2             23.0922837182       22.3036948903        0.3497268953  W2        3529            0.0000000000
     10588      3530  TIP3      OH2            23.5026137182       19.8961048903       -1.5987531047  W2        3530            0.0000000000
     10589      3530  TIP3      H1             24.0383637182       20.3477748903       -2.2508231047  W2        3530            0.0000000000
     10590      3530  TIP3      H2             22.6505737182       19.7880848903       -2.0213431047  W2        3530            0.0000000000
     10591      3531  TIP3      OH2            25.0844537182       25.3357248903       -1.3592331047  W2        3531            0.0000000000
     10592      3531  TIP3      H1             25.8349337182       25.1794748903       -1.9324531047  W2        3531            0.0000000000
     10593      3531  TIP3      H2             24.7452837182       26.1873848903       -1.6346831047  W2        3531            0.0000000000
     10594      3532  TIP3      OH2            29.5000737182       23.1509048903        3.6692968953  W2        3532            0.0000000000
     10595      3532  TIP3      H1             29.6922037182       22.2198448903        3.5577468953  W2        3532            0.0000000000
     10596      3532  TIP3      H2             30.3577037182       23.5758548903        3.6588368953  W2        3532            0.0000000000
     10597      3533  TIP3      OH2            30.8167937182       25.9394248903        1.7465668953  W2        3533            0.0000000000
     10598      3533  TIP3      H1             30.5352937182       26.6488848903        1.1689468953  W2        3533            0.0000000000
     10599      3533  TIP3      H2             31.7592237182       25.8667248903        1.5956868953  W2        3533            0.0000000000
     10600      3534  TIP3      OH2            21.5686737182       22.7248748903        2.8200668953  W2        3534            0.0000000000
     10601      3534  TIP3      H1             20.8015737182       22.1923548903        2.6098268953  W2        3534            0.0000000000
     10602      3534  TIP3      H2             22.2475737182       22.4149148903        2.2206968953  W2        3534            0.0000000000
     10603      3535  TIP3      OH2            24.3081637182       17.3526748903       -1.1673931047  W2        3535            0.0000000000
     10604      3535  TIP3      H1             24.2101237182       18.2989948903       -1.2727731047  W2        3535            0.0000000000
     10605      3535  TIP3      H2             23.5657837182       16.9800548903       -1.6430431047  W2        3535            0.0000000000
     10606      3536  TIP3      OH2            25.5722137182       21.6742148903        2.3964468953  W2        3536            0.0000000000
     10607      3536  TIP3      H1             25.3367537182       21.4548848903        3.2979368953  W2        3536            0.0000000000
     10608      3536  TIP3      H2             24.7889037182       21.4673348903        1.8866968953  W2        3536            0.0000000000
     10609      3537  TIP3      OH2            28.2878737182       20.8015648903        1.4717968953  W2        3537            0.0000000000
     10610      3537  TIP3      H1             27.3404137182       20.8335348903        1.6041268953  W2        3537            0.0000000000
     10611      3537  TIP3      H2             28.6005437182       20.1762748903        2.1256168953  W2        3537            0.0000000000
     10612      3538  TIP3      OH2            29.9220237182       19.4356748903        3.4769868953  W2        3538            0.0000000000
     10613      3538  TIP3      H1             29.8252037182       18.4834048903        3.4711768953  W2        3538            0.0000000000
     10614      3538  TIP3      H2             29.6003337182       19.7043548903        4.3375368953  W2        3538            0.0000000000
     10615      3539  TIP3      OH2            19.7489537182       20.6452548903        2.5245368953  W2        3539            0.0000000000
     10616      3539  TIP3      H1             19.9606937182       19.9388648903        1.9142868953  W2        3539            0.0000000000
     10617      3539  TIP3      H2             19.6377037182       20.2078548903        3.3686568953  W2        3539            0.0000000000
     10618      3540  TIP3      OH2            24.5299737182       16.6464148903        1.5038868953  W2        3540            0.0000000000
     10619      3540  TIP3      H1             25.2418137182       16.0066348903        1.4897968953  W2        3540            0.0000000000
     10620      3540  TIP3      H2             24.4290137182       16.9132448903        0.5901968953  W2        3540            0.0000000000
     10621      3541  TIP3      OH2            24.8837237182       18.3292548903        3.5575168953  W2        3541            0.0000000000
     10622      3541  TIP3      H1             24.7519437182       17.8536348903        2.7373668953  W2        3541            0.0000000000
     10623      3541  TIP3      H2             24.2844637182       19.0736148903        3.5022268953  W2        3541            0.0000000000
     10624      3542  TIP3      OH2            24.4299537182       35.2122848903      -13.2660831047  W2        3542            0.0000000000
     10625      3542  TIP3      H1             25.3630237182       35.3701548903      -13.1222431047  W2        3542            0.0000000000
     10626      3542  TIP3      H2             24.1658337182       35.8875848903      -13.8909331047  W2        3542            0.0000000000
     10627      3543  TIP3      OH2            17.9984437182       29.8486648903      -13.7832731047  W2        3543            0.0000000000
     10628      3543  TIP3      H1             18.9123637182       29.9275548903      -13.5098831047  W2        3543            0.0000000000
     10629      3543  TIP3      H2             18.0057537182       29.1616248903      -14.4497131047  W2        3543            0.0000000000
     10630      3544  TIP3      OH2            16.6475037182       35.2415148903       -8.7058831047  W2        3544            0.0000000000
     10631      3544  TIP3      H1             16.0002137182       34.7796848903       -9.2387631047  W2        3544            0.0000000000
     10632      3544  TIP3      H2             17.0019637182       34.5698448903       -8.1232631047  W2        3544            0.0000000000
     10633      3545  TIP3      OH2            17.5174237182       33.3222148903       -6.9012631047  W2        3545            0.0000000000
     10634      3545  TIP3      H1             17.1831037182       32.4419448903       -6.7292431047  W2        3545            0.0000000000
     10635      3545  TIP3      H2             17.7396637182       33.6677148903       -6.0367031047  W2        3545            0.0000000000
     10636      3546  TIP3      OH2            35.0659037182       34.1318548903       -3.9207831047  W2        3546            0.0000000000
     10637      3546  TIP3      H1             35.0445737182       34.3166948903       -2.9818431047  W2        3546            0.0000000000
     10638      3546  TIP3      H2             35.7565237182       34.7002548903       -4.2616431047  W2        3546            0.0000000000
     10639      3547  TIP3      OH2            34.6291937182       33.6989648903       -0.9988731047  W2        3547            0.0000000000
     10640      3547  TIP3      H1             34.1420637182       32.9633748903       -1.3701331047  W2        3547            0.0000000000
     10641      3547  TIP3      H2             35.1784637182       33.3053548903       -0.3209331047  W2        3547            0.0000000000
     10642      3548  TIP3      OH2            33.0799237182       29.4887748903        3.6391568953  W2        3548            0.0000000000
     10643      3548  TIP3      H1             32.2140337182       29.3837448903        4.0333868953  W2        3548            0.0000000000
     10644      3548  TIP3      H2             33.4565137182       30.2471048903        4.0856268953  W2        3548            0.0000000000
     10645      3549  TIP3      OH2            34.3808937182       27.7451448903      -10.8465931047  W2        3549            0.0000000000
     10646      3549  TIP3      H1             35.2310337182       28.1662348903      -10.7194331047  W2        3549            0.0000000000
     10647      3549  TIP3      H2             34.3864037182       27.0051548903      -10.2394531047  W2        3549            0.0000000000
     10648      3550  TIP3      OH2            34.7754537182       25.7988848903       -9.0230231047  W2        3550            0.0000000000
     10649      3550  TIP3      H1             34.0489137182       25.3191448903       -8.6252631047  W2        3550            0.0000000000
     10650      3550  TIP3      H2             35.3567837182       26.0043548903       -8.2908631047  W2        3550            0.0000000000
     10651      3551  TIP3      OH2            34.5345737182       28.5836348903       -4.0752631047  W2        3551            0.0000000000
     10652      3551  TIP3      H1             35.3679937182       28.2056348903       -4.3559031047  W2        3551            0.0000000000
     10653      3551  TIP3      H2             34.6466037182       29.5267548903       -4.1943531047  W2        3551            0.0000000000
     10654      3552  TIP3      OH2            33.0208037182       31.4613848903       -1.7684231047  W2        3552            0.0000000000
     10655      3552  TIP3      H1             32.3733337182       31.7865348903       -1.1429031047  W2        3552            0.0000000000
     10656      3552  TIP3      H2             32.5032037182       31.0211548903       -2.4425931047  W2        3552            0.0000000000
     10657      3553  TIP3      OH2            35.0437637182       25.6997348903      -12.6318931047  W2        3553            0.0000000000
     10658      3553  TIP3      H1             34.5218737182       26.0561448903      -13.3508031047  W2        3553            0.0000000000
     10659      3553  TIP3      H2             35.0106837182       26.3745148903      -11.9538031047  W2        3553            0.0000000000
     10660      3554  TIP3      OH2            33.3926637182       22.9392948903      -14.0811831047  W2        3554            0.0000000000
     10661      3554  TIP3      H1             33.4891037182       23.6059948903      -14.7612131047  W2        3554            0.0000000000
     10662      3554  TIP3      H2             33.2526237182       22.1239248903      -14.5626331047  W2        3554            0.0000000000
     10663      3555  TIP3      OH2            32.5621337182       24.3195348903       -8.4601531047  W2        3555            0.0000000000
     10664      3555  TIP3      H1             32.4120137182       23.3743948903       -8.4803731047  W2        3555            0.0000000000
     10665      3555  TIP3      H2             32.2085837182       24.6006748903       -7.6162431047  W2        3555            0.0000000000
     10666      3556  TIP3      OH2            17.5973737182       26.3977548903       -4.4497731047  W2        3556            0.0000000000
     10667      3556  TIP3      H1             17.7816637182       26.3159248903       -5.3854831047  W2        3556            0.0000000000
     10668      3556  TIP3      H2             18.4466637182       26.2734548903       -4.0261331047  W2        3556            0.0000000000
     10669      3557  TIP3      OH2            33.4184237182       26.2898648903        1.1786768953  W2        3557            0.0000000000
     10670      3557  TIP3      H1             34.0011537182       25.5550948903        1.3703968953  W2        3557            0.0000000000
     10671      3557  TIP3      H2             33.9823537182       27.0618948903        1.2252568953  W2        3557            0.0000000000
     10672      3558  TIP3      OH2            34.9151337182       24.1924448903        1.8632168953  W2        3558            0.0000000000
     10673      3558  TIP3      H1             34.0518037182       23.8136548903        1.6976868953  W2        3558            0.0000000000
     10674      3558  TIP3      H2             35.5195037182       23.4539248903        1.7887968953  W2        3558            0.0000000000
     10675      3559  TIP3      OH2            32.6400437182       20.3472748903      -14.9636331047  W2        3559            0.0000000000
     10676      3559  TIP3      H1             33.2506237182       19.9759548903      -14.3268131047  W2        3559            0.0000000000
     10677      3559  TIP3      H2             31.8031937182       19.9259648903      -14.7676331047  W2        3559            0.0000000000
     10678      3560  TIP3      OH2            32.2726137182       21.9021148903       -9.9976431047  W2        3560            0.0000000000
     10679      3560  TIP3      H1             32.5523237182       20.9951548903       -9.8734731047  W2        3560            0.0000000000
     10680      3560  TIP3      H2             33.0317837182       22.3362648903      -10.3867231047  W2        3560            0.0000000000
     10681      3561  TIP3      OH2            32.8844437182       22.4838548903       -4.5617531047  W2        3561            0.0000000000
     10682      3561  TIP3      H1             33.8172437182       22.6958448903       -4.5961531047  W2        3561            0.0000000000
     10683      3561  TIP3      H2             32.6491937182       22.5850648903       -3.6394531047  W2        3561            0.0000000000
     10684      3562  TIP3      OH2            32.9136337182       23.2203848903       -1.7858131047  W2        3562            0.0000000000
     10685      3562  TIP3      H1             32.0707637182       23.4884248903       -1.4198331047  W2        3562            0.0000000000
     10686      3562  TIP3      H2             33.3560637182       24.0425748903       -1.9967031047  W2        3562            0.0000000000
     10687      3563  TIP3      OH2            17.1948537182       21.6682548903        1.6911068953  W2        3563            0.0000000000
     10688      3563  TIP3      H1             18.1143437182       21.5460848903        1.9274168953  W2        3563            0.0000000000
     10689      3563  TIP3      H2             16.7453037182       20.9182248903        2.0804568953  W2        3563            0.0000000000
     10690      3564  TIP3      OH2            35.1967937182       17.2004048903        3.5676868953  W2        3564            0.0000000000
     10691      3564  TIP3      H1             35.5464937182       16.5467548903        2.9621568953  W2        3564            0.0000000000
     10692      3564  TIP3      H2             35.3437437182       18.0378148903        3.1279468953  W2        3564            0.0000000000
     10693      3565  TIP3      OH2            32.8860937182       19.1650448903       -9.9494431047  W2        3565            0.0000000000
     10694      3565  TIP3      H1             33.0685937182       18.7161948903       -9.1239431047  W2        3565            0.0000000000
     10695      3565  TIP3      H2             32.2863837182       18.5804848903      -10.4129831047  W2        3565            0.0000000000
     10696      3566  TIP3      OH2            18.4161037182       19.9804148903       -5.4176031047  W2        3566            0.0000000000
     10697      3566  TIP3      H1             18.8612637182       19.1886648903       -5.1156331047  W2        3566            0.0000000000
     10698      3566  TIP3      H2             18.8824037182       20.6969348903       -4.9870431047  W2        3566            0.0000000000
     10699      3567  TIP3      OH2            16.7201337182       22.9797148903       -4.3485831047  W2        3567            0.0000000000
     10700      3567  TIP3      H1             17.2121137182       22.7587648903       -5.1393831047  W2        3567            0.0000000000
     10701      3567  TIP3      H2             17.0822237182       23.8200548903       -4.0676331047  W2        3567            0.0000000000
     10702      3568  TIP3      OH2            34.7165137182       19.3098648903        1.9168168953  W2        3568            0.0000000000
     10703      3568  TIP3      H1             33.7990837182       19.5805748903        1.8811668953  W2        3568            0.0000000000
     10704      3568  TIP3      H2             34.8394537182       18.7747048903        1.1327868953  W2        3568            0.0000000000
     10705      3569  TIP3      OH2            34.7527137182       19.2328548903      -13.4214131047  W2        3569            0.0000000000
     10706      3569  TIP3      H1             35.1649737182       18.5114248903      -13.8966131047  W2        3569            0.0000000000
     10707      3569  TIP3      H2             35.4343637182       19.9023148903      -13.3629831047  W2        3569            0.0000000000
     10708      3570  TIP3      OH2            17.0337837182       19.2376248903      -10.2943431047  W2        3570            0.0000000000
     10709      3570  TIP3      H1             16.1086237182       19.4462848903      -10.4237931047  W2        3570            0.0000000000
     10710      3570  TIP3      H2             17.4877737182       19.7217048903      -10.9841131047  W2        3570            0.0000000000
     10711      3571  TIP3      OH2            31.8045037182       34.2217948903       -8.3486031047  W2        3571            0.0000000000
     10712      3571  TIP3      H1             32.4567937182       33.8740048903       -8.9566931047  W2        3571            0.0000000000
     10713      3571  TIP3      H2             32.3148837182       34.7101148903       -7.7026331047  W2        3571            0.0000000000
     10714      3572  TIP3      OH2            16.9973237182       17.9755248903       -1.9500931047  W2        3572            0.0000000000
     10715      3572  TIP3      H1             16.3323737182       17.7295548903       -1.3070031047  W2        3572            0.0000000000
     10716      3572  TIP3      H2             16.5544537182       18.5975648903       -2.5272931047  W2        3572            0.0000000000
     10717      3573  TIP3      OH2            19.1892537182       31.1509348903        2.1944868953  W2        3573            0.0000000000
     10718      3573  TIP3      H1             18.3685037182       31.3255848903        1.7339568953  W2        3573            0.0000000000
     10719      3573  TIP3      H2             18.9370337182       31.0774048903        3.1149268953  W2        3573            0.0000000000
     10720      3574  TIP3      OH2            22.1435437182       32.1250548903       -1.5471131047  W2        3574            0.0000000000
     10721      3574  TIP3      H1             21.7186537182       32.9349048903       -1.8296531047  W2        3574            0.0000000000
     10722      3574  TIP3      H2             23.0478237182       32.2104648903       -1.8491331047  W2        3574            0.0000000000
     10723      3575  TIP3      OH2            26.4546837182       33.5240548903        1.4122568953  W2        3575            0.0000000000
     10724      3575  TIP3      H1             26.6394337182       33.1906648903        2.2902868953  W2        3575            0.0000000000
     10725      3575  TIP3      H2             27.3011337182       33.8339148903        1.0901768953  W2        3575            0.0000000000
     10726      3576  TIP3      OH2            28.7997237182       34.8099448903        0.6563968953  W2        3576            0.0000000000
     10727      3576  TIP3      H1             29.4766137182       34.1771748903        0.4163168953  W2        3576            0.0000000000
     10728      3576  TIP3      H2             29.1216037182       35.2109948903        1.4637268953  W2        3576            0.0000000000
     10729      3577  TIP3      OH2            33.7171037182       17.3994948903       -0.2641031047  W2        3577            0.0000000000
     10730      3577  TIP3      H1             32.9044537182       17.7245248903       -0.6516331047  W2        3577            0.0000000000
     10731      3577  TIP3      H2             33.9499537182       16.6393448903       -0.7971931047  W2        3577            0.0000000000
     10732      3578  TIP3      OH2            19.5452137182       35.3814448903       -1.4995831047  W2        3578            0.0000000000
     10733      3578  TIP3      H1             18.8248537182       35.8215448903       -1.9508131047  W2        3578            0.0000000000
     10734      3578  TIP3      H2             19.1796137182       35.1309148903       -0.6511831047  W2        3578            0.0000000000
     10735      3579  TIP3      OH2            22.0124737182       34.9818348903       -2.4698631047  W2        3579            0.0000000000
     10736      3579  TIP3      H1             21.1476937182       35.0536848903       -2.0658531047  W2        3579            0.0000000000
     10737      3579  TIP3      H2             21.9573737182       35.5285648903       -3.2536131047  W2        3579            0.0000000000
     10738      3580  TIP3      OH2            26.7230337182       34.8697248903       -3.2942631047  W2        3580            0.0000000000
     10739      3580  TIP3      H1             26.2664337182       35.3986948903       -3.9484231047  W2        3580            0.0000000000
     10740      3580  TIP3      H2             26.8858337182       35.4728648903       -2.5690331047  W2        3580            0.0000000000
     10741      3581  TIP3      OH2            29.0506637182       33.7476848903       -2.3492331047  W2        3581            0.0000000000
     10742      3581  TIP3      H1             28.1460337182       33.9127048903       -2.6150231047  W2        3581            0.0000000000
     10743      3581  TIP3      H2             29.4795237182       34.6009048903       -2.4148931047  W2        3581            0.0000000000
     10744      3582  TIP3      OH2            31.6548537182       35.3175948903       -2.0544531047  W2        3582            0.0000000000
     10745      3582  TIP3      H1             31.4730537182       36.2334848903       -2.2649631047  W2        3582            0.0000000000
     10746      3582  TIP3      H2             31.8316337182       34.9073048903       -2.9009931047  W2        3582            0.0000000000
     10747      3583  TIP3      OH2            18.9600237182       34.0046948903       -4.5894031047  W2        3583            0.0000000000
     10748      3583  TIP3      H1             18.9416237182       33.5792048903       -3.7321731047  W2        3583            0.0000000000
     10749      3583  TIP3      H2             19.7648137182       33.6861948903       -4.9981831047  W2        3583            0.0000000000
     10750      3584  TIP3      OH2            21.1013337182       32.7145648903       -5.9344131047  W2        3584            0.0000000000
     10751      3584  TIP3      H1             20.8824037182       31.7983048903       -5.7648131047  W2        3584            0.0000000000
     10752      3584  TIP3      H2             21.9255537182       32.8546048903       -5.4682731047  W2        3584            0.0000000000
     10753      3585  TIP3      OH2            23.6385837182       33.1844948903       -5.0856131047  W2        3585            0.0000000000
     10754      3585  TIP3      H1             23.8511537182       32.2963948903       -5.3725231047  W2        3585            0.0000000000
     10755      3585  TIP3      H2             23.7030937182       33.1502648903       -4.1312131047  W2        3585            0.0000000000
     10756      3586  TIP3      OH2            27.1469537182       18.8485548903       -5.9412831047  W2        3586            0.0000000000
     10757      3586  TIP3      H1             26.4726337182       18.2191148903       -5.6857031047  W2        3586            0.0000000000
     10758      3586  TIP3      H2             27.7108737182       18.3644448903       -6.5444931047  W2        3586            0.0000000000
     10759      3587  TIP3      OH2            32.2896737182       16.9559548903       -5.8285731047  W2        3587            0.0000000000
     10760      3587  TIP3      H1             32.8934337182       17.5034948903       -6.3304731047  W2        3587            0.0000000000
     10761      3587  TIP3      H2             31.4198737182       17.2749948903       -6.0691631047  W2        3587            0.0000000000
     10762      3588  TIP3      OH2            34.0167137182       18.0948248903       -7.4954831047  W2        3588            0.0000000000
     10763      3588  TIP3      H1             34.6284637182       17.5803948903       -8.0221231047  W2        3588            0.0000000000
     10764      3588  TIP3      H2             34.3990537182       18.9720348903       -7.4720431047  W2        3588            0.0000000000
     10765      3589  TIP3      OH2            19.4737037182       17.4825848903       -8.1192931047  W2        3589            0.0000000000
     10766      3589  TIP3      H1             18.6966837182       17.2480748903       -8.6267031047  W2        3589            0.0000000000
     10767      3589  TIP3      H2             20.0040637182       16.6857948903       -8.1104931047  W2        3589            0.0000000000
     10768      3590  TIP3      OH2            18.3100437182       17.2803948903      -12.3156831047  W2        3590            0.0000000000
     10769      3590  TIP3      H1             18.7491137182       17.8914448903      -12.9073331047  W2        3590            0.0000000000
     10770      3590  TIP3      H2             17.6762837182       17.8188048903      -11.8416831047  W2        3590            0.0000000000
     10771      3591  TIP3      OH2            24.0529637182       17.4092948903       -8.3059831047  W2        3591            0.0000000000
     10772      3591  TIP3      H1             24.9273037182       17.7977248903       -8.3355531047  W2        3591            0.0000000000
     10773      3591  TIP3      H2             23.9170437182       17.1940748903       -7.3832631047  W2        3591            0.0000000000
     10774      3592  TIP3      OH2            29.6098037182       17.4392748903       -6.6568131047  W2        3592            0.0000000000
     10775      3592  TIP3      H1             29.6859637182       17.5344348903       -7.6062131047  W2        3592            0.0000000000
     10776      3592  TIP3      H2             29.3347237182       16.5315648903       -6.5279031047  W2        3592            0.0000000000
     10777      3593  TIP3      OH2            30.9630637182       17.4650548903      -10.9643131047  W2        3593            0.0000000000
     10778      3593  TIP3      H1             30.2601737182       18.0799748903      -11.1741731047  W2        3593            0.0000000000
     10779      3593  TIP3      H2             30.5182037182       16.6277248903      -10.8332231047  W2        3593            0.0000000000
     10780      3594  TIP3      OH2            18.2109937182       33.2286148903      -11.4181731047  W2        3594            0.0000000000
     10781      3594  TIP3      H1             17.5259837182       33.1905048903      -12.0856631047  W2        3594            0.0000000000
     10782      3594  TIP3      H2             18.2147137182       34.1413748903      -11.1299631047  W2        3594            0.0000000000
     10783      3595  TIP3      OH2            20.1709537182       19.1965448903      -13.8732731047  W2        3595            0.0000000000
     10784      3595  TIP3      H1             20.6622937182       18.5667848903      -14.4007231047  W2        3595            0.0000000000
     10785      3595  TIP3      H2             20.7945837182       19.4924848903      -13.2101531047  W2        3595            0.0000000000
     10786      3596  TIP3      OH2            25.1969637182       19.4896948903      -11.4162231047  W2        3596            0.0000000000
     10787      3596  TIP3      H1             25.3750937182       18.8430148903      -10.7333631047  W2        3596            0.0000000000
     10788      3596  TIP3      H2             25.1435837182       20.3234648903      -10.9491131047  W2        3596            0.0000000000
     10789      3597  TIP3      OH2            27.0753437182       34.4381048903      -13.0205531047  W2        3597            0.0000000000
     10790      3597  TIP3      H1             27.9413637182       34.8048448903      -13.1987331047  W2        3597            0.0000000000
     10791      3597  TIP3      H2             26.8286237182       33.9989048903      -13.8344731047  W2        3597            0.0000000000
     10792      3598  TIP3      OH2            33.7843037182       34.0011348903      -10.3414431047  W2        3598            0.0000000000
     10793      3598  TIP3      H1             33.5900137182       33.2533448903      -10.9064831047  W2        3598            0.0000000000
     10794      3598  TIP3      H2             33.7453137182       34.7591448903      -10.9246531047  W2        3598            0.0000000000
     10795      3599  TIP3      OH2            19.4315037182       17.9967748903        1.3983268953  W2        3599            0.0000000000
     10796      3599  TIP3      H1             19.0653237182       17.2310348903        1.8407968953  W2        3599            0.0000000000
     10797      3599  TIP3      H2             20.3443537182       18.0257948903        1.6848368953  W2        3599            0.0000000000
     10798      3600  TIP3      OH2            21.4045837182       17.3472148903        2.9340368953  W2        3600            0.0000000000
     10799      3600  TIP3      H1             22.3029437182       17.0732348903        2.7493768953  W2        3600            0.0000000000
     10800      3600  TIP3      H2             21.0178937182       16.6048148903        3.3982968953  W2        3600            0.0000000000
     10801      3601  TIP3      OH2            20.0291137182       34.1486948903      -14.3929631047  W2        3601            0.0000000000
     10802      3601  TIP3      H1             19.7615737182       34.4349848903      -13.5196531047  W2        3601            0.0000000000
     10803      3601  TIP3      H2             20.8003737182       33.6026148903      -14.2407131047  W2        3601            0.0000000000
     10804      3602  TIP3      OH2            29.8258137182       16.6797448903        3.1163168953  W2        3602            0.0000000000
     10805      3602  TIP3      H1             29.9025337182       16.2538148903        3.9700868953  W2        3602            0.0000000000
     10806      3602  TIP3      H2             30.7194737182       16.6932148903        2.7736668953  W2        3602            0.0000000000
     10807      3603  TIP3      OH2            33.0019237182       32.7523748903        1.8087368953  W2        3603            0.0000000000
     10808      3603  TIP3      H1             32.2201137182       32.5661748903        1.2887968953  W2        3603            0.0000000000
     10809      3603  TIP3      H2             32.9299137182       33.6818048903        2.0259868953  W2        3603            0.0000000000
     10810      3604  TIP3      OH2            38.7095937182       25.5080948903       -3.1487331047  W2        3604            0.0000000000
     10811      3604  TIP3      H1             38.7508037182       24.8824248903       -2.4254931047  W2        3604            0.0000000000
     10812      3604  TIP3      H2             39.4123637182       26.1319548903       -2.9666931047  W2        3604            0.0000000000
     10813      3605  TIP3      OH2            39.6329037182       29.9579848903       -4.6138231047  W2        3605            0.0000000000
     10814      3605  TIP3      H1             39.2634237182       29.1560348903       -4.9833931047  W2        3605            0.0000000000
     10815      3605  TIP3      H2             40.5740137182       29.7894748903       -4.5674831047  W2        3605            0.0000000000
     10816      3606  TIP3      OH2            36.2429537182       23.6182448903       -9.2209431047  W2        3606            0.0000000000
     10817      3606  TIP3      H1             35.7952937182       24.4641148903       -9.2392931047  W2        3606            0.0000000000
     10818      3606  TIP3      H2             35.6820737182       23.0386648903       -9.7364331047  W2        3606            0.0000000000
     10819      3607  TIP3      OH2            36.9535637182       25.7802048903       -7.0951431047  W2        3607            0.0000000000
     10820      3607  TIP3      H1             37.1669137182       25.0103648903       -6.5678431047  W2        3607            0.0000000000
     10821      3607  TIP3      H2             37.6913237182       25.8698748903       -7.6983831047  W2        3607            0.0000000000
     10822      3608  TIP3      OH2            37.6462137182       23.2184848903       -5.9735231047  W2        3608            0.0000000000
     10823      3608  TIP3      H1             38.2998737182       22.6686548903       -5.5415131047  W2        3608            0.0000000000
     10824      3608  TIP3      H2             37.6701437182       22.9443848903       -6.8903231047  W2        3608            0.0000000000
     10825      3609  TIP3      OH2            39.4299837182       21.6319248903       -4.7093631047  W2        3609            0.0000000000
     10826      3609  TIP3      H1             40.0436137182       22.2646848903       -4.3361231047  W2        3609            0.0000000000
     10827      3609  TIP3      H2             39.9420537182       21.1594248903       -5.3656731047  W2        3609            0.0000000000
     10828      3610  TIP3      OH2            36.9339137182       29.0504048903      -10.8051331047  W2        3610            0.0000000000
     10829      3610  TIP3      H1             36.6620037182       29.2795048903      -11.6938431047  W2        3610            0.0000000000
     10830      3610  TIP3      H2             36.9794837182       29.8882848903      -10.3446031047  W2        3610            0.0000000000
     10831      3611  TIP3      OH2            39.3469637182       26.0887048903       -0.2951631047  W2        3611            0.0000000000
     10832      3611  TIP3      H1             39.4172837182       26.7393848903        0.4033368953  W2        3611            0.0000000000
     10833      3611  TIP3      H2             38.4561837182       26.1914548903       -0.6300731047  W2        3611            0.0000000000
     10834      3612  TIP3      OH2            36.2636337182       28.1551148903       -1.4701631047  W2        3612            0.0000000000
     10835      3612  TIP3      H1             35.7624737182       28.1270548903       -2.2851931047  W2        3612            0.0000000000
     10836      3612  TIP3      H2             36.2690037182       27.2494348903       -1.1604331047  W2        3612            0.0000000000
     10837      3613  TIP3      OH2            36.0139037182       30.9354948903       -4.5861431047  W2        3613            0.0000000000
     10838      3613  TIP3      H1             36.9599637182       30.7911948903       -4.6051931047  W2        3613            0.0000000000
     10839      3613  TIP3      H2             35.9015337182       31.7197748903       -4.0490231047  W2        3613            0.0000000000
     10840      3614  TIP3      OH2            39.2581137182       33.7364548903       -8.4406731047  W2        3614            0.0000000000
     10841      3614  TIP3      H1             39.4101537182       33.3884948903       -7.5620231047  W2        3614            0.0000000000
     10842      3614  TIP3      H2             38.4071537182       33.3801848903       -8.6959531047  W2        3614            0.0000000000
     10843      3615  TIP3      OH2            38.5126837182       29.4786548903       -0.4268831047  W2        3615            0.0000000000
     10844      3615  TIP3      H1             38.7288137182       29.1172148903        0.4326968953  W2        3615            0.0000000000
     10845      3615  TIP3      H2             37.6571537182       29.1040348903       -0.6365331047  W2        3615            0.0000000000
     10846      3616  TIP3      OH2            38.9725437182       23.2345048903       -1.4692431047  W2        3616            0.0000000000
     10847      3616  TIP3      H1             38.9344837182       23.6346648903       -0.6005331047  W2        3616            0.0000000000
     10848      3616  TIP3      H2             38.4816537182       22.4177448903       -1.3789531047  W2        3616            0.0000000000
     10849      3617  TIP3      OH2            35.5806237182       20.3506848903       -7.6187731047  W2        3617            0.0000000000
     10850      3617  TIP3      H1             36.2113937182       20.3218948903       -6.8993831047  W2        3617            0.0000000000
     10851      3617  TIP3      H2             36.0300537182       19.9255548903       -8.3491831047  W2        3617            0.0000000000
     10852      3618  TIP3      OH2            36.8548337182       21.0968848903      -12.1947331047  W2        3618            0.0000000000
     10853      3618  TIP3      H1             37.3290037182       21.6878748903      -12.7796431047  W2        3618            0.0000000000
     10854      3618  TIP3      H2             36.1374737182       21.6271748903      -11.8477231047  W2        3618            0.0000000000
     10855      3619  TIP3      OH2            38.6292737182       22.1915448903       -8.5112731047  W2        3619            0.0000000000
     10856      3619  TIP3      H1             37.7400737182       22.2910948903       -8.8513131047  W2        3619            0.0000000000
     10857      3619  TIP3      H2             38.9257637182       21.3498448903       -8.8574831047  W2        3619            0.0000000000
     10858      3620  TIP3      OH2            39.0916137182       27.9432148903        1.8109568953  W2        3620            0.0000000000
     10859      3620  TIP3      H1             39.8238537182       28.1978048903        2.3724068953  W2        3620            0.0000000000
     10860      3620  TIP3      H2             38.3114837182       28.1477548903        2.3264968953  W2        3620            0.0000000000
     10861      3621  TIP3      OH2            39.4165837182       27.2465948903       -5.5826031047  W2        3621            0.0000000000
     10862      3621  TIP3      H1             40.1613037182       27.2441648903       -6.1839531047  W2        3621            0.0000000000
     10863      3621  TIP3      H2             39.4942437182       26.4229748903       -5.1010931047  W2        3621            0.0000000000
     10864      3622  TIP3      OH2            36.4245537182       25.7072848903       -0.2677531047  W2        3622            0.0000000000
     10865      3622  TIP3      H1             36.6474137182       25.2892448903        0.5639968953  W2        3622            0.0000000000
     10866      3622  TIP3      H2             35.8225637182       25.0947848903       -0.6904731047  W2        3622            0.0000000000
     10867      3623  TIP3      OH2            37.5462937182       25.6268248903      -13.5912131047  W2        3623            0.0000000000
     10868      3623  TIP3      H1             38.1622837182       26.2535448903      -13.2117331047  W2        3623            0.0000000000
     10869      3623  TIP3      H2             36.6845537182       25.9428048903      -13.3195631047  W2        3623            0.0000000000
     10870      3624  TIP3      OH2            38.0585037182       20.4605548903       -0.7096131047  W2        3624            0.0000000000
     10871      3624  TIP3      H1             37.1657337182       20.7990948903       -0.7772131047  W2        3624            0.0000000000
     10872      3624  TIP3      H2             37.9597837182       19.6051648903       -0.2915331047  W2        3624            0.0000000000
     10873      3625  TIP3      OH2            37.7097037182       32.2649948903       -2.2746731047  W2        3625            0.0000000000
     10874      3625  TIP3      H1             37.9267337182       31.3332348903       -2.3057031047  W2        3625            0.0000000000
     10875      3625  TIP3      H2             37.9560537182       32.5394948903       -1.3913931047  W2        3625            0.0000000000
     10876      3626  TIP3      OH2            38.9613337182       27.5392048903      -12.0986531047  W2        3626            0.0000000000
     10877      3626  TIP3      H1             38.2752637182       27.8914548903      -11.5316831047  W2        3626            0.0000000000
     10878      3626  TIP3      H2             39.4841237182       28.3021648903      -12.3452231047  W2        3626            0.0000000000
     10879      3627  TIP3      OH2            39.5772237182       30.1530948903      -13.2018731047  W2        3627            0.0000000000
     10880      3627  TIP3      H1             40.1693737182       30.8525748903      -12.9256331047  W2        3627            0.0000000000
     10881      3627  TIP3      H2             40.0365237182       29.7200448903      -13.9214131047  W2        3627            0.0000000000
     10882      3628  TIP3      OH2            37.8931437182       22.8173948903      -14.0859331047  W2        3628            0.0000000000
     10883      3628  TIP3      H1             37.8484037182       23.7567048903      -13.9072331047  W2        3628            0.0000000000
     10884      3628  TIP3      H2             37.0054637182       22.5818848903      -14.3557231047  W2        3628            0.0000000000
     10885      3629  TIP3      OH2            38.7013437182       17.5990548903       -5.4128331047  W2        3629            0.0000000000
     10886      3629  TIP3      H1             38.4723237182       17.6583048903       -6.3403331047  W2        3629            0.0000000000
     10887      3629  TIP3      H2             38.2586837182       16.8076048903       -5.1064231047  W2        3629            0.0000000000
     10888      3630  TIP3      OH2            37.6316737182       31.5397648903       -9.2522531047  W2        3630            0.0000000000
     10889      3630  TIP3      H1             36.7995337182       32.0120348903       -9.2251131047  W2        3630            0.0000000000
     10890      3630  TIP3      H2             38.1775037182       32.0495248903       -9.8509431047  W2        3630            0.0000000000
     10891      3631  TIP3      OH2            36.9200437182       34.1521348903        2.0775468953  W2        3631            0.0000000000
     10892      3631  TIP3      H1             37.4602637182       33.9355348903        2.8374668953  W2        3631            0.0000000000
     10893      3631  TIP3      H2             36.4388437182       33.3467348903        1.8877968953  W2        3631            0.0000000000
     10894      3632  TIP3      OH2            36.8269937182       27.9625448903        3.0319768953  W2        3632            0.0000000000
     10895      3632  TIP3      H1             36.9710437182       27.0606148903        2.7456468953  W2        3632            0.0000000000
     10896      3632  TIP3      H2             36.0547337182       28.2487548903        2.5442068953  W2        3632            0.0000000000
     10897      3633  TIP3      OH2            37.6596437182       25.1628748903        2.4519068953  W2        3633            0.0000000000
     10898      3633  TIP3      H1             38.0677637182       24.3055348903        2.3309668953  W2        3633            0.0000000000
     10899      3633  TIP3      H2             37.3994037182       25.1770048903        3.3729368953  W2        3633            0.0000000000
     10900      3634  TIP3      OH2            38.6049537182       20.6452548903        2.5245368953  W2        3634            0.0000000000
     10901      3634  TIP3      H1             38.8166937182       19.9388648903        1.9142868953  W2        3634            0.0000000000
     10902      3634  TIP3      H2             38.4937037182       20.2078548903        3.3686568953  W2        3634            0.0000000000
     10903      3635  TIP3      OH2            36.8544437182       29.8486648903      -13.7832731047  W2        3635            0.0000000000
     10904      3635  TIP3      H1             37.7683637182       29.9275548903      -13.5098831047  W2        3635            0.0000000000
     10905      3635  TIP3      H2             36.8617537182       29.1616248903      -14.4497131047  W2        3635            0.0000000000
     10906      3636  TIP3      OH2            35.5035037182       35.2415148903       -8.7058831047  W2        3636            0.0000000000
     10907      3636  TIP3      H1             34.8562137182       34.7796848903       -9.2387631047  W2        3636            0.0000000000
     10908      3636  TIP3      H2             35.8579637182       34.5698448903       -8.1232631047  W2        3636            0.0000000000
     10909      3637  TIP3      OH2            36.3734237182       33.3222148903       -6.9012631047  W2        3637            0.0000000000
     10910      3637  TIP3      H1             36.0391037182       32.4419448903       -6.7292431047  W2        3637            0.0000000000
     10911      3637  TIP3      H2             36.5956637182       33.6677148903       -6.0367031047  W2        3637            0.0000000000
     10912      3638  TIP3      OH2            36.4533737182       26.3977548903       -4.4497731047  W2        3638            0.0000000000
     10913      3638  TIP3      H1             36.6376637182       26.3159248903       -5.3854831047  W2        3638            0.0000000000
     10914      3638  TIP3      H2             37.3026637182       26.2734548903       -4.0261331047  W2        3638            0.0000000000
     10915      3639  TIP3      OH2            36.0508537182       21.6682548903        1.6911068953  W2        3639            0.0000000000
     10916      3639  TIP3      H1             36.9703437182       21.5460848903        1.9274168953  W2        3639            0.0000000000
     10917      3639  TIP3      H2             35.6013037182       20.9182248903        2.0804568953  W2        3639            0.0000000000
     10918      3640  TIP3      OH2            37.2721037182       19.9804148903       -5.4176031047  W2        3640            0.0000000000
     10919      3640  TIP3      H1             37.7172637182       19.1886648903       -5.1156331047  W2        3640            0.0000000000
     10920      3640  TIP3      H2             37.7384037182       20.6969348903       -4.9870431047  W2        3640            0.0000000000
     10921      3641  TIP3      OH2            35.5761337182       22.9797148903       -4.3485831047  W2        3641            0.0000000000
     10922      3641  TIP3      H1             36.0681137182       22.7587648903       -5.1393831047  W2        3641            0.0000000000
     10923      3641  TIP3      H2             35.9382237182       23.8200548903       -4.0676331047  W2        3641            0.0000000000
     10924      3642  TIP3      OH2            35.8897837182       19.2376248903      -10.2943431047  W2        3642            0.0000000000
     10925      3642  TIP3      H1             34.9646237182       19.4462848903      -10.4237931047  W2        3642            0.0000000000
     10926      3642  TIP3      H2             36.3437737182       19.7217048903      -10.9841131047  W2        3642            0.0000000000
     10927      3643  TIP3      OH2            35.8533237182       17.9755248903       -1.9500931047  W2        3643            0.0000000000
     10928      3643  TIP3      H1             35.1883737182       17.7295548903       -1.3070031047  W2        3643            0.0000000000
     10929      3643  TIP3      H2             35.4104537182       18.5975648903       -2.5272931047  W2        3643            0.0000000000
     10930      3644  TIP3      OH2            38.0452537182       31.1509348903        2.1944868953  W2        3644            0.0000000000
     10931      3644  TIP3      H1             37.2245037182       31.3255848903        1.7339568953  W2        3644            0.0000000000
     10932      3644  TIP3      H2             37.7930337182       31.0774048903        3.1149268953  W2        3644            0.0000000000
     10933      3645  TIP3      OH2            38.4012137182       35.3814448903       -1.4995831047  W2        3645            0.0000000000
     10934      3645  TIP3      H1             37.6808537182       35.8215448903       -1.9508131047  W2        3645            0.0000000000
     10935      3645  TIP3      H2             38.0356137182       35.1309148903       -0.6511831047  W2        3645            0.0000000000
     10936      3646  TIP3      OH2            37.8160237182       34.0046948903       -4.5894031047  W2        3646            0.0000000000
     10937      3646  TIP3      H1             37.7976237182       33.5792048903       -3.7321731047  W2        3646            0.0000000000
     10938      3646  TIP3      H2             38.6208137182       33.6861948903       -4.9981831047  W2        3646            0.0000000000
     10939      3647  TIP3      OH2            38.3297037182       17.4825848903       -8.1192931047  W2        3647            0.0000000000
     10940      3647  TIP3      H1             37.5526837182       17.2480748903       -8.6267031047  W2        3647            0.0000000000
     10941      3647  TIP3      H2             38.8600637182       16.6857948903       -8.1104931047  W2        3647            0.0000000000
     10942      3648  TIP3      OH2            37.1660437182       17.2803948903      -12.3156831047  W2        3648            0.0000000000
     10943      3648  TIP3      H1             37.6051137182       17.8914448903      -12.9073331047  W2        3648            0.0000000000
     10944      3648  TIP3      H2             36.5322837182       17.8188048903      -11.8416831047  W2        3648            0.0000000000
     10945      3649  TIP3      OH2            37.0669937182       33.2286148903      -11.4181731047  W2        3649            0.0000000000
     10946      3649  TIP3      H1             36.3819837182       33.1905048903      -12.0856631047  W2        3649            0.0000000000
     10947      3649  TIP3      H2             37.0707137182       34.1413748903      -11.1299631047  W2        3649            0.0000000000
     10948      3650  TIP3      OH2            39.0269537182       19.1965448903      -13.8732731047  W2        3650            0.0000000000
     10949      3650  TIP3      H1             39.5182937182       18.5667848903      -14.4007231047  W2        3650            0.0000000000
     10950      3650  TIP3      H2             39.6505837182       19.4924848903      -13.2101531047  W2        3650            0.0000000000
     10951      3651  TIP3      OH2            38.2875037182       17.9967748903        1.3983268953  W2        3651            0.0000000000
     10952      3651  TIP3      H1             37.9213237182       17.2310348903        1.8407968953  W2        3651            0.0000000000
     10953      3651  TIP3      H2             39.2003537182       18.0257948903        1.6848368953  W2        3651            0.0000000000
     10954      3652  TIP3      OH2            38.8851137182       34.1486948903      -14.3929631047  W2        3652            0.0000000000
     10955      3652  TIP3      H1             38.6175737182       34.4349848903      -13.5196531047  W2        3652            0.0000000000
     10956      3652  TIP3      H2             39.6563737182       33.6026148903      -14.2407131047  W2        3652            0.0000000000
     10957      3653  TIP3      OH2           -22.0304862818       38.7835548903       -3.4750031047  W2        3653            0.0000000000
     10958      3653  TIP3      H1            -21.9812662818       39.3936748903       -2.7390931047  W2        3653            0.0000000000
     10959      3653  TIP3      H2            -21.6049762818       39.2446448903       -4.1978931047  W2        3653            0.0000000000
     10960      3654  TIP3      OH2           -34.3979362818       39.6779048903       -6.7356631047  W2        3654            0.0000000000
     10961      3654  TIP3      H1            -34.3548262818       40.5377548903       -7.1540331047  W2        3654            0.0000000000
     10962      3654  TIP3      H2            -34.8555262818       39.1253748903       -7.3693431047  W2        3654            0.0000000000
     10963      3655  TIP3      OH2           -26.6756662818       39.8084648903       -8.3348331047  W2        3655            0.0000000000
     10964      3655  TIP3      H1            -26.0292362818       39.4797848903       -7.7100731047  W2        3655            0.0000000000
     10965      3655  TIP3      H2            -26.1657262818       40.3263648903       -8.9576931047  W2        3655            0.0000000000
     10966      3656  TIP3      OH2           -35.5877462818       38.5957448903       -2.6615831047  W2        3656            0.0000000000
     10967      3656  TIP3      H1            -35.8065762818       39.1258048903       -3.4279831047  W2        3656            0.0000000000
     10968      3656  TIP3      H2            -36.2556562818       38.8222948903       -2.0144431047  W2        3656            0.0000000000
     10969      3657  TIP3      OH2           -24.9118262818       39.0993948903       -6.3542431047  W2        3657            0.0000000000
     10970      3657  TIP3      H1            -25.1270262818       38.3337348903       -5.8216431047  W2        3657            0.0000000000
     10971      3657  TIP3      H2            -24.2560862818       39.5718548903       -5.8413931047  W2        3657            0.0000000000
     10972      3658  TIP3      OH2           -24.5644162818       37.8145248903       -2.6748931047  W2        3658            0.0000000000
     10973      3658  TIP3      H1            -25.3004962818       38.4252348903       -2.7127631047  W2        3658            0.0000000000
     10974      3658  TIP3      H2            -23.8810162818       38.2294248903       -3.2012531047  W2        3658            0.0000000000
     10975      3659  TIP3      OH2           -31.5612762818       35.9012548903       -5.2090931047  W2        3659            0.0000000000
     10976      3659  TIP3      H1            -31.6788562818       34.9528548903       -5.2632631047  W2        3659            0.0000000000
     10977      3659  TIP3      H2            -32.4162662818       36.2338648903       -4.9359831047  W2        3659            0.0000000000
     10978      3660  TIP3      OH2           -23.3192262818       35.8604748903      -12.2588331047  W2        3660            0.0000000000
     10979      3660  TIP3      H1            -24.2191562818       35.9993748903      -11.9637731047  W2        3660            0.0000000000
     10980      3660  TIP3      H2            -23.0673862818       36.6919348903      -12.6606631047  W2        3660            0.0000000000
     10981      3661  TIP3      OH2           -34.2925162818       36.8047048903       -4.4314631047  W2        3661            0.0000000000
     10982      3661  TIP3      H1            -35.1541462818       36.7175248903       -4.8391731047  W2        3661            0.0000000000
     10983      3661  TIP3      H2            -34.3149462818       37.6607148903       -4.0037031047  W2        3661            0.0000000000
     10984      3662  TIP3      OH2           -29.6297362818       36.5267448903       -1.0567631047  W2        3662            0.0000000000
     10985      3662  TIP3      H1            -29.2094262818       36.1114548903       -0.3037031047  W2        3662            0.0000000000
     10986      3662  TIP3      H2            -30.5627762818       36.3480748903       -0.9395631047  W2        3662            0.0000000000
     10987      3663  TIP3      OH2           -29.9680062818       39.0190848903      -13.7716831047  W2        3663            0.0000000000
     10988      3663  TIP3      H1            -30.2215262818       39.0382448903      -12.8488731047  W2        3663            0.0000000000
     10989      3663  TIP3      H2            -30.2247962818       38.1476248903      -14.0730631047  W2        3663            0.0000000000
     10990      3664  TIP3      OH2           -33.0857162818       39.4647348903      -14.6706431047  W2        3664            0.0000000000
     10991      3664  TIP3      H1            -33.5166462818       39.0197448903      -13.9409031047  W2        3664            0.0000000000
     10992      3664  TIP3      H2            -33.8038462818       39.8363648903      -15.1828931047  W2        3664            0.0000000000
     10993      3665  TIP3      OH2           -39.8433762818       39.2066848903       -7.6187731047  W2        3665            0.0000000000
     10994      3665  TIP3      H1            -39.2126062818       39.1778948903       -6.8993831047  W2        3665            0.0000000000
     10995      3665  TIP3      H2            -39.3939462818       38.7815548903       -8.3491831047  W2        3665            0.0000000000
     10996      3666  TIP3      OH2           -31.6230662818       39.4189148903       -7.3380331047  W2        3666            0.0000000000
     10997      3666  TIP3      H1            -32.5339562818       39.4755948903       -7.0494331047  W2        3666            0.0000000000
     10998      3666  TIP3      H2            -31.1177762818       39.3584648903       -6.5273131047  W2        3666            0.0000000000
     10999      3667  TIP3      OH2           -27.2178762818       38.6535448903       -4.0738531047  W2        3667            0.0000000000
     11000      3667  TIP3      H1            -27.8947162818       38.7848548903       -3.4098831047  W2        3667            0.0000000000
     11001      3667  TIP3      H2            -27.7033862818       38.4984948903       -4.8840831047  W2        3667            0.0000000000
     11002      3668  TIP3      OH2           -35.3011262818       38.3428248903       -9.0325931047  W2        3668            0.0000000000
     11003      3668  TIP3      H1            -35.6181762818       37.4403548903       -9.0680531047  W2        3668            0.0000000000
     11004      3668  TIP3      H2            -34.5197162818       38.3445648903       -9.5854331047  W2        3668            0.0000000000
     11005      3669  TIP3      OH2           -27.2345662818       39.6215848903      -13.1531331047  W2        3669            0.0000000000
     11006      3669  TIP3      H1            -28.1731462818       39.7331448903      -13.3042531047  W2        3669            0.0000000000
     11007      3669  TIP3      H2            -26.9373562818       40.4782748903      -12.8465631047  W2        3669            0.0000000000
     11008      3670  TIP3      OH2           -37.3654962818       39.3165548903       -0.7096131047  W2        3670            0.0000000000
     11009      3670  TIP3      H1            -38.2582662818       39.6550948903       -0.7772131047  W2        3670            0.0000000000
     11010      3670  TIP3      H2            -37.4642162818       38.4611648903       -0.2915331047  W2        3670            0.0000000000
     11011      3671  TIP3      OH2           -28.6311562818       39.0575848903       -1.8197531047  W2        3671            0.0000000000
     11012      3671  TIP3      H1            -27.9323662818       39.1314548903       -1.1697831047  W2        3671            0.0000000000
     11013      3671  TIP3      H2            -29.0120162818       38.1930848903       -1.6654631047  W2        3671            0.0000000000
     11014      3672  TIP3      OH2           -27.8466662818       38.7097548903      -10.7225231047  W2        3672            0.0000000000
     11015      3672  TIP3      H1            -27.6268362818       39.1812948903      -11.5259831047  W2        3672            0.0000000000
     11016      3672  TIP3      H2            -27.2882662818       39.1040148903      -10.0524631047  W2        3672            0.0000000000
     11017      3673  TIP3      OH2           -29.7630062818       37.5189348903       -8.9495731047  W2        3673            0.0000000000
     11018      3673  TIP3      H1            -30.1096562818       38.1359948903       -8.3051431047  W2        3673            0.0000000000
     11019      3673  TIP3      H2            -29.1043162818       38.0195048903       -9.4310231047  W2        3673            0.0000000000
     11020      3674  TIP3      OH2           -34.1053062818       38.5818748903      -12.2623231047  W2        3674            0.0000000000
     11021      3674  TIP3      H1            -34.1888262818       39.4701848903      -11.9156831047  W2        3674            0.0000000000
     11022      3674  TIP3      H2            -33.2152762818       38.3165448903      -12.0306431047  W2        3674            0.0000000000
     11023      3675  TIP3      OH2           -23.9064562818       39.3309348903        0.1319468953  W2        3675            0.0000000000
     11024      3675  TIP3      H1            -24.8228762818       39.5931048903        0.0443168953  W2        3675            0.0000000000
     11025      3675  TIP3      H2            -23.5709562818       39.3278348903       -0.7645231047  W2        3675            0.0000000000
     11026      3676  TIP3      OH2           -36.7226562818       36.4550548903       -5.4128331047  W2        3676            0.0000000000
     11027      3676  TIP3      H1            -36.9516762818       36.5143048903       -6.3403331047  W2        3676            0.0000000000
     11028      3676  TIP3      H2            -37.1653162818       35.6636048903       -5.1064231047  W2        3676            0.0000000000
     11029      3677  TIP3      OH2           -33.0653862818       38.7521048903       -1.5987531047  W2        3677            0.0000000000
     11030      3677  TIP3      H1            -32.5296362818       39.2037748903       -2.2508231047  W2        3677            0.0000000000
     11031      3677  TIP3      H2            -33.9174262818       38.6440848903       -2.0213431047  W2        3677            0.0000000000
     11032      3678  TIP3      OH2           -32.2598362818       36.2086748903       -1.1673931047  W2        3678            0.0000000000
     11033      3678  TIP3      H1            -32.3578762818       37.1549948903       -1.2727731047  W2        3678            0.0000000000
     11034      3678  TIP3      H2            -33.0022162818       35.8360548903       -1.6430431047  W2        3678            0.0000000000
     11035      3679  TIP3      OH2           -28.2801262818       39.6575648903        1.4717968953  W2        3679            0.0000000000
     11036      3679  TIP3      H1            -29.2275862818       39.6895348903        1.6041268953  W2        3679            0.0000000000
     11037      3679  TIP3      H2            -27.9674562818       39.0322748903        2.1256168953  W2        3679            0.0000000000
     11038      3680  TIP3      OH2           -26.6459762818       38.2916748903        3.4769868953  W2        3680            0.0000000000
     11039      3680  TIP3      H1            -26.7427962818       37.3394048903        3.4711768953  W2        3680            0.0000000000
     11040      3680  TIP3      H2            -26.9676662818       38.5603548903        4.3375368953  W2        3680            0.0000000000
     11041      3681  TIP3      OH2           -36.8190462818       39.5012548903        2.5245368953  W2        3681            0.0000000000
     11042      3681  TIP3      H1            -36.6073062818       38.7948648903        1.9142868953  W2        3681            0.0000000000
     11043      3681  TIP3      H2            -36.9302962818       39.0638548903        3.3686568953  W2        3681            0.0000000000
     11044      3682  TIP3      OH2           -32.0380262818       35.5024148903        1.5038868953  W2        3682            0.0000000000
     11045      3682  TIP3      H1            -31.3261862818       34.8626348903        1.4897968953  W2        3682            0.0000000000
     11046      3682  TIP3      H2            -32.1389862818       35.7692448903        0.5901968953  W2        3682            0.0000000000
     11047      3683  TIP3      OH2           -31.6842762818       37.1852548903        3.5575168953  W2        3683            0.0000000000
     11048      3683  TIP3      H1            -31.8160562818       36.7096348903        2.7373668953  W2        3683            0.0000000000
     11049      3683  TIP3      H2            -32.2835362818       37.9296148903        3.5022268953  W2        3683            0.0000000000
     11050      3684  TIP3      OH2           -23.9279562818       39.2032748903      -14.9636331047  W2        3684            0.0000000000
     11051      3684  TIP3      H1            -23.3173762818       38.8319548903      -14.3268131047  W2        3684            0.0000000000
     11052      3684  TIP3      H2            -24.7648062818       38.7819648903      -14.7676331047  W2        3684            0.0000000000
     11053      3685  TIP3      OH2           -21.3712062818       36.0564048903        3.5676868953  W2        3685            0.0000000000
     11054      3685  TIP3      H1            -21.0215062818       35.4027548903        2.9621568953  W2        3685            0.0000000000
     11055      3685  TIP3      H2            -21.2242562818       36.8938148903        3.1279468953  W2        3685            0.0000000000
     11056      3686  TIP3      OH2           -23.6819062818       38.0210448903       -9.9494431047  W2        3686            0.0000000000
     11057      3686  TIP3      H1            -23.4994062818       37.5721948903       -9.1239431047  W2        3686            0.0000000000
     11058      3686  TIP3      H2            -24.2816162818       37.4364848903      -10.4129831047  W2        3686            0.0000000000
     11059      3687  TIP3      OH2           -38.1518962818       38.8364148903       -5.4176031047  W2        3687            0.0000000000
     11060      3687  TIP3      H1            -37.7067362818       38.0446648903       -5.1156331047  W2        3687            0.0000000000
     11061      3687  TIP3      H2            -37.6855962818       39.5529348903       -4.9870431047  W2        3687            0.0000000000
     11062      3688  TIP3      OH2           -21.8514862818       38.1658648903        1.9168168953  W2        3688            0.0000000000
     11063      3688  TIP3      H1            -22.7689162818       38.4365748903        1.8811668953  W2        3688            0.0000000000
     11064      3688  TIP3      H2            -21.7285462818       37.6307048903        1.1327868953  W2        3688            0.0000000000
     11065      3689  TIP3      OH2           -21.8152862818       38.0888548903      -13.4214131047  W2        3689            0.0000000000
     11066      3689  TIP3      H1            -21.4030262818       37.3674248903      -13.8966131047  W2        3689            0.0000000000
     11067      3689  TIP3      H2            -21.1336362818       38.7583148903      -13.3629831047  W2        3689            0.0000000000
     11068      3690  TIP3      OH2           -39.5342162818       38.0936248903      -10.2943431047  W2        3690            0.0000000000
     11069      3690  TIP3      H1            -40.4593762818       38.3022848903      -10.4237931047  W2        3690            0.0000000000
     11070      3690  TIP3      H2            -39.0802262818       38.5777048903      -10.9841131047  W2        3690            0.0000000000
     11071      3691  TIP3      OH2           -39.5706762818       36.8315248903       -1.9500931047  W2        3691            0.0000000000
     11072      3691  TIP3      H1            -40.2356262818       36.5855548903       -1.3070031047  W2        3691            0.0000000000
     11073      3691  TIP3      H2            -40.0135462818       37.4535648903       -2.5272931047  W2        3691            0.0000000000
     11074      3692  TIP3      OH2           -22.8508962818       36.2554948903       -0.2641031047  W2        3692            0.0000000000
     11075      3692  TIP3      H1            -23.6635462818       36.5805248903       -0.6516331047  W2        3692            0.0000000000
     11076      3692  TIP3      H2            -22.6180462818       35.4953448903       -0.7971931047  W2        3692            0.0000000000
     11077      3693  TIP3      OH2           -29.4210462818       37.7045548903       -5.9412831047  W2        3693            0.0000000000
     11078      3693  TIP3      H1            -30.0953662818       37.0751148903       -5.6857031047  W2        3693            0.0000000000
     11079      3693  TIP3      H2            -28.8571262818       37.2204448903       -6.5444931047  W2        3693            0.0000000000
     11080      3694  TIP3      OH2           -24.2783262818       35.8119548903       -5.8285731047  W2        3694            0.0000000000
     11081      3694  TIP3      H1            -23.6745662818       36.3594948903       -6.3304731047  W2        3694            0.0000000000
     11082      3694  TIP3      H2            -25.1481262818       36.1309948903       -6.0691631047  W2        3694            0.0000000000
     11083      3695  TIP3      OH2           -22.5512862818       36.9508248903       -7.4954831047  W2        3695            0.0000000000
     11084      3695  TIP3      H1            -21.9395362818       36.4363948903       -8.0221231047  W2        3695            0.0000000000
     11085      3695  TIP3      H2            -22.1689462818       37.8280348903       -7.4720431047  W2        3695            0.0000000000
     11086      3696  TIP3      OH2           -37.0942962818       36.3385848903       -8.1192931047  W2        3696            0.0000000000
     11087      3696  TIP3      H1            -37.8713162818       36.1040748903       -8.6267031047  W2        3696            0.0000000000
     11088      3696  TIP3      H2            -36.5639362818       35.5417948903       -8.1104931047  W2        3696            0.0000000000
     11089      3697  TIP3      OH2           -38.2579562818       36.1363948903      -12.3156831047  W2        3697            0.0000000000
     11090      3697  TIP3      H1            -37.8188862818       36.7474448903      -12.9073331047  W2        3697            0.0000000000
     11091      3697  TIP3      H2            -38.8917162818       36.6748048903      -11.8416831047  W2        3697            0.0000000000
     11092      3698  TIP3      OH2           -32.5150362818       36.2652948903       -8.3059831047  W2        3698            0.0000000000
     11093      3698  TIP3      H1            -31.6406962818       36.6537248903       -8.3355531047  W2        3698            0.0000000000
     11094      3698  TIP3      H2            -32.6509562818       36.0500748903       -7.3832631047  W2        3698            0.0000000000
     11095      3699  TIP3      OH2           -26.9581962818       36.2952748903       -6.6568131047  W2        3699            0.0000000000
     11096      3699  TIP3      H1            -26.8820362818       36.3904348903       -7.6062131047  W2        3699            0.0000000000
     11097      3699  TIP3      H2            -27.2332762818       35.3875648903       -6.5279031047  W2        3699            0.0000000000
     11098      3700  TIP3      OH2           -25.6049362818       36.3210548903      -10.9643131047  W2        3700            0.0000000000
     11099      3700  TIP3      H1            -26.3078262818       36.9359748903      -11.1741731047  W2        3700            0.0000000000
     11100      3700  TIP3      H2            -26.0497962818       35.4837248903      -10.8332231047  W2        3700            0.0000000000
     11101      3701  TIP3      OH2           -36.3970462818       38.0525448903      -13.8732731047  W2        3701            0.0000000000
     11102      3701  TIP3      H1            -35.9057062818       37.4227848903      -14.4007231047  W2        3701            0.0000000000
     11103      3701  TIP3      H2            -35.7734162818       38.3484848903      -13.2101531047  W2        3701            0.0000000000
     11104      3702  TIP3      OH2           -31.3710362818       38.3456948903      -11.4162231047  W2        3702            0.0000000000
     11105      3702  TIP3      H1            -31.1929062818       37.6990148903      -10.7333631047  W2        3702            0.0000000000
     11106      3702  TIP3      H2            -31.4244162818       39.1794648903      -10.9491131047  W2        3702            0.0000000000
     11107      3703  TIP3      OH2           -37.1364962818       36.8527748903        1.3983268953  W2        3703            0.0000000000
     11108      3703  TIP3      H1            -37.5026762818       36.0870348903        1.8407968953  W2        3703            0.0000000000
     11109      3703  TIP3      H2            -36.2236462818       36.8817948903        1.6848368953  W2        3703            0.0000000000
     11110      3704  TIP3      OH2           -35.1634162818       36.2032148903        2.9340368953  W2        3704            0.0000000000
     11111      3704  TIP3      H1            -34.2650562818       35.9292348903        2.7493768953  W2        3704            0.0000000000
     11112      3704  TIP3      H2            -35.5501062818       35.4608148903        3.3982968953  W2        3704            0.0000000000
     11113      3705  TIP3      OH2           -26.7421862818       35.5357448903        3.1163168953  W2        3705            0.0000000000
     11114      3705  TIP3      H1            -26.6654662818       35.1098148903        3.9700868953  W2        3705            0.0000000000
     11115      3705  TIP3      H2            -25.8485262818       35.5492148903        2.7736668953  W2        3705            0.0000000000
     11116      3706  TIP3      OH2            -3.1744862818       38.7835548903       -3.4750031047  W2        3706            0.0000000000
     11117      3706  TIP3      H1             -3.1252662818       39.3936748903       -2.7390931047  W2        3706            0.0000000000
     11118      3706  TIP3      H2             -2.7489762818       39.2446448903       -4.1978931047  W2        3706            0.0000000000
     11119      3707  TIP3      OH2           -15.5419362818       39.6779048903       -6.7356631047  W2        3707            0.0000000000
     11120      3707  TIP3      H1            -15.4988262818       40.5377548903       -7.1540331047  W2        3707            0.0000000000
     11121      3707  TIP3      H2            -15.9995262818       39.1253748903       -7.3693431047  W2        3707            0.0000000000
     11122      3708  TIP3      OH2            -7.8196662818       39.8084648903       -8.3348331047  W2        3708            0.0000000000
     11123      3708  TIP3      H1             -7.1732362818       39.4797848903       -7.7100731047  W2        3708            0.0000000000
     11124      3708  TIP3      H2             -7.3097262818       40.3263648903       -8.9576931047  W2        3708            0.0000000000
     11125      3709  TIP3      OH2           -16.7317462818       38.5957448903       -2.6615831047  W2        3709            0.0000000000
     11126      3709  TIP3      H1            -16.9505762818       39.1258048903       -3.4279831047  W2        3709            0.0000000000
     11127      3709  TIP3      H2            -17.3996562818       38.8222948903       -2.0144431047  W2        3709            0.0000000000
     11128      3710  TIP3      OH2            -6.0558262818       39.0993948903       -6.3542431047  W2        3710            0.0000000000
     11129      3710  TIP3      H1             -6.2710262818       38.3337348903       -5.8216431047  W2        3710            0.0000000000
     11130      3710  TIP3      H2             -5.4000862818       39.5718548903       -5.8413931047  W2        3710            0.0000000000
     11131      3711  TIP3      OH2            -5.7084162818       37.8145248903       -2.6748931047  W2        3711            0.0000000000
     11132      3711  TIP3      H1             -6.4444962818       38.4252348903       -2.7127631047  W2        3711            0.0000000000
     11133      3711  TIP3      H2             -5.0250162818       38.2294248903       -3.2012531047  W2        3711            0.0000000000
     11134      3712  TIP3      OH2           -12.7052762818       35.9012548903       -5.2090931047  W2        3712            0.0000000000
     11135      3712  TIP3      H1            -12.8228562818       34.9528548903       -5.2632631047  W2        3712            0.0000000000
     11136      3712  TIP3      H2            -13.5602662818       36.2338648903       -4.9359831047  W2        3712            0.0000000000
     11137      3713  TIP3      OH2            -4.4632262818       35.8604748903      -12.2588331047  W2        3713            0.0000000000
     11138      3713  TIP3      H1             -5.3631562818       35.9993748903      -11.9637731047  W2        3713            0.0000000000
     11139      3713  TIP3      H2             -4.2113862818       36.6919348903      -12.6606631047  W2        3713            0.0000000000
     11140      3714  TIP3      OH2           -15.4365162818       36.8047048903       -4.4314631047  W2        3714            0.0000000000
     11141      3714  TIP3      H1            -16.2981462818       36.7175248903       -4.8391731047  W2        3714            0.0000000000
     11142      3714  TIP3      H2            -15.4589462818       37.6607148903       -4.0037031047  W2        3714            0.0000000000
     11143      3715  TIP3      OH2           -10.7737362818       36.5267448903       -1.0567631047  W2        3715            0.0000000000
     11144      3715  TIP3      H1            -10.3534262818       36.1114548903       -0.3037031047  W2        3715            0.0000000000
     11145      3715  TIP3      H2            -11.7067762818       36.3480748903       -0.9395631047  W2        3715            0.0000000000
     11146      3716  TIP3      OH2           -11.1120062818       39.0190848903      -13.7716831047  W2        3716            0.0000000000
     11147      3716  TIP3      H1            -11.3655262818       39.0382448903      -12.8488731047  W2        3716            0.0000000000
     11148      3716  TIP3      H2            -11.3687962818       38.1476248903      -14.0730631047  W2        3716            0.0000000000
     11149      3717  TIP3      OH2           -14.2297162818       39.4647348903      -14.6706431047  W2        3717            0.0000000000
     11150      3717  TIP3      H1            -14.6606462818       39.0197448903      -13.9409031047  W2        3717            0.0000000000
     11151      3717  TIP3      H2            -14.9478462818       39.8363648903      -15.1828931047  W2        3717            0.0000000000
     11152      3718  TIP3      OH2           -20.9873762818       39.2066848903       -7.6187731047  W2        3718            0.0000000000
     11153      3718  TIP3      H1            -20.3566062818       39.1778948903       -6.8993831047  W2        3718            0.0000000000
     11154      3718  TIP3      H2            -20.5379462818       38.7815548903       -8.3491831047  W2        3718            0.0000000000
     11155      3719  TIP3      OH2           -12.7670662818       39.4189148903       -7.3380331047  W2        3719            0.0000000000
     11156      3719  TIP3      H1            -13.6779562818       39.4755948903       -7.0494331047  W2        3719            0.0000000000
     11157      3719  TIP3      H2            -12.2617762818       39.3584648903       -6.5273131047  W2        3719            0.0000000000
     11158      3720  TIP3      OH2            -8.3618762818       38.6535448903       -4.0738531047  W2        3720            0.0000000000
     11159      3720  TIP3      H1             -9.0387162818       38.7848548903       -3.4098831047  W2        3720            0.0000000000
     11160      3720  TIP3      H2             -8.8473862818       38.4984948903       -4.8840831047  W2        3720            0.0000000000
     11161      3721  TIP3      OH2           -16.4451262818       38.3428248903       -9.0325931047  W2        3721            0.0000000000
     11162      3721  TIP3      H1            -16.7621762818       37.4403548903       -9.0680531047  W2        3721            0.0000000000
     11163      3721  TIP3      H2            -15.6637162818       38.3445648903       -9.5854331047  W2        3721            0.0000000000
     11164      3722  TIP3      OH2            -8.3785662818       39.6215848903      -13.1531331047  W2        3722            0.0000000000
     11165      3722  TIP3      H1             -9.3171462818       39.7331448903      -13.3042531047  W2        3722            0.0000000000
     11166      3722  TIP3      H2             -8.0813562818       40.4782748903      -12.8465631047  W2        3722            0.0000000000
     11167      3723  TIP3      OH2           -18.5094962818       39.3165548903       -0.7096131047  W2        3723            0.0000000000
     11168      3723  TIP3      H1            -19.4022662818       39.6550948903       -0.7772131047  W2        3723            0.0000000000
     11169      3723  TIP3      H2            -18.6082162818       38.4611648903       -0.2915331047  W2        3723            0.0000000000
     11170      3724  TIP3      OH2            -9.7751562818       39.0575848903       -1.8197531047  W2        3724            0.0000000000
     11171      3724  TIP3      H1             -9.0763662818       39.1314548903       -1.1697831047  W2        3724            0.0000000000
     11172      3724  TIP3      H2            -10.1560162818       38.1930848903       -1.6654631047  W2        3724            0.0000000000
     11173      3725  TIP3      OH2            -8.9906662818       38.7097548903      -10.7225231047  W2        3725            0.0000000000
     11174      3725  TIP3      H1             -8.7708362818       39.1812948903      -11.5259831047  W2        3725            0.0000000000
     11175      3725  TIP3      H2             -8.4322662818       39.1040148903      -10.0524631047  W2        3725            0.0000000000
     11176      3726  TIP3      OH2           -10.9070062818       37.5189348903       -8.9495731047  W2        3726            0.0000000000
     11177      3726  TIP3      H1            -11.2536562818       38.1359948903       -8.3051431047  W2        3726            0.0000000000
     11178      3726  TIP3      H2            -10.2483162818       38.0195048903       -9.4310231047  W2        3726            0.0000000000
     11179      3727  TIP3      OH2           -15.2493062818       38.5818748903      -12.2623231047  W2        3727            0.0000000000
     11180      3727  TIP3      H1            -15.3328262818       39.4701848903      -11.9156831047  W2        3727            0.0000000000
     11181      3727  TIP3      H2            -14.3592762818       38.3165448903      -12.0306431047  W2        3727            0.0000000000
     11182      3728  TIP3      OH2            -5.0504562818       39.3309348903        0.1319468953  W2        3728            0.0000000000
     11183      3728  TIP3      H1             -5.9668762818       39.5931048903        0.0443168953  W2        3728            0.0000000000
     11184      3728  TIP3      H2             -4.7149562818       39.3278348903       -0.7645231047  W2        3728            0.0000000000
     11185      3729  TIP3      OH2           -17.8666562818       36.4550548903       -5.4128331047  W2        3729            0.0000000000
     11186      3729  TIP3      H1            -18.0956762818       36.5143048903       -6.3403331047  W2        3729            0.0000000000
     11187      3729  TIP3      H2            -18.3093162818       35.6636048903       -5.1064231047  W2        3729            0.0000000000
     11188      3730  TIP3      OH2           -14.2093862818       38.7521048903       -1.5987531047  W2        3730            0.0000000000
     11189      3730  TIP3      H1            -13.6736362818       39.2037748903       -2.2508231047  W2        3730            0.0000000000
     11190      3730  TIP3      H2            -15.0614262818       38.6440848903       -2.0213431047  W2        3730            0.0000000000
     11191      3731  TIP3      OH2           -13.4038362818       36.2086748903       -1.1673931047  W2        3731            0.0000000000
     11192      3731  TIP3      H1            -13.5018762818       37.1549948903       -1.2727731047  W2        3731            0.0000000000
     11193      3731  TIP3      H2            -14.1462162818       35.8360548903       -1.6430431047  W2        3731            0.0000000000
     11194      3732  TIP3      OH2            -9.4241262818       39.6575648903        1.4717968953  W2        3732            0.0000000000
     11195      3732  TIP3      H1            -10.3715862818       39.6895348903        1.6041268953  W2        3732            0.0000000000
     11196      3732  TIP3      H2             -9.1114562818       39.0322748903        2.1256168953  W2        3732            0.0000000000
     11197      3733  TIP3      OH2            -7.7899762818       38.2916748903        3.4769868953  W2        3733            0.0000000000
     11198      3733  TIP3      H1             -7.8867962818       37.3394048903        3.4711768953  W2        3733            0.0000000000
     11199      3733  TIP3      H2             -8.1116662818       38.5603548903        4.3375368953  W2        3733            0.0000000000
     11200      3734  TIP3      OH2           -17.9630462818       39.5012548903        2.5245368953  W2        3734            0.0000000000
     11201      3734  TIP3      H1            -17.7513062818       38.7948648903        1.9142868953  W2        3734            0.0000000000
     11202      3734  TIP3      H2            -18.0742962818       39.0638548903        3.3686568953  W2        3734            0.0000000000
     11203      3735  TIP3      OH2           -13.1820262818       35.5024148903        1.5038868953  W2        3735            0.0000000000
     11204      3735  TIP3      H1            -12.4701862818       34.8626348903        1.4897968953  W2        3735            0.0000000000
     11205      3735  TIP3      H2            -13.2829862818       35.7692448903        0.5901968953  W2        3735            0.0000000000
     11206      3736  TIP3      OH2           -12.8282762818       37.1852548903        3.5575168953  W2        3736            0.0000000000
     11207      3736  TIP3      H1            -12.9600562818       36.7096348903        2.7373668953  W2        3736            0.0000000000
     11208      3736  TIP3      H2            -13.4275362818       37.9296148903        3.5022268953  W2        3736            0.0000000000
     11209      3737  TIP3      OH2            -5.0719562818       39.2032748903      -14.9636331047  W2        3737            0.0000000000
     11210      3737  TIP3      H1             -4.4613762818       38.8319548903      -14.3268131047  W2        3737            0.0000000000
     11211      3737  TIP3      H2             -5.9088062818       38.7819648903      -14.7676331047  W2        3737            0.0000000000
     11212      3738  TIP3      OH2            -2.5152062818       36.0564048903        3.5676868953  W2        3738            0.0000000000
     11213      3738  TIP3      H1             -2.1655062818       35.4027548903        2.9621568953  W2        3738            0.0000000000
     11214      3738  TIP3      H2             -2.3682562818       36.8938148903        3.1279468953  W2        3738            0.0000000000
     11215      3739  TIP3      OH2            -4.8259062818       38.0210448903       -9.9494431047  W2        3739            0.0000000000
     11216      3739  TIP3      H1             -4.6434062818       37.5721948903       -9.1239431047  W2        3739            0.0000000000
     11217      3739  TIP3      H2             -5.4256162818       37.4364848903      -10.4129831047  W2        3739            0.0000000000
     11218      3740  TIP3      OH2           -19.2958962818       38.8364148903       -5.4176031047  W2        3740            0.0000000000
     11219      3740  TIP3      H1            -18.8507362818       38.0446648903       -5.1156331047  W2        3740            0.0000000000
     11220      3740  TIP3      H2            -18.8295962818       39.5529348903       -4.9870431047  W2        3740            0.0000000000
     11221      3741  TIP3      OH2            -2.9954862818       38.1658648903        1.9168168953  W2        3741            0.0000000000
     11222      3741  TIP3      H1             -3.9129162818       38.4365748903        1.8811668953  W2        3741            0.0000000000
     11223      3741  TIP3      H2             -2.8725462818       37.6307048903        1.1327868953  W2        3741            0.0000000000
     11224      3742  TIP3      OH2            -2.9592862818       38.0888548903      -13.4214131047  W2        3742            0.0000000000
     11225      3742  TIP3      H1             -2.5470262818       37.3674248903      -13.8966131047  W2        3742            0.0000000000
     11226      3742  TIP3      H2             -2.2776362818       38.7583148903      -13.3629831047  W2        3742            0.0000000000
     11227      3743  TIP3      OH2           -20.6782162818       38.0936248903      -10.2943431047  W2        3743            0.0000000000
     11228      3743  TIP3      H1            -21.6033762818       38.3022848903      -10.4237931047  W2        3743            0.0000000000
     11229      3743  TIP3      H2            -20.2242262818       38.5777048903      -10.9841131047  W2        3743            0.0000000000
     11230      3744  TIP3      OH2           -20.7146762818       36.8315248903       -1.9500931047  W2        3744            0.0000000000
     11231      3744  TIP3      H1            -21.3796262818       36.5855548903       -1.3070031047  W2        3744            0.0000000000
     11232      3744  TIP3      H2            -21.1575462818       37.4535648903       -2.5272931047  W2        3744            0.0000000000
     11233      3745  TIP3      OH2            -3.9948962818       36.2554948903       -0.2641031047  W2        3745            0.0000000000
     11234      3745  TIP3      H1             -4.8075462818       36.5805248903       -0.6516331047  W2        3745            0.0000000000
     11235      3745  TIP3      H2             -3.7620462818       35.4953448903       -0.7971931047  W2        3745            0.0000000000
     11236      3746  TIP3      OH2           -10.5650462818       37.7045548903       -5.9412831047  W2        3746            0.0000000000
     11237      3746  TIP3      H1            -11.2393662818       37.0751148903       -5.6857031047  W2        3746            0.0000000000
     11238      3746  TIP3      H2            -10.0011262818       37.2204448903       -6.5444931047  W2        3746            0.0000000000
     11239      3747  TIP3      OH2            -5.4223262818       35.8119548903       -5.8285731047  W2        3747            0.0000000000
     11240      3747  TIP3      H1             -4.8185662818       36.3594948903       -6.3304731047  W2        3747            0.0000000000
     11241      3747  TIP3      H2             -6.2921262818       36.1309948903       -6.0691631047  W2        3747            0.0000000000
     11242      3748  TIP3      OH2            -3.6952862818       36.9508248903       -7.4954831047  W2        3748            0.0000000000
     11243      3748  TIP3      H1             -3.0835362818       36.4363948903       -8.0221231047  W2        3748            0.0000000000
     11244      3748  TIP3      H2             -3.3129462818       37.8280348903       -7.4720431047  W2        3748            0.0000000000
     11245      3749  TIP3      OH2           -18.2382962818       36.3385848903       -8.1192931047  W2        3749            0.0000000000
     11246      3749  TIP3      H1            -19.0153162818       36.1040748903       -8.6267031047  W2        3749            0.0000000000
     11247      3749  TIP3      H2            -17.7079362818       35.5417948903       -8.1104931047  W2        3749            0.0000000000
     11248      3750  TIP3      OH2           -19.4019562818       36.1363948903      -12.3156831047  W2        3750            0.0000000000
     11249      3750  TIP3      H1            -18.9628862818       36.7474448903      -12.9073331047  W2        3750            0.0000000000
     11250      3750  TIP3      H2            -20.0357162818       36.6748048903      -11.8416831047  W2        3750            0.0000000000
     11251      3751  TIP3      OH2           -13.6590362818       36.2652948903       -8.3059831047  W2        3751            0.0000000000
     11252      3751  TIP3      H1            -12.7846962818       36.6537248903       -8.3355531047  W2        3751            0.0000000000
     11253      3751  TIP3      H2            -13.7949562818       36.0500748903       -7.3832631047  W2        3751            0.0000000000
     11254      3752  TIP3      OH2            -8.1021962818       36.2952748903       -6.6568131047  W2        3752            0.0000000000
     11255      3752  TIP3      H1             -8.0260362818       36.3904348903       -7.6062131047  W2        3752            0.0000000000
     11256      3752  TIP3      H2             -8.3772762818       35.3875648903       -6.5279031047  W2        3752            0.0000000000
     11257      3753  TIP3      OH2            -6.7489362818       36.3210548903      -10.9643131047  W2        3753            0.0000000000
     11258      3753  TIP3      H1             -7.4518262818       36.9359748903      -11.1741731047  W2        3753            0.0000000000
     11259      3753  TIP3      H2             -7.1937962818       35.4837248903      -10.8332231047  W2        3753            0.0000000000
     11260      3754  TIP3      OH2           -17.5410462818       38.0525448903      -13.8732731047  W2        3754            0.0000000000
     11261      3754  TIP3      H1            -17.0497062818       37.4227848903      -14.4007231047  W2        3754            0.0000000000
     11262      3754  TIP3      H2            -16.9174162818       38.3484848903      -13.2101531047  W2        3754            0.0000000000
     11263      3755  TIP3      OH2           -12.5150362818       38.3456948903      -11.4162231047  W2        3755            0.0000000000
     11264      3755  TIP3      H1            -12.3369062818       37.6990148903      -10.7333631047  W2        3755            0.0000000000
     11265      3755  TIP3      H2            -12.5684162818       39.1794648903      -10.9491131047  W2        3755            0.0000000000
     11266      3756  TIP3      OH2           -18.2804962818       36.8527748903        1.3983268953  W2        3756            0.0000000000
     11267      3756  TIP3      H1            -18.6466762818       36.0870348903        1.8407968953  W2        3756            0.0000000000
     11268      3756  TIP3      H2            -17.3676462818       36.8817948903        1.6848368953  W2        3756            0.0000000000
     11269      3757  TIP3      OH2           -16.3074162818       36.2032148903        2.9340368953  W2        3757            0.0000000000
     11270      3757  TIP3      H1            -15.4090562818       35.9292348903        2.7493768953  W2        3757            0.0000000000
     11271      3757  TIP3      H2            -16.6941062818       35.4608148903        3.3982968953  W2        3757            0.0000000000
     11272      3758  TIP3      OH2            -7.8861862818       35.5357448903        3.1163168953  W2        3758            0.0000000000
     11273      3758  TIP3      H1             -7.8094662818       35.1098148903        3.9700868953  W2        3758            0.0000000000
     11274      3758  TIP3      H2             -6.9925262818       35.5492148903        2.7736668953  W2        3758            0.0000000000
     11275      3759  TIP3      OH2            15.6815137182       38.7835548903       -3.4750031047  W2        3759            0.0000000000
     11276      3759  TIP3      H1             15.7307337182       39.3936748903       -2.7390931047  W2        3759            0.0000000000
     11277      3759  TIP3      H2             16.1070237182       39.2446448903       -4.1978931047  W2        3759            0.0000000000
     11278      3760  TIP3      OH2             3.3140637182       39.6779048903       -6.7356631047  W2        3760            0.0000000000
     11279      3760  TIP3      H1              3.3571737182       40.5377548903       -7.1540331047  W2        3760            0.0000000000
     11280      3760  TIP3      H2              2.8564737182       39.1253748903       -7.3693431047  W2        3760            0.0000000000
     11281      3761  TIP3      OH2            11.0363337182       39.8084648903       -8.3348331047  W2        3761            0.0000000000
     11282      3761  TIP3      H1             11.6827637182       39.4797848903       -7.7100731047  W2        3761            0.0000000000
     11283      3761  TIP3      H2             11.5462737182       40.3263648903       -8.9576931047  W2        3761            0.0000000000
     11284      3762  TIP3      OH2             2.1242537182       38.5957448903       -2.6615831047  W2        3762            0.0000000000
     11285      3762  TIP3      H1              1.9054237182       39.1258048903       -3.4279831047  W2        3762            0.0000000000
     11286      3762  TIP3      H2              1.4563437182       38.8222948903       -2.0144431047  W2        3762            0.0000000000
     11287      3763  TIP3      OH2            12.8001737182       39.0993948903       -6.3542431047  W2        3763            0.0000000000
     11288      3763  TIP3      H1             12.5849737182       38.3337348903       -5.8216431047  W2        3763            0.0000000000
     11289      3763  TIP3      H2             13.4559137182       39.5718548903       -5.8413931047  W2        3763            0.0000000000
     11290      3764  TIP3      OH2            13.1475837182       37.8145248903       -2.6748931047  W2        3764            0.0000000000
     11291      3764  TIP3      H1             12.4115037182       38.4252348903       -2.7127631047  W2        3764            0.0000000000
     11292      3764  TIP3      H2             13.8309837182       38.2294248903       -3.2012531047  W2        3764            0.0000000000
     11293      3765  TIP3      OH2             6.1507237182       35.9012548903       -5.2090931047  W2        3765            0.0000000000
     11294      3765  TIP3      H1              6.0331437182       34.9528548903       -5.2632631047  W2        3765            0.0000000000
     11295      3765  TIP3      H2              5.2957337182       36.2338648903       -4.9359831047  W2        3765            0.0000000000
     11296      3766  TIP3      OH2            14.3927737182       35.8604748903      -12.2588331047  W2        3766            0.0000000000
     11297      3766  TIP3      H1             13.4928437182       35.9993748903      -11.9637731047  W2        3766            0.0000000000
     11298      3766  TIP3      H2             14.6446137182       36.6919348903      -12.6606631047  W2        3766            0.0000000000
     11299      3767  TIP3      OH2             3.4194837182       36.8047048903       -4.4314631047  W2        3767            0.0000000000
     11300      3767  TIP3      H1              2.5578537182       36.7175248903       -4.8391731047  W2        3767            0.0000000000
     11301      3767  TIP3      H2              3.3970537182       37.6607148903       -4.0037031047  W2        3767            0.0000000000
     11302      3768  TIP3      OH2             8.0822637182       36.5267448903       -1.0567631047  W2        3768            0.0000000000
     11303      3768  TIP3      H1              8.5025737182       36.1114548903       -0.3037031047  W2        3768            0.0000000000
     11304      3768  TIP3      H2              7.1492237182       36.3480748903       -0.9395631047  W2        3768            0.0000000000
     11305      3769  TIP3      OH2             7.7439937182       39.0190848903      -13.7716831047  W2        3769            0.0000000000
     11306      3769  TIP3      H1              7.4904737182       39.0382448903      -12.8488731047  W2        3769            0.0000000000
     11307      3769  TIP3      H2              7.4872037182       38.1476248903      -14.0730631047  W2        3769            0.0000000000
     11308      3770  TIP3      OH2             4.6262837182       39.4647348903      -14.6706431047  W2        3770            0.0000000000
     11309      3770  TIP3      H1              4.1953537182       39.0197448903      -13.9409031047  W2        3770            0.0000000000
     11310      3770  TIP3      H2              3.9081537182       39.8363648903      -15.1828931047  W2        3770            0.0000000000
     11311      3771  TIP3      OH2            -2.1313762818       39.2066848903       -7.6187731047  W2        3771            0.0000000000
     11312      3771  TIP3      H1             -1.5006062818       39.1778948903       -6.8993831047  W2        3771            0.0000000000
     11313      3771  TIP3      H2             -1.6819462818       38.7815548903       -8.3491831047  W2        3771            0.0000000000
     11314      3772  TIP3      OH2             6.0889337182       39.4189148903       -7.3380331047  W2        3772            0.0000000000
     11315      3772  TIP3      H1              5.1780437182       39.4755948903       -7.0494331047  W2        3772            0.0000000000
     11316      3772  TIP3      H2              6.5942237182       39.3584648903       -6.5273131047  W2        3772            0.0000000000
     11317      3773  TIP3      OH2            10.4941237182       38.6535448903       -4.0738531047  W2        3773            0.0000000000
     11318      3773  TIP3      H1              9.8172837182       38.7848548903       -3.4098831047  W2        3773            0.0000000000
     11319      3773  TIP3      H2             10.0086137182       38.4984948903       -4.8840831047  W2        3773            0.0000000000
     11320      3774  TIP3      OH2             2.4108737182       38.3428248903       -9.0325931047  W2        3774            0.0000000000
     11321      3774  TIP3      H1              2.0938237182       37.4403548903       -9.0680531047  W2        3774            0.0000000000
     11322      3774  TIP3      H2              3.1922837182       38.3445648903       -9.5854331047  W2        3774            0.0000000000
     11323      3775  TIP3      OH2            10.4774337182       39.6215848903      -13.1531331047  W2        3775            0.0000000000
     11324      3775  TIP3      H1              9.5388537182       39.7331448903      -13.3042531047  W2        3775            0.0000000000
     11325      3775  TIP3      H2             10.7746437182       40.4782748903      -12.8465631047  W2        3775            0.0000000000
     11326      3776  TIP3      OH2             0.3465037182       39.3165548903       -0.7096131047  W2        3776            0.0000000000
     11327      3776  TIP3      H1             -0.5462662818       39.6550948903       -0.7772131047  W2        3776            0.0000000000
     11328      3776  TIP3      H2              0.2477837182       38.4611648903       -0.2915331047  W2        3776            0.0000000000
     11329      3777  TIP3      OH2             9.0808437182       39.0575848903       -1.8197531047  W2        3777            0.0000000000
     11330      3777  TIP3      H1              9.7796337182       39.1314548903       -1.1697831047  W2        3777            0.0000000000
     11331      3777  TIP3      H2              8.6999837182       38.1930848903       -1.6654631047  W2        3777            0.0000000000
     11332      3778  TIP3      OH2             9.8653337182       38.7097548903      -10.7225231047  W2        3778            0.0000000000
     11333      3778  TIP3      H1             10.0851637182       39.1812948903      -11.5259831047  W2        3778            0.0000000000
     11334      3778  TIP3      H2             10.4237337182       39.1040148903      -10.0524631047  W2        3778            0.0000000000
     11335      3779  TIP3      OH2             7.9489937182       37.5189348903       -8.9495731047  W2        3779            0.0000000000
     11336      3779  TIP3      H1              7.6023437182       38.1359948903       -8.3051431047  W2        3779            0.0000000000
     11337      3779  TIP3      H2              8.6076837182       38.0195048903       -9.4310231047  W2        3779            0.0000000000
     11338      3780  TIP3      OH2             3.6066937182       38.5818748903      -12.2623231047  W2        3780            0.0000000000
     11339      3780  TIP3      H1              3.5231737182       39.4701848903      -11.9156831047  W2        3780            0.0000000000
     11340      3780  TIP3      H2              4.4967237182       38.3165448903      -12.0306431047  W2        3780            0.0000000000
     11341      3781  TIP3      OH2            13.8055437182       39.3309348903        0.1319468953  W2        3781            0.0000000000
     11342      3781  TIP3      H1             12.8891237182       39.5931048903        0.0443168953  W2        3781            0.0000000000
     11343      3781  TIP3      H2             14.1410437182       39.3278348903       -0.7645231047  W2        3781            0.0000000000
     11344      3782  TIP3      OH2             0.9893437182       36.4550548903       -5.4128331047  W2        3782            0.0000000000
     11345      3782  TIP3      H1              0.7603237182       36.5143048903       -6.3403331047  W2        3782            0.0000000000
     11346      3782  TIP3      H2              0.5466837182       35.6636048903       -5.1064231047  W2        3782            0.0000000000
     11347      3783  TIP3      OH2             4.6466137182       38.7521048903       -1.5987531047  W2        3783            0.0000000000
     11348      3783  TIP3      H1              5.1823637182       39.2037748903       -2.2508231047  W2        3783            0.0000000000
     11349      3783  TIP3      H2              3.7945737182       38.6440848903       -2.0213431047  W2        3783            0.0000000000
     11350      3784  TIP3      OH2             5.4521637182       36.2086748903       -1.1673931047  W2        3784            0.0000000000
     11351      3784  TIP3      H1              5.3541237182       37.1549948903       -1.2727731047  W2        3784            0.0000000000
     11352      3784  TIP3      H2              4.7097837182       35.8360548903       -1.6430431047  W2        3784            0.0000000000
     11353      3785  TIP3      OH2             9.4318737182       39.6575648903        1.4717968953  W2        3785            0.0000000000
     11354      3785  TIP3      H1              8.4844137182       39.6895348903        1.6041268953  W2        3785            0.0000000000
     11355      3785  TIP3      H2              9.7445437182       39.0322748903        2.1256168953  W2        3785            0.0000000000
     11356      3786  TIP3      OH2            11.0660237182       38.2916748903        3.4769868953  W2        3786            0.0000000000
     11357      3786  TIP3      H1             10.9692037182       37.3394048903        3.4711768953  W2        3786            0.0000000000
     11358      3786  TIP3      H2             10.7443337182       38.5603548903        4.3375368953  W2        3786            0.0000000000
     11359      3787  TIP3      OH2             0.8929537182       39.5012548903        2.5245368953  W2        3787            0.0000000000
     11360      3787  TIP3      H1              1.1046937182       38.7948648903        1.9142868953  W2        3787            0.0000000000
     11361      3787  TIP3      H2              0.7817037182       39.0638548903        3.3686568953  W2        3787            0.0000000000
     11362      3788  TIP3      OH2             5.6739737182       35.5024148903        1.5038868953  W2        3788            0.0000000000
     11363      3788  TIP3      H1              6.3858137182       34.8626348903        1.4897968953  W2        3788            0.0000000000
     11364      3788  TIP3      H2              5.5730137182       35.7692448903        0.5901968953  W2        3788            0.0000000000
     11365      3789  TIP3      OH2             6.0277237182       37.1852548903        3.5575168953  W2        3789            0.0000000000
     11366      3789  TIP3      H1              5.8959437182       36.7096348903        2.7373668953  W2        3789            0.0000000000
     11367      3789  TIP3      H2              5.4284637182       37.9296148903        3.5022268953  W2        3789            0.0000000000
     11368      3790  TIP3      OH2            13.7840437182       39.2032748903      -14.9636331047  W2        3790            0.0000000000
     11369      3790  TIP3      H1             14.3946237182       38.8319548903      -14.3268131047  W2        3790            0.0000000000
     11370      3790  TIP3      H2             12.9471937182       38.7819648903      -14.7676331047  W2        3790            0.0000000000
     11371      3791  TIP3      OH2            16.3407937182       36.0564048903        3.5676868953  W2        3791            0.0000000000
     11372      3791  TIP3      H1             16.6904937182       35.4027548903        2.9621568953  W2        3791            0.0000000000
     11373      3791  TIP3      H2             16.4877437182       36.8938148903        3.1279468953  W2        3791            0.0000000000
     11374      3792  TIP3      OH2            14.0300937182       38.0210448903       -9.9494431047  W2        3792            0.0000000000
     11375      3792  TIP3      H1             14.2125937182       37.5721948903       -9.1239431047  W2        3792            0.0000000000
     11376      3792  TIP3      H2             13.4303837182       37.4364848903      -10.4129831047  W2        3792            0.0000000000
     11377      3793  TIP3      OH2            -0.4398962818       38.8364148903       -5.4176031047  W2        3793            0.0000000000
     11378      3793  TIP3      H1              0.0052637182       38.0446648903       -5.1156331047  W2        3793            0.0000000000
     11379      3793  TIP3      H2              0.0264037182       39.5529348903       -4.9870431047  W2        3793            0.0000000000
     11380      3794  TIP3      OH2            15.8605137182       38.1658648903        1.9168168953  W2        3794            0.0000000000
     11381      3794  TIP3      H1             14.9430837182       38.4365748903        1.8811668953  W2        3794            0.0000000000
     11382      3794  TIP3      H2             15.9834537182       37.6307048903        1.1327868953  W2        3794            0.0000000000
     11383      3795  TIP3      OH2            15.8967137182       38.0888548903      -13.4214131047  W2        3795            0.0000000000
     11384      3795  TIP3      H1             16.3089737182       37.3674248903      -13.8966131047  W2        3795            0.0000000000
     11385      3795  TIP3      H2             16.5783637182       38.7583148903      -13.3629831047  W2        3795            0.0000000000
     11386      3796  TIP3      OH2            -1.8222162818       38.0936248903      -10.2943431047  W2        3796            0.0000000000
     11387      3796  TIP3      H1             -2.7473762818       38.3022848903      -10.4237931047  W2        3796            0.0000000000
     11388      3796  TIP3      H2             -1.3682262818       38.5777048903      -10.9841131047  W2        3796            0.0000000000
     11389      3797  TIP3      OH2            -1.8586762818       36.8315248903       -1.9500931047  W2        3797            0.0000000000
     11390      3797  TIP3      H1             -2.5236262818       36.5855548903       -1.3070031047  W2        3797            0.0000000000
     11391      3797  TIP3      H2             -2.3015462818       37.4535648903       -2.5272931047  W2        3797            0.0000000000
     11392      3798  TIP3      OH2            14.8611037182       36.2554948903       -0.2641031047  W2        3798            0.0000000000
     11393      3798  TIP3      H1             14.0484537182       36.5805248903       -0.6516331047  W2        3798            0.0000000000
     11394      3798  TIP3      H2             15.0939537182       35.4953448903       -0.7971931047  W2        3798            0.0000000000
     11395      3799  TIP3      OH2             8.2909537182       37.7045548903       -5.9412831047  W2        3799            0.0000000000
     11396      3799  TIP3      H1              7.6166337182       37.0751148903       -5.6857031047  W2        3799            0.0000000000
     11397      3799  TIP3      H2              8.8548737182       37.2204448903       -6.5444931047  W2        3799            0.0000000000
     11398      3800  TIP3      OH2            13.4336737182       35.8119548903       -5.8285731047  W2        3800            0.0000000000
     11399      3800  TIP3      H1             14.0374337182       36.3594948903       -6.3304731047  W2        3800            0.0000000000
     11400      3800  TIP3      H2             12.5638737182       36.1309948903       -6.0691631047  W2        3800            0.0000000000
     11401      3801  TIP3      OH2            15.1607137182       36.9508248903       -7.4954831047  W2        3801            0.0000000000
     11402      3801  TIP3      H1             15.7724637182       36.4363948903       -8.0221231047  W2        3801            0.0000000000
     11403      3801  TIP3      H2             15.5430537182       37.8280348903       -7.4720431047  W2        3801            0.0000000000
     11404      3802  TIP3      OH2             0.6177037182       36.3385848903       -8.1192931047  W2        3802            0.0000000000
     11405      3802  TIP3      H1             -0.1593162818       36.1040748903       -8.6267031047  W2        3802            0.0000000000
     11406      3802  TIP3      H2              1.1480637182       35.5417948903       -8.1104931047  W2        3802            0.0000000000
     11407      3803  TIP3      OH2            -0.5459562818       36.1363948903      -12.3156831047  W2        3803            0.0000000000
     11408      3803  TIP3      H1             -0.1068862818       36.7474448903      -12.9073331047  W2        3803            0.0000000000
     11409      3803  TIP3      H2             -1.1797162818       36.6748048903      -11.8416831047  W2        3803            0.0000000000
     11410      3804  TIP3      OH2             5.1969637182       36.2652948903       -8.3059831047  W2        3804            0.0000000000
     11411      3804  TIP3      H1              6.0713037182       36.6537248903       -8.3355531047  W2        3804            0.0000000000
     11412      3804  TIP3      H2              5.0610437182       36.0500748903       -7.3832631047  W2        3804            0.0000000000
     11413      3805  TIP3      OH2            10.7538037182       36.2952748903       -6.6568131047  W2        3805            0.0000000000
     11414      3805  TIP3      H1             10.8299637182       36.3904348903       -7.6062131047  W2        3805            0.0000000000
     11415      3805  TIP3      H2             10.4787237182       35.3875648903       -6.5279031047  W2        3805            0.0000000000
     11416      3806  TIP3      OH2            12.1070637182       36.3210548903      -10.9643131047  W2        3806            0.0000000000
     11417      3806  TIP3      H1             11.4041737182       36.9359748903      -11.1741731047  W2        3806            0.0000000000
     11418      3806  TIP3      H2             11.6622037182       35.4837248903      -10.8332231047  W2        3806            0.0000000000
     11419      3807  TIP3      OH2             1.3149537182       38.0525448903      -13.8732731047  W2        3807            0.0000000000
     11420      3807  TIP3      H1              1.8062937182       37.4227848903      -14.4007231047  W2        3807            0.0000000000
     11421      3807  TIP3      H2              1.9385837182       38.3484848903      -13.2101531047  W2        3807            0.0000000000
     11422      3808  TIP3      OH2             6.3409637182       38.3456948903      -11.4162231047  W2        3808            0.0000000000
     11423      3808  TIP3      H1              6.5190937182       37.6990148903      -10.7333631047  W2        3808            0.0000000000
     11424      3808  TIP3      H2              6.2875837182       39.1794648903      -10.9491131047  W2        3808            0.0000000000
     11425      3809  TIP3      OH2             0.5755037182       36.8527748903        1.3983268953  W2        3809            0.0000000000
     11426      3809  TIP3      H1              0.2093237182       36.0870348903        1.8407968953  W2        3809            0.0000000000
     11427      3809  TIP3      H2              1.4883537182       36.8817948903        1.6848368953  W2        3809            0.0000000000
     11428      3810  TIP3      OH2             2.5485837182       36.2032148903        2.9340368953  W2        3810            0.0000000000
     11429      3810  TIP3      H1              3.4469437182       35.9292348903        2.7493768953  W2        3810            0.0000000000
     11430      3810  TIP3      H2              2.1618937182       35.4608148903        3.3982968953  W2        3810            0.0000000000
     11431      3811  TIP3      OH2            10.9698137182       35.5357448903        3.1163168953  W2        3811            0.0000000000
     11432      3811  TIP3      H1             11.0465337182       35.1098148903        3.9700868953  W2        3811            0.0000000000
     11433      3811  TIP3      H2             11.8634737182       35.5492148903        2.7736668953  W2        3811            0.0000000000
     11434      3812  TIP3      OH2            34.5375137182       38.7835548903       -3.4750031047  W2        3812            0.0000000000
     11435      3812  TIP3      H1             34.5867337182       39.3936748903       -2.7390931047  W2        3812            0.0000000000
     11436      3812  TIP3      H2             34.9630237182       39.2446448903       -4.1978931047  W2        3812            0.0000000000
     11437      3813  TIP3      OH2            22.1700637182       39.6779048903       -6.7356631047  W2        3813            0.0000000000
     11438      3813  TIP3      H1             22.2131737182       40.5377548903       -7.1540331047  W2        3813            0.0000000000
     11439      3813  TIP3      H2             21.7124737182       39.1253748903       -7.3693431047  W2        3813            0.0000000000
     11440      3814  TIP3      OH2            29.8923337182       39.8084648903       -8.3348331047  W2        3814            0.0000000000
     11441      3814  TIP3      H1             30.5387637182       39.4797848903       -7.7100731047  W2        3814            0.0000000000
     11442      3814  TIP3      H2             30.4022737182       40.3263648903       -8.9576931047  W2        3814            0.0000000000
     11443      3815  TIP3      OH2            20.9802537182       38.5957448903       -2.6615831047  W2        3815            0.0000000000
     11444      3815  TIP3      H1             20.7614237182       39.1258048903       -3.4279831047  W2        3815            0.0000000000
     11445      3815  TIP3      H2             20.3123437182       38.8222948903       -2.0144431047  W2        3815            0.0000000000
     11446      3816  TIP3      OH2            31.6561737182       39.0993948903       -6.3542431047  W2        3816            0.0000000000
     11447      3816  TIP3      H1             31.4409737182       38.3337348903       -5.8216431047  W2        3816            0.0000000000
     11448      3816  TIP3      H2             32.3119137182       39.5718548903       -5.8413931047  W2        3816            0.0000000000
     11449      3817  TIP3      OH2            32.0035837182       37.8145248903       -2.6748931047  W2        3817            0.0000000000
     11450      3817  TIP3      H1             31.2675037182       38.4252348903       -2.7127631047  W2        3817            0.0000000000
     11451      3817  TIP3      H2             32.6869837182       38.2294248903       -3.2012531047  W2        3817            0.0000000000
     11452      3818  TIP3      OH2            25.0067237182       35.9012548903       -5.2090931047  W2        3818            0.0000000000
     11453      3818  TIP3      H1             24.8891437182       34.9528548903       -5.2632631047  W2        3818            0.0000000000
     11454      3818  TIP3      H2             24.1517337182       36.2338648903       -4.9359831047  W2        3818            0.0000000000
     11455      3819  TIP3      OH2            33.2487737182       35.8604748903      -12.2588331047  W2        3819            0.0000000000
     11456      3819  TIP3      H1             32.3488437182       35.9993748903      -11.9637731047  W2        3819            0.0000000000
     11457      3819  TIP3      H2             33.5006137182       36.6919348903      -12.6606631047  W2        3819            0.0000000000
     11458      3820  TIP3      OH2            22.2754837182       36.8047048903       -4.4314631047  W2        3820            0.0000000000
     11459      3820  TIP3      H1             21.4138537182       36.7175248903       -4.8391731047  W2        3820            0.0000000000
     11460      3820  TIP3      H2             22.2530537182       37.6607148903       -4.0037031047  W2        3820            0.0000000000
     11461      3821  TIP3      OH2            26.9382637182       36.5267448903       -1.0567631047  W2        3821            0.0000000000
     11462      3821  TIP3      H1             27.3585737182       36.1114548903       -0.3037031047  W2        3821            0.0000000000
     11463      3821  TIP3      H2             26.0052237182       36.3480748903       -0.9395631047  W2        3821            0.0000000000
     11464      3822  TIP3      OH2            26.5999937182       39.0190848903      -13.7716831047  W2        3822            0.0000000000
     11465      3822  TIP3      H1             26.3464737182       39.0382448903      -12.8488731047  W2        3822            0.0000000000
     11466      3822  TIP3      H2             26.3432037182       38.1476248903      -14.0730631047  W2        3822            0.0000000000
     11467      3823  TIP3      OH2            23.4822837182       39.4647348903      -14.6706431047  W2        3823            0.0000000000
     11468      3823  TIP3      H1             23.0513537182       39.0197448903      -13.9409031047  W2        3823            0.0000000000
     11469      3823  TIP3      H2             22.7641537182       39.8363648903      -15.1828931047  W2        3823            0.0000000000
     11470      3824  TIP3      OH2            16.7246237182       39.2066848903       -7.6187731047  W2        3824            0.0000000000
     11471      3824  TIP3      H1             17.3553937182       39.1778948903       -6.8993831047  W2        3824            0.0000000000
     11472      3824  TIP3      H2             17.1740537182       38.7815548903       -8.3491831047  W2        3824            0.0000000000
     11473      3825  TIP3      OH2            24.9449337182       39.4189148903       -7.3380331047  W2        3825            0.0000000000
     11474      3825  TIP3      H1             24.0340437182       39.4755948903       -7.0494331047  W2        3825            0.0000000000
     11475      3825  TIP3      H2             25.4502237182       39.3584648903       -6.5273131047  W2        3825            0.0000000000
     11476      3826  TIP3      OH2            29.3501237182       38.6535448903       -4.0738531047  W2        3826            0.0000000000
     11477      3826  TIP3      H1             28.6732837182       38.7848548903       -3.4098831047  W2        3826            0.0000000000
     11478      3826  TIP3      H2             28.8646137182       38.4984948903       -4.8840831047  W2        3826            0.0000000000
     11479      3827  TIP3      OH2            21.2668737182       38.3428248903       -9.0325931047  W2        3827            0.0000000000
     11480      3827  TIP3      H1             20.9498237182       37.4403548903       -9.0680531047  W2        3827            0.0000000000
     11481      3827  TIP3      H2             22.0482837182       38.3445648903       -9.5854331047  W2        3827            0.0000000000
     11482      3828  TIP3      OH2            29.3334337182       39.6215848903      -13.1531331047  W2        3828            0.0000000000
     11483      3828  TIP3      H1             28.3948537182       39.7331448903      -13.3042531047  W2        3828            0.0000000000
     11484      3828  TIP3      H2             29.6306437182       40.4782748903      -12.8465631047  W2        3828            0.0000000000
     11485      3829  TIP3      OH2            19.2025037182       39.3165548903       -0.7096131047  W2        3829            0.0000000000
     11486      3829  TIP3      H1             18.3097337182       39.6550948903       -0.7772131047  W2        3829            0.0000000000
     11487      3829  TIP3      H2             19.1037837182       38.4611648903       -0.2915331047  W2        3829            0.0000000000
     11488      3830  TIP3      OH2            27.9368437182       39.0575848903       -1.8197531047  W2        3830            0.0000000000
     11489      3830  TIP3      H1             28.6356337182       39.1314548903       -1.1697831047  W2        3830            0.0000000000
     11490      3830  TIP3      H2             27.5559837182       38.1930848903       -1.6654631047  W2        3830            0.0000000000
     11491      3831  TIP3      OH2            28.7213337182       38.7097548903      -10.7225231047  W2        3831            0.0000000000
     11492      3831  TIP3      H1             28.9411637182       39.1812948903      -11.5259831047  W2        3831            0.0000000000
     11493      3831  TIP3      H2             29.2797337182       39.1040148903      -10.0524631047  W2        3831            0.0000000000
     11494      3832  TIP3      OH2            26.8049937182       37.5189348903       -8.9495731047  W2        3832            0.0000000000
     11495      3832  TIP3      H1             26.4583437182       38.1359948903       -8.3051431047  W2        3832            0.0000000000
     11496      3832  TIP3      H2             27.4636837182       38.0195048903       -9.4310231047  W2        3832            0.0000000000
     11497      3833  TIP3      OH2            22.4626937182       38.5818748903      -12.2623231047  W2        3833            0.0000000000
     11498      3833  TIP3      H1             22.3791737182       39.4701848903      -11.9156831047  W2        3833            0.0000000000
     11499      3833  TIP3      H2             23.3527237182       38.3165448903      -12.0306431047  W2        3833            0.0000000000
     11500      3834  TIP3      OH2            32.6615437182       39.3309348903        0.1319468953  W2        3834            0.0000000000
     11501      3834  TIP3      H1             31.7451237182       39.5931048903        0.0443168953  W2        3834            0.0000000000
     11502      3834  TIP3      H2             32.9970437182       39.3278348903       -0.7645231047  W2        3834            0.0000000000
     11503      3835  TIP3      OH2            19.8453437182       36.4550548903       -5.4128331047  W2        3835            0.0000000000
     11504      3835  TIP3      H1             19.6163237182       36.5143048903       -6.3403331047  W2        3835            0.0000000000
     11505      3835  TIP3      H2             19.4026837182       35.6636048903       -5.1064231047  W2        3835            0.0000000000
     11506      3836  TIP3      OH2            23.5026137182       38.7521048903       -1.5987531047  W2        3836            0.0000000000
     11507      3836  TIP3      H1             24.0383637182       39.2037748903       -2.2508231047  W2        3836            0.0000000000
     11508      3836  TIP3      H2             22.6505737182       38.6440848903       -2.0213431047  W2        3836            0.0000000000
     11509      3837  TIP3      OH2            24.3081637182       36.2086748903       -1.1673931047  W2        3837            0.0000000000
     11510      3837  TIP3      H1             24.2101237182       37.1549948903       -1.2727731047  W2        3837            0.0000000000
     11511      3837  TIP3      H2             23.5657837182       35.8360548903       -1.6430431047  W2        3837            0.0000000000
     11512      3838  TIP3      OH2            28.2878737182       39.6575648903        1.4717968953  W2        3838            0.0000000000
     11513      3838  TIP3      H1             27.3404137182       39.6895348903        1.6041268953  W2        3838            0.0000000000
     11514      3838  TIP3      H2             28.6005437182       39.0322748903        2.1256168953  W2        3838            0.0000000000
     11515      3839  TIP3      OH2            29.9220237182       38.2916748903        3.4769868953  W2        3839            0.0000000000
     11516      3839  TIP3      H1             29.8252037182       37.3394048903        3.4711768953  W2        3839            0.0000000000
     11517      3839  TIP3      H2             29.6003337182       38.5603548903        4.3375368953  W2        3839            0.0000000000
     11518      3840  TIP3      OH2            19.7489537182       39.5012548903        2.5245368953  W2        3840            0.0000000000
     11519      3840  TIP3      H1             19.9606937182       38.7948648903        1.9142868953  W2        3840            0.0000000000
     11520      3840  TIP3      H2             19.6377037182       39.0638548903        3.3686568953  W2        3840            0.0000000000
     11521      3841  TIP3      OH2            24.5299737182       35.5024148903        1.5038868953  W2        3841            0.0000000000
     11522      3841  TIP3      H1             25.2418137182       34.8626348903        1.4897968953  W2        3841            0.0000000000
     11523      3841  TIP3      H2             24.4290137182       35.7692448903        0.5901968953  W2        3841            0.0000000000
     11524      3842  TIP3      OH2            24.8837237182       37.1852548903        3.5575168953  W2        3842            0.0000000000
     11525      3842  TIP3      H1             24.7519437182       36.7096348903        2.7373668953  W2        3842            0.0000000000
     11526      3842  TIP3      H2             24.2844637182       37.9296148903        3.5022268953  W2        3842            0.0000000000
     11527      3843  TIP3      OH2            32.6400437182       39.2032748903      -14.9636331047  W2        3843            0.0000000000
     11528      3843  TIP3      H1             33.2506237182       38.8319548903      -14.3268131047  W2        3843            0.0000000000
     11529      3843  TIP3      H2             31.8031937182       38.7819648903      -14.7676331047  W2        3843            0.0000000000
     11530      3844  TIP3      OH2            35.1967937182       36.0564048903        3.5676868953  W2        3844            0.0000000000
     11531      3844  TIP3      H1             35.5464937182       35.4027548903        2.9621568953  W2        3844            0.0000000000
     11532      3844  TIP3      H2             35.3437437182       36.8938148903        3.1279468953  W2        3844            0.0000000000
     11533      3845  TIP3      OH2            32.8860937182       38.0210448903       -9.9494431047  W2        3845            0.0000000000
     11534      3845  TIP3      H1             33.0685937182       37.5721948903       -9.1239431047  W2        3845            0.0000000000
     11535      3845  TIP3      H2             32.2863837182       37.4364848903      -10.4129831047  W2        3845            0.0000000000
     11536      3846  TIP3      OH2            18.4161037182       38.8364148903       -5.4176031047  W2        3846            0.0000000000
     11537      3846  TIP3      H1             18.8612637182       38.0446648903       -5.1156331047  W2        3846            0.0000000000
     11538      3846  TIP3      H2             18.8824037182       39.5529348903       -4.9870431047  W2        3846            0.0000000000
     11539      3847  TIP3      OH2            34.7165137182       38.1658648903        1.9168168953  W2        3847            0.0000000000
     11540      3847  TIP3      H1             33.7990837182       38.4365748903        1.8811668953  W2        3847            0.0000000000
     11541      3847  TIP3      H2             34.8394537182       37.6307048903        1.1327868953  W2        3847            0.0000000000
     11542      3848  TIP3      OH2            34.7527137182       38.0888548903      -13.4214131047  W2        3848            0.0000000000
     11543      3848  TIP3      H1             35.1649737182       37.3674248903      -13.8966131047  W2        3848            0.0000000000
     11544      3848  TIP3      H2             35.4343637182       38.7583148903      -13.3629831047  W2        3848            0.0000000000
     11545      3849  TIP3      OH2            17.0337837182       38.0936248903      -10.2943431047  W2        3849            0.0000000000
     11546      3849  TIP3      H1             16.1086237182       38.3022848903      -10.4237931047  W2        3849            0.0000000000
     11547      3849  TIP3      H2             17.4877737182       38.5777048903      -10.9841131047  W2        3849            0.0000000000
     11548      3850  TIP3      OH2            16.9973237182       36.8315248903       -1.9500931047  W2        3850            0.0000000000
     11549      3850  TIP3      H1             16.3323737182       36.5855548903       -1.3070031047  W2        3850            0.0000000000
     11550      3850  TIP3      H2             16.5544537182       37.4535648903       -2.5272931047  W2        3850            0.0000000000
     11551      3851  TIP3      OH2            33.7171037182       36.2554948903       -0.2641031047  W2        3851            0.0000000000
     11552      3851  TIP3      H1             32.9044537182       36.5805248903       -0.6516331047  W2        3851            0.0000000000
     11553      3851  TIP3      H2             33.9499537182       35.4953448903       -0.7971931047  W2        3851            0.0000000000
     11554      3852  TIP3      OH2            27.1469537182       37.7045548903       -5.9412831047  W2        3852            0.0000000000
     11555      3852  TIP3      H1             26.4726337182       37.0751148903       -5.6857031047  W2        3852            0.0000000000
     11556      3852  TIP3      H2             27.7108737182       37.2204448903       -6.5444931047  W2        3852            0.0000000000
     11557      3853  TIP3      OH2            32.2896737182       35.8119548903       -5.8285731047  W2        3853            0.0000000000
     11558      3853  TIP3      H1             32.8934337182       36.3594948903       -6.3304731047  W2        3853            0.0000000000
     11559      3853  TIP3      H2             31.4198737182       36.1309948903       -6.0691631047  W2        3853            0.0000000000
     11560      3854  TIP3      OH2            34.0167137182       36.9508248903       -7.4954831047  W2        3854            0.0000000000
     11561      3854  TIP3      H1             34.6284637182       36.4363948903       -8.0221231047  W2        3854            0.0000000000
     11562      3854  TIP3      H2             34.3990537182       37.8280348903       -7.4720431047  W2        3854            0.0000000000
     11563      3855  TIP3      OH2            19.4737037182       36.3385848903       -8.1192931047  W2        3855            0.0000000000
     11564      3855  TIP3      H1             18.6966837182       36.1040748903       -8.6267031047  W2        3855            0.0000000000
     11565      3855  TIP3      H2             20.0040637182       35.5417948903       -8.1104931047  W2        3855            0.0000000000
     11566      3856  TIP3      OH2            18.3100437182       36.1363948903      -12.3156831047  W2        3856            0.0000000000
     11567      3856  TIP3      H1             18.7491137182       36.7474448903      -12.9073331047  W2        3856            0.0000000000
     11568      3856  TIP3      H2             17.6762837182       36.6748048903      -11.8416831047  W2        3856            0.0000000000
     11569      3857  TIP3      OH2            24.0529637182       36.2652948903       -8.3059831047  W2        3857            0.0000000000
     11570      3857  TIP3      H1             24.9273037182       36.6537248903       -8.3355531047  W2        3857            0.0000000000
     11571      3857  TIP3      H2             23.9170437182       36.0500748903       -7.3832631047  W2        3857            0.0000000000
     11572      3858  TIP3      OH2            29.6098037182       36.2952748903       -6.6568131047  W2        3858            0.0000000000
     11573      3858  TIP3      H1             29.6859637182       36.3904348903       -7.6062131047  W2        3858            0.0000000000
     11574      3858  TIP3      H2             29.3347237182       35.3875648903       -6.5279031047  W2        3858            0.0000000000
     11575      3859  TIP3      OH2            30.9630637182       36.3210548903      -10.9643131047  W2        3859            0.0000000000
     11576      3859  TIP3      H1             30.2601737182       36.9359748903      -11.1741731047  W2        3859            0.0000000000
     11577      3859  TIP3      H2             30.5182037182       35.4837248903      -10.8332231047  W2        3859            0.0000000000
     11578      3860  TIP3      OH2            20.1709537182       38.0525448903      -13.8732731047  W2        3860            0.0000000000
     11579      3860  TIP3      H1             20.6622937182       37.4227848903      -14.4007231047  W2        3860            0.0000000000
     11580      3860  TIP3      H2             20.7945837182       38.3484848903      -13.2101531047  W2        3860            0.0000000000
     11581      3861  TIP3      OH2            25.1969637182       38.3456948903      -11.4162231047  W2        3861            0.0000000000
     11582      3861  TIP3      H1             25.3750937182       37.6990148903      -10.7333631047  W2        3861            0.0000000000
     11583      3861  TIP3      H2             25.1435837182       39.1794648903      -10.9491131047  W2        3861            0.0000000000
     11584      3862  TIP3      OH2            19.4315037182       36.8527748903        1.3983268953  W2        3862            0.0000000000
     11585      3862  TIP3      H1             19.0653237182       36.0870348903        1.8407968953  W2        3862            0.0000000000
     11586      3862  TIP3      H2             20.3443537182       36.8817948903        1.6848368953  W2        3862            0.0000000000
     11587      3863  TIP3      OH2            21.4045837182       36.2032148903        2.9340368953  W2        3863            0.0000000000
     11588      3863  TIP3      H1             22.3029437182       35.9292348903        2.7493768953  W2        3863            0.0000000000
     11589      3863  TIP3      H2             21.0178937182       35.4608148903        3.3982968953  W2        3863            0.0000000000
     11590      3864  TIP3      OH2            29.8258137182       35.5357448903        3.1163168953  W2        3864            0.0000000000
     11591      3864  TIP3      H1             29.9025337182       35.1098148903        3.9700868953  W2        3864            0.0000000000
     11592      3864  TIP3      H2             30.7194737182       35.5492148903        2.7736668953  W2        3864            0.0000000000
     11593      3865  TIP3      OH2            35.5806237182       39.2066848903       -7.6187731047  W2        3865            0.0000000000
     11594      3865  TIP3      H1             36.2113937182       39.1778948903       -6.8993831047  W2        3865            0.0000000000
     11595      3865  TIP3      H2             36.0300537182       38.7815548903       -8.3491831047  W2        3865            0.0000000000
     11596      3866  TIP3      OH2            38.0585037182       39.3165548903       -0.7096131047  W2        3866            0.0000000000
     11597      3866  TIP3      H1             37.1657337182       39.6550948903       -0.7772131047  W2        3866            0.0000000000
     11598      3866  TIP3      H2             37.9597837182       38.4611648903       -0.2915331047  W2        3866            0.0000000000
     11599      3867  TIP3      OH2            38.7013437182       36.4550548903       -5.4128331047  W2        3867            0.0000000000
     11600      3867  TIP3      H1             38.4723237182       36.5143048903       -6.3403331047  W2        3867            0.0000000000
     11601      3867  TIP3      H2             38.2586837182       35.6636048903       -5.1064231047  W2        3867            0.0000000000
     11602      3868  TIP3      OH2            38.6049537182       39.5012548903        2.5245368953  W2        3868            0.0000000000
     11603      3868  TIP3      H1             38.8166937182       38.7948648903        1.9142868953  W2        3868            0.0000000000
     11604      3868  TIP3      H2             38.4937037182       39.0638548903        3.3686568953  W2        3868            0.0000000000
     11605      3869  TIP3      OH2            37.2721037182       38.8364148903       -5.4176031047  W2        3869            0.0000000000
     11606      3869  TIP3      H1             37.7172637182       38.0446648903       -5.1156331047  W2        3869            0.0000000000
     11607      3869  TIP3      H2             37.7384037182       39.5529348903       -4.9870431047  W2        3869            0.0000000000
     11608      3870  TIP3      OH2            35.8897837182       38.0936248903      -10.2943431047  W2        3870            0.0000000000
     11609      3870  TIP3      H1             34.9646237182       38.3022848903      -10.4237931047  W2        3870            0.0000000000
     11610      3870  TIP3      H2             36.3437737182       38.5777048903      -10.9841131047  W2        3870            0.0000000000
     11611      3871  TIP3      OH2            35.8533237182       36.8315248903       -1.9500931047  W2        3871            0.0000000000
     11612      3871  TIP3      H1             35.1883737182       36.5855548903       -1.3070031047  W2        3871            0.0000000000
     11613      3871  TIP3      H2             35.4104537182       37.4535648903       -2.5272931047  W2        3871            0.0000000000
     11614      3872  TIP3      OH2            38.3297037182       36.3385848903       -8.1192931047  W2        3872            0.0000000000
     11615      3872  TIP3      H1             37.5526837182       36.1040748903       -8.6267031047  W2        3872            0.0000000000
     11616      3872  TIP3      H2             38.8600637182       35.5417948903       -8.1104931047  W2        3872            0.0000000000
     11617      3873  TIP3      OH2            37.1660437182       36.1363948903      -12.3156831047  W2        3873            0.0000000000
     11618      3873  TIP3      H1             37.6051137182       36.7474448903      -12.9073331047  W2        3873            0.0000000000
     11619      3873  TIP3      H2             36.5322837182       36.6748048903      -11.8416831047  W2        3873            0.0000000000
     11620      3874  TIP3      OH2            39.0269537182       38.0525448903      -13.8732731047  W2        3874            0.0000000000
     11621      3874  TIP3      H1             39.5182937182       37.4227848903      -14.4007231047  W2        3874            0.0000000000
     11622      3874  TIP3      H2             39.6505837182       38.3484848903      -13.2101531047  W2        3874            0.0000000000
     11623      3875  TIP3      OH2            38.2875037182       36.8527748903        1.3983268953  W2        3875            0.0000000000
     11624      3875  TIP3      H1             37.9213237182       36.0870348903        1.8407968953  W2        3875            0.0000000000
     11625      3875  TIP3      H2             39.2003537182       36.8817948903        1.6848368953  W2        3875            0.0000000000
     11626      3876  TIP3      OH2           -28.0160362818      -29.9291851097       10.6954568953  W2        3876            0.0000000000
     11627      3876  TIP3      H1            -27.9269262818      -28.9853651097       10.5631668953  W2        3876            0.0000000000
     11628      3876  TIP3      H2            -28.6542762818      -30.2045451097       10.0373968953  W2        3876            0.0000000000
     11629      3877  TIP3      OH2           -29.0829062818      -30.6741151097       14.1142768953  W2        3877            0.0000000000
     11630      3877  TIP3      H1            -29.1211562818      -31.3204851097       14.8192368953  W2        3877            0.0000000000
     11631      3877  TIP3      H2            -29.4052562818      -31.1406751097       13.3431468953  W2        3877            0.0000000000
     11632      3878  TIP3      OH2           -25.3768862818      -27.7350751097       12.4157868953  W2        3879            0.0000000000
     11633      3878  TIP3      H1            -25.8176162818      -28.4554751097       12.8663468953  W2        3879            0.0000000000
     11634      3878  TIP3      H2            -25.3899162818      -27.0143551097       13.0455568953  W2        3879            0.0000000000
     11635      3879  TIP3      OH2           -35.7910962818      -26.6100151097       14.2421768953  W2        3880            0.0000000000
     11636      3879  TIP3      H1            -36.1605762818      -27.4119651097       13.8726068953  W2        3880            0.0000000000
     11637      3879  TIP3      H2            -34.8499862818      -26.7785251097       14.2885168953  W2        3880            0.0000000000
     11638      3880  TIP3      OH2           -39.1810462818      -32.9497551097        9.6350568953  W2        3881            0.0000000000
     11639      3880  TIP3      H1            -39.6287062818      -32.1038851097        9.6167068953  W2        3881            0.0000000000
     11640      3880  TIP3      H2            -39.7419262818      -33.5293351097        9.1195668953  W2        3881            0.0000000000
     11641      3881  TIP3      OH2           -38.4704362818      -30.7877951097       11.7608568953  W2        3882            0.0000000000
     11642      3881  TIP3      H1            -38.2570862818      -31.5576351097       12.2881568953  W2        3882            0.0000000000
     11643      3881  TIP3      H2            -37.7326762818      -30.6981251097       11.1576168953  W2        3882            0.0000000000
     11644      3882  TIP3      OH2           -28.2653362818      -22.6309051097       12.6278268953  W2        3883            0.0000000000
     11645      3882  TIP3      H1            -27.6456962818      -23.3074351097       12.3547468953  W2        3883            0.0000000000
     11646      3882  TIP3      H2            -28.4735962818      -22.8488251097       13.5363168953  W2        3883            0.0000000000
     11647      3883  TIP3      OH2           -30.6934662818      -28.2419751097       14.5203768953  W2        3884            0.0000000000
     11648      3883  TIP3      H1            -30.3896762818      -28.9278351097       13.9257868953  W2        3884            0.0000000000
     11649      3883  TIP3      H2            -29.9720662818      -28.1231051097       15.1381768953  W2        3884            0.0000000000
     11650      3884  TIP3      OH2           -27.5527662818      -33.8477351097       14.8478568953  W2        3886            0.0000000000
     11651      3884  TIP3      H1            -27.4101762818      -34.7940351097       14.8680168953  W2        3886            0.0000000000
     11652      3884  TIP3      H2            -27.6588662818      -33.6407551097       13.9193468953  W2        3886            0.0000000000
     11653      3885  TIP3      OH2           -34.3979362818      -35.7460951097       12.1203368953  W2        3887            0.0000000000
     11654      3885  TIP3      H1            -34.3548262818      -34.8862451097       11.7019668953  W2        3887            0.0000000000
     11655      3885  TIP3      H2            -34.8555262818      -36.2986251097       11.4866568953  W2        3887            0.0000000000
     11656      3886  TIP3      OH2           -26.6756662818      -35.6155351097       10.5211668953  W2        3888            0.0000000000
     11657      3886  TIP3      H1            -26.0292362818      -35.9442151097       11.1459268953  W2        3888            0.0000000000
     11658      3886  TIP3      H2            -26.1657262818      -35.0976351097        9.8983068953  W2        3888            0.0000000000
     11659      3887  TIP3      OH2           -37.7777862818      -33.3495151097       12.8824768953  W2        3889            0.0000000000
     11660      3887  TIP3      H1            -37.1241262818      -33.8993451097       13.3144868953  W2        3889            0.0000000000
     11661      3887  TIP3      H2            -37.7538562818      -33.6236151097       11.9656768953  W2        3889            0.0000000000
     11662      3888  TIP3      OH2           -32.6213362818      -31.7993851097       12.0976268953  W2        3890            0.0000000000
     11663      3888  TIP3      H1            -32.0052362818      -32.3258451097       12.6070268953  W2        3890            0.0000000000
     11664      3888  TIP3      H2            -33.2074562818      -32.4395151097       11.6939868953  W2        3890            0.0000000000
     11665      3889  TIP3      OH2           -28.2187662818      -27.3281451097        9.7383268953  W2        3893            0.0000000000
     11666      3889  TIP3      H1            -28.5142562818      -27.6509151097        8.8870168953  W2        3893            0.0000000000
     11667      3889  TIP3      H2            -28.5429862818      -26.4284751097        9.7795868953  W2        3893            0.0000000000
     11668      3890  TIP3      OH2           -24.9118262818      -36.3246051097       12.5017568953  W2        3895            0.0000000000
     11669      3890  TIP3      H1            -25.1270262818      -37.0902651097       13.0343568953  W2        3895            0.0000000000
     11670      3890  TIP3      H2            -24.2560862818      -35.8521451097       13.0146068953  W2        3895            0.0000000000
     11671      3891  TIP3      OH2           -35.9940162818      -34.9360751097       14.1466368953  W2        3896            0.0000000000
     11672      3891  TIP3      H1            -35.3803862818      -34.3033151097       14.5198768953  W2        3896            0.0000000000
     11673      3891  TIP3      H2            -35.4819462818      -35.4085751097       13.4903268953  W2        3896            0.0000000000
     11674      3892  TIP3      OH2           -38.4900862818      -27.5175951097        8.0508668953  W2        3898            0.0000000000
     11675      3892  TIP3      H1            -38.7619962818      -27.2884951097        7.1621568953  W2        3898            0.0000000000
     11676      3892  TIP3      H2            -38.4445162818      -26.6797151097        8.5113968953  W2        3898            0.0000000000
     11677      3893  TIP3      OH2           -24.8651162818      -25.8960051097       14.7637168953  W2        3899            0.0000000000
     11678      3893  TIP3      H1            -25.8067462818      -25.8376151097       14.9254068953  W2        3899            0.0000000000
     11679      3893  TIP3      H2            -24.5885062818      -24.9899551097       14.6266868953  W2        3899            0.0000000000
     11680      3894  TIP3      OH2           -31.5612762818      -39.5227451097       13.6469068953  W2        3901            0.0000000000
     11681      3894  TIP3      H1            -31.6788562818      -40.4711451097       13.5927368953  W2        3901            0.0000000000
     11682      3894  TIP3      H2            -32.4162662818      -39.1901351097       13.9200168953  W2        3901            0.0000000000
     11683      3895  TIP3      OH2           -26.6129962818      -24.1146551097       11.3888768953  W2        3902            0.0000000000
     11684      3895  TIP3      H1            -26.1877662818      -24.8218651097       10.9038368953  W2        3902            0.0000000000
     11685      3895  TIP3      H2            -26.2959962818      -23.3133851097       10.9720968953  W2        3902            0.0000000000
     11686      3896  TIP3      OH2           -25.4533462818      -26.2138051097        9.8975368953  W2        3903            0.0000000000
     11687      3896  TIP3      H1            -25.7108662818      -26.9037951097        9.2861268953  W2        3903            0.0000000000
     11688      3896  TIP3      H2            -25.3822662818      -26.6566851097       10.7431268953  W2        3903            0.0000000000
     11689      3897  TIP3      OH2           -29.2947862818      -30.6851851097        8.1474868953  W2        3905            0.0000000000
     11690      3897  TIP3      H1            -30.0062362818      -30.1502151097        7.7955368953  W2        3905            0.0000000000
     11691      3897  TIP3      H2            -28.6038262818      -30.6299751097        7.4873768953  W2        3905            0.0000000000
     11692      3898  TIP3      OH2           -29.2408662818      -32.2277551097        5.1859868953  W2        3906            0.0000000000
     11693      3898  TIP3      H1            -28.5398762818      -32.2050651097        5.8373868953  W2        3906            0.0000000000
     11694      3898  TIP3      H2            -28.9385762818      -32.8557851097        4.5299168953  W2        3906            0.0000000000
     11695      3899  TIP3      OH2           -25.8890162818      -30.4758551097        9.0990768953  W2        3908            0.0000000000
     11696      3899  TIP3      H1            -26.6209162818      -30.2474851097        9.6721368953  W2        3908            0.0000000000
     11697      3899  TIP3      H2            -25.4417962818      -31.1895851097        9.5538268953  W2        3908            0.0000000000
     11698      3900  TIP3      OH2           -34.2436462818      -29.8452351097       10.9815768953  W2        3910            0.0000000000
     11699      3900  TIP3      H1            -34.5741262818      -30.2158951097       10.1632768953  W2        3910            0.0000000000
     11700      3900  TIP3      H2            -33.6552362818      -30.5158351097       11.3284068953  W2        3910            0.0000000000
     11701      3901  TIP3      OH2           -32.8768962818      -26.4171751097       13.6627968953  W2        3911            0.0000000000
     11702      3901  TIP3      H1            -32.9717662818      -26.9958651097       12.9062568953  W2        3911            0.0000000000
     11703      3901  TIP3      H2            -32.1475362818      -26.7886051097       14.1590768953  W2        3911            0.0000000000
     11704      3902  TIP3      OH2           -33.8770962818      -31.0766751097       14.6150768953  W2        3912            0.0000000000
     11705      3902  TIP3      H1            -33.3118462818      -30.9552551097       13.8521968953  W2        3912            0.0000000000
     11706      3902  TIP3      H2            -33.5582062818      -30.4391751097       15.2539268953  W2        3912            0.0000000000
     11707      3903  TIP3      OH2           -27.0180662818      -31.3135651097        6.7841968953  W2        3915            0.0000000000
     11708      3903  TIP3      H1            -26.4385162818      -31.1635351097        7.5310868953  W2        3915            0.0000000000
     11709      3903  TIP3      H2            -26.6040662818      -30.8428251097        6.0608368953  W2        3915            0.0000000000
     11710      3904  TIP3      OH2           -29.2915762818      -24.5767151097       10.2195068953  W2        3917            0.0000000000
     11711      3904  TIP3      H1            -28.8178162818      -24.2810851097       10.9969268953  W2        3917            0.0000000000
     11712      3904  TIP3      H2            -29.8546462818      -23.8385551097        9.9864668953  W2        3917            0.0000000000
     11713      3905  TIP3      OH2           -23.3192262818      -39.5635251097        6.5971668953  W2        3919            0.0000000000
     11714      3905  TIP3      H1            -24.2191562818      -39.4246251097        6.8922268953  W2        3919            0.0000000000
     11715      3905  TIP3      H2            -23.0673862818      -38.7320651097        6.1953368953  W2        3919            0.0000000000
     11716      3906  TIP3      OH2           -35.2533762818      -30.7758051097        8.5708568953  W2        3920            0.0000000000
     11717      3906  TIP3      H1            -35.5452462818      -30.0076351097        8.0799868953  W2        3920            0.0000000000
     11718      3906  TIP3      H2            -35.9278562818      -31.4351851097        8.4079968953  W2        3920            0.0000000000
     11719      3907  TIP3      OH2           -22.1300862818      -25.1972851097        4.9735568953  W2        3921            0.0000000000
     11720      3907  TIP3      H1            -22.0567362818      -24.2582651097        5.1440868953  W2        3921            0.0000000000
     11721      3907  TIP3      H2            -21.2245762818      -25.5024251097        4.9172868953  W2        3921            0.0000000000
     11722      3908  TIP3      OH2           -39.4100962818      -25.6325051097       14.2698568953  W2        3923            0.0000000000
     11723      3908  TIP3      H1            -38.4640362818      -25.7768051097       14.2508068953  W2        3923            0.0000000000
     11724      3908  TIP3      H2            -39.5224662818      -24.8482251097       14.8069768953  W2        3923            0.0000000000
     11725      3909  TIP3      OH2           -29.8192662818      -21.6202451097        8.6344268953  W2        3926            0.0000000000
     11726      3909  TIP3      H1            -29.8946662818      -21.7415251097        7.6879468953  W2        3926            0.0000000000
     11727      3909  TIP3      H2            -29.7863962818      -20.6709751097        8.7528868953  W2        3926            0.0000000000
     11728      3910  TIP3      OH2           -36.1658862818      -22.8315451097       10.4153268953  W2        3927            0.0000000000
     11729      3910  TIP3      H1            -36.0138462818      -23.1795051097       11.2939768953  W2        3927            0.0000000000
     11730      3910  TIP3      H2            -37.0168462818      -23.1878151097       10.1600468953  W2        3927            0.0000000000
     11731      3911  TIP3      OH2           -26.7176662818      -22.4662251097        5.6366668953  W2        3928            0.0000000000
     11732      3911  TIP3      H1            -26.3428262818      -23.2106151097        5.1659268953  W2        3928            0.0000000000
     11733      3911  TIP3      H2            -26.7132962818      -22.7361651097        6.5549968953  W2        3928            0.0000000000
     11734      3912  TIP3      OH2           -27.0488562818      -22.5405151097        8.3858868953  W2        3929            0.0000000000
     11735      3912  TIP3      H1            -27.9838762818      -22.4403251097        8.5645868953  W2        3929            0.0000000000
     11736      3912  TIP3      H2            -26.7686662818      -23.2499151097        8.9642068953  W2        3929            0.0000000000
     11737      3913  TIP3      OH2           -34.2925162818      -38.6192951097       14.4245368953  W2        3932            0.0000000000
     11738      3913  TIP3      H1            -35.1541462818      -38.7064751097       14.0168268953  W2        3932            0.0000000000
     11739      3913  TIP3      H2            -34.3149462818      -37.7632851097       14.8522968953  W2        3932            0.0000000000
     11740      3914  TIP3      OH2           -25.5407562818      -30.2807351097        4.4139868953  W2        3935            0.0000000000
     11741      3914  TIP3      H1            -25.4986762818      -30.5033451097        3.4839868953  W2        3935            0.0000000000
     11742      3914  TIP3      H2            -24.6915462818      -29.8820251097        4.6039768953  W2        3935            0.0000000000
     11743      3915  TIP3      OH2           -29.9680062818      -36.4049151097        5.0843168953  W2        3936            0.0000000000
     11744      3915  TIP3      H1            -30.2215262818      -36.3857551097        6.0071268953  W2        3936            0.0000000000
     11745      3915  TIP3      H2            -30.2247962818      -37.2763751097        4.7829368953  W2        3936            0.0000000000
     11746      3916  TIP3      OH2           -34.2045962818      -33.4328351097       10.4315568953  W2        3938            0.0000000000
     11747      3916  TIP3      H1            -35.0973062818      -33.7732251097       10.3729368953  W2        3938            0.0000000000
     11748      3916  TIP3      H2            -33.7539362818      -33.8097451097        9.6758768953  W2        3938            0.0000000000
     11749      3917  TIP3      OH2           -28.6690462818      -33.0168051097        9.2486368953  W2        3939            0.0000000000
     11750      3917  TIP3      H1            -29.0780162818      -32.2019451097        8.9571168953  W2        3939            0.0000000000
     11751      3917  TIP3      H2            -27.9484262818      -33.1567951097        8.6343468953  W2        3939            0.0000000000
     11752      3918  TIP3      OH2           -27.6642762818      -33.5707651097       12.0626068953  W2        3941            0.0000000000
     11753      3918  TIP3      H1            -27.8598262818      -32.9650851097       11.3476668953  W2        3941            0.0000000000
     11754      3918  TIP3      H2            -27.4830162818      -34.4042451097       11.6282368953  W2        3941            0.0000000000
     11755      3919  TIP3      OH2           -33.0857162818      -35.9592651097        4.1853568953  W2        3943            0.0000000000
     11756      3919  TIP3      H1            -33.5166462818      -36.4042551097        4.9150968953  W2        3943            0.0000000000
     11757      3919  TIP3      H2            -33.8038462818      -35.5876351097        3.6731068953  W2        3943            0.0000000000
     11758      3920  TIP3      OH2           -39.8433762818      -36.2173151097       11.2372268953  W2        3944            0.0000000000
     11759      3920  TIP3      H1            -39.2126062818      -36.2461051097       11.9566168953  W2        3944            0.0000000000
     11760      3920  TIP3      H2            -39.3939462818      -36.6424451097       10.5068168953  W2        3944            0.0000000000
     11761      3921  TIP3      OH2           -38.5691662818      -35.4711151097        6.6612668953  W2        3945            0.0000000000
     11762      3921  TIP3      H1            -38.0949962818      -34.8801251097        6.0763568953  W2        3945            0.0000000000
     11763      3921  TIP3      H2            -39.2865262818      -34.9408251097        7.0082768953  W2        3945            0.0000000000
     11764      3922  TIP3      OH2           -31.6230662818      -36.0050851097       11.5179668953  W2        3947            0.0000000000
     11765      3922  TIP3      H1            -32.5339562818      -35.9484051097       11.8065668953  W2        3947            0.0000000000
     11766      3922  TIP3      H2            -31.1177762818      -36.0655351097       12.3286868953  W2        3947            0.0000000000
     11767      3923  TIP3      OH2           -36.7947262818      -34.3764551097       10.3447268953  W2        3948            0.0000000000
     11768      3923  TIP3      H1            -37.6839262818      -34.2769051097       10.0046868953  W2        3948            0.0000000000
     11769      3923  TIP3      H2            -36.4982362818      -35.2181551097        9.9985168953  W2        3948            0.0000000000
     11770      3924  TIP3      OH2           -33.1415462818      -34.3761951097        8.0011868953  W2        3949            0.0000000000
     11771      3924  TIP3      H1            -32.2099962818      -34.2471951097        8.1794968953  W2        3949            0.0000000000
     11772      3924  TIP3      H2            -33.3565162818      -33.7067651097        7.3516568953  W2        3949            0.0000000000
     11773      3925  TIP3      OH2           -27.2178762818      -36.7704551097       14.7821468953  W2        3950            0.0000000000
     11774      3925  TIP3      H1            -27.8947162818      -36.6391451097       15.4461168953  W2        3950            0.0000000000
     11775      3925  TIP3      H2            -27.7033862818      -36.9255051097       13.9719168953  W2        3950            0.0000000000
     11776      3926  TIP3      OH2           -34.4675262818      -33.1819751097        5.5677968953  W2        3951            0.0000000000
     11777      3926  TIP3      H1            -35.0100162818      -33.5615951097        4.8765568953  W2        3951            0.0000000000
     11778      3926  TIP3      H2            -33.6340362818      -32.9875051097        5.1392068953  W2        3951            0.0000000000
     11779      3927  TIP3      OH2           -30.3030962818      -33.2177851097       13.4049268953  W2        3954            0.0000000000
     11780      3927  TIP3      H1            -29.7387562818      -33.7641251097       12.8578868953  W2        3954            0.0000000000
     11781      3927  TIP3      H2            -30.4507562818      -33.7395951097       14.1936868953  W2        3954            0.0000000000
     11782      3928  TIP3      OH2           -35.3011262818      -37.0811751097        9.8234068953  W2        3955            0.0000000000
     11783      3928  TIP3      H1            -35.6181762818      -37.9836451097        9.7879468953  W2        3955            0.0000000000
     11784      3928  TIP3      H2            -34.5197162818      -37.0794351097        9.2705668953  W2        3955            0.0000000000
     11785      3929  TIP3      OH2           -31.1322462818      -28.6164051097        7.5036068953  W2        3957            0.0000000000
     11786      3929  TIP3      H1            -31.8771462818      -29.1238751097        7.1813968953  W2        3957            0.0000000000
     11787      3929  TIP3      H2            -31.2665262818      -28.5676051097        8.4500868953  W2        3957            0.0000000000
     11788      3930  TIP3      OH2           -27.2345662818      -35.8024151097        5.7028668953  W2        3959            0.0000000000
     11789      3930  TIP3      H1            -28.1731462818      -35.6908551097        5.5517468953  W2        3959            0.0000000000
     11790      3930  TIP3      H2            -26.9373562818      -34.9457251097        6.0094368953  W2        3959            0.0000000000
     11791      3931  TIP3      OH2           -26.5162162818      -33.9351451097        7.3636068953  W2        3961            0.0000000000
     11792      3931  TIP3      H1            -25.6243162818      -34.0726451097        7.6827268953  W2        3961            0.0000000000
     11793      3931  TIP3      H2            -26.4598562818      -33.1445351097        6.8269568953  W2        3961            0.0000000000
     11794      3932  TIP3      OH2           -36.0074162818      -29.3214051097       13.2733968953  W2        3962            0.0000000000
     11795      3932  TIP3      H1            -35.2626962818      -29.3238351097       12.6720468953  W2        3962            0.0000000000
     11796      3932  TIP3      H2            -35.9297562818      -30.1450251097       13.7549068953  W2        3962            0.0000000000
     11797      3933  TIP3      OH2           -29.0068362818      -27.1579751097        6.5290668953  W2        3963            0.0000000000
     11798      3933  TIP3      H1            -29.3019962818      -26.3311851097        6.9105468953  W2        3963            0.0000000000
     11799      3933  TIP3      H2            -29.7098362818      -27.7772851097        6.7252068953  W2        3963            0.0000000000
     11800      3934  TIP3      OH2           -21.6313462818      -33.7257351097        7.0582768953  W2        3967            0.0000000000
     11801      3934  TIP3      H1            -22.1857162818      -34.1219351097        6.3860268953  W2        3967            0.0000000000
     11802      3934  TIP3      H2            -21.5309862818      -32.8152151097        6.7806068953  W2        3967            0.0000000000
     11803      3935  TIP3      OH2           -23.3361762818      -24.9396951097        7.5234868953  W2        3969            0.0000000000
     11804      3935  TIP3      H1            -23.7090662818      -25.7653151097        7.8325468953  W2        3969            0.0000000000
     11805      3935  TIP3      H2            -23.0588262818      -25.1227551097        6.6258268953  W2        3969            0.0000000000
     11806      3936  TIP3      OH2           -26.1757862818      -30.1317451097       14.5446768953  W2        3970            0.0000000000
     11807      3936  TIP3      H1            -27.1040962818      -30.3635551097       14.5176068953  W2        3970            0.0000000000
     11808      3936  TIP3      H2            -25.7246762818      -30.9087651097       14.2145568953  W2        3970            0.0000000000
     11809      3937  TIP3      OH2           -33.6324762818      -25.8035851097       10.6775468953  W2        3971            0.0000000000
     11810      3937  TIP3      H1            -33.1052562818      -25.0301451097       10.4774268953  W2        3971            0.0000000000
     11811      3937  TIP3      H2            -34.5126262818      -25.5786651097       10.3759468953  W2        3971            0.0000000000
     11812      3938  TIP3      OH2           -37.8777062818      -30.9411751097        5.2647868953  W2        3972            0.0000000000
     11813      3938  TIP3      H1            -37.2617162818      -30.3144551097        5.6442668953  W2        3972            0.0000000000
     11814      3938  TIP3      H2            -38.7394462818      -30.6251951097        5.5364368953  W2        3972            0.0000000000
     11815      3939  TIP3      OH2           -32.2052462818      -28.1405951097       10.2539768953  W2        3973            0.0000000000
     11816      3939  TIP3      H1            -32.4462462818      -27.2151551097       10.2955068953  W2        3973            0.0000000000
     11817      3939  TIP3      H2            -32.9458862818      -28.5994651097       10.6503668953  W2        3973            0.0000000000
     11818      3940  TIP3      OH2           -33.5221662818      -23.1188351097        9.7991968953  W2        3975            0.0000000000
     11819      3940  TIP3      H1            -34.4721162818      -23.0130951097        9.8505268953  W2        3975            0.0000000000
     11820      3940  TIP3      H2            -33.1703562818      -22.2980951097       10.1439468953  W2        3975            0.0000000000
     11821      3941  TIP3      OH2           -25.9436162818      -26.9631151097        5.3435468953  W2        3977            0.0000000000
     11822      3941  TIP3      H1            -25.5903062818      -27.3431351097        6.1478968953  W2        3977            0.0000000000
     11823      3941  TIP3      H2            -26.8922662818      -27.0566351097        5.4304768953  W2        3977            0.0000000000
     11824      3942  TIP3      OH2           -21.4401762818      -22.4838651097        5.5445668953  W2        3979            0.0000000000
     11825      3942  TIP3      H1            -20.6963862818      -21.8978151097        5.4047268953  W2        3979            0.0000000000
     11826      3942  TIP3      H2            -22.1343662818      -21.9152851097        5.8778068953  W2        3979            0.0000000000
     11827      3943  TIP3      OH2           -25.0776862818      -28.2909151097        7.5703368953  W2        3981            0.0000000000
     11828      3943  TIP3      H1            -25.3549262818      -29.0189851097        8.1264468953  W2        3981            0.0000000000
     11829      3943  TIP3      H2            -24.1503862818      -28.1717151097        7.7755968953  W2        3981            0.0000000000
     11830      3944  TIP3      OH2           -31.8528362818      -25.8515051097        3.7905468953  W2        3983            0.0000000000
     11831      3944  TIP3      H1            -31.6138562818      -26.5996951097        3.2434368953  W2        3983            0.0000000000
     11832      3944  TIP3      H2            -32.1217062818      -26.2393351097        4.6233268953  W2        3983            0.0000000000
     11833      3945  TIP3      OH2           -32.9157762818      -26.2811251097        6.2468068953  W2        3984            0.0000000000
     11834      3945  TIP3      H1            -32.7689762818      -26.8011451097        7.0368968953  W2        3984            0.0000000000
     11835      3945  TIP3      H2            -32.9186062818      -25.3743651097        6.5533968953  W2        3984            0.0000000000
     11836      3946  TIP3      OH2           -36.4626662818      -29.0287951097        6.7573468953  W2        3985            0.0000000000
     11837      3946  TIP3      H1            -37.1487362818      -28.6765451097        7.3243168953  W2        3985            0.0000000000
     11838      3946  TIP3      H2            -35.9398762818      -28.2658351097        6.5107768953  W2        3985            0.0000000000
     11839      3947  TIP3      OH2           -27.8466662818      -36.7142451097        8.1334768953  W2        3987            0.0000000000
     11840      3947  TIP3      H1            -27.6268362818      -36.2427051097        7.3300168953  W2        3987            0.0000000000
     11841      3947  TIP3      H2            -27.2882662818      -36.3199851097        8.8035368953  W2        3987            0.0000000000
     11842      3948  TIP3      OH2           -30.1780562818      -24.5837651097        6.9962268953  W2        3988            0.0000000000
     11843      3948  TIP3      H1            -30.9944462818      -24.0867951097        7.0486568953  W2        3988            0.0000000000
     11844      3948  TIP3      H2            -29.6484262818      -24.1084151097        6.3561068953  W2        3988            0.0000000000
     11845      3949  TIP3      OH2           -30.6466762818      -34.9863651097        8.9683168953  W2        3989            0.0000000000
     11846      3949  TIP3      H1            -29.8344162818      -34.4820451097        9.0144868953  W2        3989            0.0000000000
     11847      3949  TIP3      H2            -30.8913762818      -35.1313951097        9.8822768953  W2        3989            0.0000000000
     11848      3950  TIP3      OH2           -29.7630062818      -37.9050651097        9.9064268953  W2        3991            0.0000000000
     11849      3950  TIP3      H1            -30.1096562818      -37.2880051097       10.5508568953  W2        3991            0.0000000000
     11850      3950  TIP3      H2            -29.1043162818      -37.4044951097        9.4249768953  W2        3991            0.0000000000
     11851      3951  TIP3      OH2           -32.8397462818      -23.5400451097        6.9779168953  W2        3992            0.0000000000
     11852      3951  TIP3      H1            -32.6788762818      -22.7402951097        6.4771768953  W2        3992            0.0000000000
     11853      3951  TIP3      H2            -33.0369662818      -23.2334451097        7.8629768953  W2        3992            0.0000000000
     11854      3952  TIP3      OH2           -34.1053062818      -36.8421251097        6.5936768953  W2        3993            0.0000000000
     11855      3952  TIP3      H1            -34.1888262818      -35.9538151097        6.9403168953  W2        3993            0.0000000000
     11856      3952  TIP3      H2            -33.2152762818      -37.1074551097        6.8253568953  W2        3993            0.0000000000
     11857      3953  TIP3      OH2           -25.3043562818      -32.3429651097       13.0836768953  W2        3995            0.0000000000
     11858      3953  TIP3      H1            -26.1019162818      -32.7579451097       12.7551768953  W2        3995            0.0000000000
     11859      3953  TIP3      H2            -24.8592462818      -33.0335951097       13.5747268953  W2        3995            0.0000000000
     11860      3954  TIP3      OH2           -35.8467762818      -26.4149051097        5.6541268953  W2        3996            0.0000000000
     11861      3954  TIP3      H1            -35.2546262818      -25.7154251097        5.9303668953  W2        3996            0.0000000000
     11862      3954  TIP3      H2            -35.3874762818      -26.8479551097        4.9345868953  W2        3996            0.0000000000
     11863      3955  TIP3      OH2           -37.5308562818      -33.7506051097        4.7700668953  W2        3997            0.0000000000
     11864      3955  TIP3      H1            -37.5755962818      -32.8112951097        4.9487668953  W2        3997            0.0000000000
     11865      3955  TIP3      H2            -38.4185362818      -33.9861151097        4.5002768953  W2        3997            0.0000000000
     11866      3956  TIP3      OH2           -24.2178962818      -23.0867151097       14.7060268953  W2        3998            0.0000000000
     11867      3956  TIP3      H1            -24.3734662818      -22.4082751097       14.0489568953  W2        3998            0.0000000000
     11868      3956  TIP3      H2            -23.2852562818      -23.0147851097       14.9090868953  W2        3998            0.0000000000
     11869      3957  TIP3      OH2           -36.7226562818      -38.9689451097       13.4431668953  W2        3999            0.0000000000
     11870      3957  TIP3      H1            -36.9516762818      -38.9096951097       12.5156668953  W2        3999            0.0000000000
     11871      3957  TIP3      H2            -37.1653162818      -39.7603951097       13.7495768953  W2        3999            0.0000000000
     11872      3958  TIP3      OH2           -37.7923262818      -25.0282351097        9.6037468953  W2        4000            0.0000000000
     11873      3958  TIP3      H1            -38.6244662818      -24.5559651097        9.6308868953  W2        4000            0.0000000000
     11874      3958  TIP3      H2            -37.2464962818      -24.5184751097        9.0050568953  W2        4000            0.0000000000
     11875      3959  TIP3      OH2           -29.8146562818      -23.9883651097        3.9291468953  W2        4003            0.0000000000
     11876      3959  TIP3      H1            -30.4585562818      -24.6195051097        4.2505168953  W2        4003            0.0000000000
     11877      3959  TIP3      H2            -29.0528262818      -24.5195651097        3.6974968953  W2        4003            0.0000000000
     11878      3960  TIP3      OH2           -25.2103662818      -24.1713751097        4.1629468953  W2        4005            0.0000000000
     11879      3960  TIP3      H1            -24.9273262818      -24.9658551097        4.6156368953  W2        4005            0.0000000000
     11880      3960  TIP3      H2            -24.4705762818      -23.9382751097        3.6020568953  W2        4005            0.0000000000
     11881      3961  TIP3      OH2           -34.2556362818      -28.2618851097        4.0204368953  W2        4007            0.0000000000
     11882      3961  TIP3      H1            -34.1912262818      -29.0559251097        4.5510768953  W2        4007            0.0000000000
     11883      3961  TIP3      H2            -33.6027162818      -28.3806051097        3.3306368953  W2        4007            0.0000000000
     11884      3962  TIP3      OH2           -28.9032962818      -27.2147151097        3.7562368953  W2        4009            0.0000000000
     11885      3962  TIP3      H1            -29.1718862818      -27.0345051097        4.6571268953  W2        4009            0.0000000000
     11886      3962  TIP3      H2            -29.1097362818      -28.1400951097        3.6248168953  W2        4009            0.0000000000
     11887      3963  TIP3      OH2           -33.1062562818      -30.2892651097        6.3262368953  W2        4012            0.0000000000
     11888      3963  TIP3      H1            -33.5660562818      -30.7734351097        7.0120868953  W2        4012            0.0000000000
     11889      3963  TIP3      H2            -32.8513862818      -30.9577251097        5.6902868953  W2        4012            0.0000000000
     11890      3964  TIP3      OH2           -32.0352162818      -32.0460851097        4.5885568953  W2        4014            0.0000000000
     11891      3964  TIP3      H1            -32.2157162818      -32.2009651097        3.6613868953  W2        4014            0.0000000000
     11892      3964  TIP3      H2            -31.0851662818      -31.9382151097        4.6333468953  W2        4014            0.0000000000
     11893      3965  TIP3      OH2           -22.6453862818      -29.6916651097        4.0343668953  W2        4016            0.0000000000
     11894      3965  TIP3      H1            -22.9189062818      -30.1161151097        3.2211968953  W2        4016            0.0000000000
     11895      3965  TIP3      H2            -22.6059762818      -28.7602151097        3.8174068953  W2        4016            0.0000000000
     11896      3966  TIP3      OH2           -32.1380462818      -21.3557151097        5.5899168953  W2        4030            0.0000000000
     11897      3966  TIP3      H1            -31.2049762818      -21.1978451097        5.7337568953  W2        4030            0.0000000000
     11898      3966  TIP3      H2            -32.4021662818      -20.6804151097        4.9650668953  W2        4030            0.0000000000
     11899      3967  TIP3      OH2           -38.5695562818      -26.7193351097        5.0727268953  W2        4031            0.0000000000
     11900      3967  TIP3      H1            -37.6556362818      -26.6404451097        5.3461168953  W2        4031            0.0000000000
     11901      3967  TIP3      H2            -38.5622462818      -27.4063751097        4.4062868953  W2        4031            0.0000000000
     11902      3968  TIP3      OH2           -39.9204962818      -21.3264851097       10.1501168953  W2        4032            0.0000000000
     11903      3968  TIP3      H1            -40.5677862818      -21.7883151097        9.6172368953  W2        4032            0.0000000000
     11904      3968  TIP3      H2            -39.5660362818      -21.9981551097       10.7327368953  W2        4032            0.0000000000
     11905      3969  TIP3      OH2           -39.0505762818      -23.2457851097       11.9547368953  W2        4033            0.0000000000
     11906      3969  TIP3      H1            -39.3848962818      -24.1260551097       12.1267568953  W2        4033            0.0000000000
     11907      3969  TIP3      H2            -38.8283362818      -22.9002851097       12.8192968953  W2        4033            0.0000000000
     11908      3970  TIP3      OH2           -22.1871062818      -28.8228551097        8.0094068953  W2        4037            0.0000000000
     11909      3970  TIP3      H1            -21.3369662818      -28.4017651097        8.1365668953  W2        4037            0.0000000000
     11910      3970  TIP3      H2            -22.1815962818      -29.5628451097        8.6165468953  W2        4037            0.0000000000
     11911      3971  TIP3      OH2           -21.7925462818      -30.7691151097        9.8329768953  W2        4038            0.0000000000
     11912      3971  TIP3      H1            -22.5190862818      -31.2488551097       10.2307368953  W2        4038            0.0000000000
     11913      3971  TIP3      H2            -21.2112162818      -30.5636451097       10.5651368953  W2        4038            0.0000000000
     11914      3972  TIP3      OH2           -22.0334262818      -27.9843651097       14.7807368953  W2        4039            0.0000000000
     11915      3972  TIP3      H1            -21.2000062818      -28.3623651097       14.5000968953  W2        4039            0.0000000000
     11916      3972  TIP3      H2            -21.9213962818      -27.0412451097       14.6616468953  W2        4039            0.0000000000
     11917      3973  TIP3      OH2           -21.5242362818      -30.8682651097        6.2241068953  W2        4041            0.0000000000
     11918      3973  TIP3      H1            -22.0461262818      -30.5118551097        5.5051968953  W2        4041            0.0000000000
     11919      3973  TIP3      H2            -21.5573162818      -30.1934851097        6.9021968953  W2        4041            0.0000000000
     11920      3974  TIP3      OH2           -23.1753362818      -33.6287051097        4.7748168953  W2        4042            0.0000000000
     11921      3974  TIP3      H1            -23.0788962818      -32.9620051097        4.0947868953  W2        4042            0.0000000000
     11922      3974  TIP3      H2            -23.3153762818      -34.4440751097        4.2933668953  W2        4042            0.0000000000
     11923      3975  TIP3      OH2           -24.0058662818      -32.2484651097       10.3958468953  W2        4043            0.0000000000
     11924      3975  TIP3      H1            -24.1559862818      -33.1936051097       10.3756268953  W2        4043            0.0000000000
     11925      3975  TIP3      H2            -24.3594162818      -31.9673251097       11.2397568953  W2        4043            0.0000000000
     11926      3976  TIP3      OH2           -38.9706262818      -30.1702451097       14.4062268953  W2        4044            0.0000000000
     11927      3976  TIP3      H1            -38.7863362818      -30.2520751097       13.4705168953  W2        4044            0.0000000000
     11928      3976  TIP3      H2            -38.1213362818      -30.2945451097       14.8298668953  W2        4044            0.0000000000
     11929      3977  TIP3      OH2           -23.9279562818      -36.2207251097        3.8923668953  W2        4047            0.0000000000
     11930      3977  TIP3      H1            -23.3173762818      -36.5920451097        4.5291868953  W2        4047            0.0000000000
     11931      3977  TIP3      H2            -24.7648062818      -36.6420351097        4.0883668953  W2        4047            0.0000000000
     11932      3978  TIP3      OH2           -24.2953862818      -34.6658851097        8.8583568953  W2        4048            0.0000000000
     11933      3978  TIP3      H1            -24.0156762818      -35.5728451097        8.9825268953  W2        4048            0.0000000000
     11934      3978  TIP3      H2            -23.5362162818      -34.2317351097        8.4692768953  W2        4048            0.0000000000
     11935      3979  TIP3      OH2           -23.6835562818      -34.0841451097       14.2942468953  W2        4049            0.0000000000
     11936      3979  TIP3      H1            -22.7507562818      -33.8721551097       14.2598468953  W2        4049            0.0000000000
     11937      3979  TIP3      H2            -23.9188062818      -33.9829351097       15.2165468953  W2        4049            0.0000000000
     11938      3980  TIP3      OH2           -23.6819062818      -37.4029551097        8.9065568953  W2        4053            0.0000000000
     11939      3980  TIP3      H1            -23.4994062818      -37.8518051097        9.7320568953  W2        4053            0.0000000000
     11940      3980  TIP3      H2            -24.2816162818      -37.9875151097        8.4430168953  W2        4053            0.0000000000
     11941      3981  TIP3      OH2           -38.1518962818      -36.5875851097       13.4383968953  W2        4054            0.0000000000
     11942      3981  TIP3      H1            -37.7067362818      -37.3793351097       13.7403668953  W2        4054            0.0000000000
     11943      3981  TIP3      H2            -37.6855962818      -35.8710651097       13.8689568953  W2        4054            0.0000000000
     11944      3982  TIP3      OH2           -39.8478662818      -33.5882851097       14.5074168953  W2        4055            0.0000000000
     11945      3982  TIP3      H1            -39.3558862818      -33.8092351097       13.7166168953  W2        4055            0.0000000000
     11946      3982  TIP3      H2            -39.4857762818      -32.7479451097       14.7883668953  W2        4055            0.0000000000
     11947      3983  TIP3      OH2           -21.8152862818      -37.3351451097        5.4345868953  W2        4057            0.0000000000
     11948      3983  TIP3      H1            -21.4030262818      -38.0565751097        4.9593868953  W2        4057            0.0000000000
     11949      3983  TIP3      H2            -21.1336362818      -36.6656851097        5.4930168953  W2        4057            0.0000000000
     11950      3984  TIP3      OH2           -39.5342162818      -37.3303751097        8.5616568953  W2        4058            0.0000000000
     11951      3984  TIP3      H1            -40.4593762818      -37.1217151097        8.4322068953  W2        4058            0.0000000000
     11952      3984  TIP3      H2            -39.0802262818      -36.8462951097        7.8718868953  W2        4058            0.0000000000
     11953      3985  TIP3      OH2           -24.7634962818      -22.3462051097       10.5073968953  W2        4059            0.0000000000
     11954      3985  TIP3      H1            -24.1112062818      -22.6939951097        9.8993068953  W2        4059            0.0000000000
     11955      3985  TIP3      H2            -24.2531162818      -21.8578851097       11.1533668953  W2        4059            0.0000000000
     11956      3986  TIP3      OH2           -37.6079762818      -22.5633051097       14.2665968953  W2        4071            0.0000000000
     11957      3986  TIP3      H1            -37.6263762818      -22.9887951097       15.1238268953  W2        4071            0.0000000000
     11958      3986  TIP3      H2            -36.8031862818      -22.8818051097       13.8578168953  W2        4071            0.0000000000
     11959      3987  TIP3      OH2           -35.4666662818      -23.8534351097       12.9215868953  W2        4072            0.0000000000
     11960      3987  TIP3      H1            -35.6855962818      -24.7696951097       13.0911868953  W2        4072            0.0000000000
     11961      3987  TIP3      H2            -34.6424462818      -23.7133951097       13.3877268953  W2        4072            0.0000000000
     11962      3988  TIP3      OH2           -32.9294162818      -23.3835051097       13.7703868953  W2        4073            0.0000000000
     11963      3988  TIP3      H1            -32.7168462818      -24.2716051097       13.4834768953  W2        4073            0.0000000000
     11964      3988  TIP3      H2            -32.8649062818      -23.4177351097       14.7247868953  W2        4073            0.0000000000
     11965      3989  TIP3      OH2           -29.4210462818      -37.7194451097       12.9147168953  W2        4074            0.0000000000
     11966      3989  TIP3      H1            -30.0953662818      -38.3488851097       13.1702968953  W2        4074            0.0000000000
     11967      3989  TIP3      H2            -28.8571262818      -38.2035551097       12.3115068953  W2        4074            0.0000000000
     11968      3990  TIP3      OH2           -24.2783262818      -39.6120451097       13.0274268953  W2        4075            0.0000000000
     11969      3990  TIP3      H1            -23.6745662818      -39.0645051097       12.5255268953  W2        4075            0.0000000000
     11970      3990  TIP3      H2            -25.1481262818      -39.2930051097       12.7868368953  W2        4075            0.0000000000
     11971      3991  TIP3      OH2           -22.5512862818      -38.4731751097       11.3605168953  W2        4076            0.0000000000
     11972      3991  TIP3      H1            -21.9395362818      -38.9876051097       10.8338768953  W2        4076            0.0000000000
     11973      3991  TIP3      H2            -22.1689462818      -37.5959651097       11.3839568953  W2        4076            0.0000000000
     11974      3992  TIP3      OH2           -37.0942962818      -39.0854151097       10.7367068953  W2        4077            0.0000000000
     11975      3992  TIP3      H1            -37.8713162818      -39.3199251097       10.2292968953  W2        4077            0.0000000000
     11976      3992  TIP3      H2            -36.5639362818      -39.8822051097       10.7455068953  W2        4077            0.0000000000
     11977      3993  TIP3      OH2           -38.2579562818      -39.2876051097        6.5403168953  W2        4078            0.0000000000
     11978      3993  TIP3      H1            -37.8188862818      -38.6765551097        5.9486668953  W2        4078            0.0000000000
     11979      3993  TIP3      H2            -38.8917162818      -38.7491951097        7.0143168953  W2        4078            0.0000000000
     11980      3994  TIP3      OH2           -32.5150362818      -39.1587051097       10.5500168953  W2        4079            0.0000000000
     11981      3994  TIP3      H1            -31.6406962818      -38.7702751097       10.5204468953  W2        4079            0.0000000000
     11982      3994  TIP3      H2            -32.6509562818      -39.3739251097       11.4727368953  W2        4079            0.0000000000
     11983      3995  TIP3      OH2           -26.9581962818      -39.1287251097       12.1991868953  W2        4080            0.0000000000
     11984      3995  TIP3      H1            -26.8820362818      -39.0335651097       11.2497868953  W2        4080            0.0000000000
     11985      3995  TIP3      H2            -27.2332762818      -40.0364351097       12.3280968953  W2        4080            0.0000000000
     11986      3996  TIP3      OH2           -25.6049362818      -39.1029451097        7.8916868953  W2        4081            0.0000000000
     11987      3996  TIP3      H1            -26.3078262818      -38.4880251097        7.6818268953  W2        4081            0.0000000000
     11988      3996  TIP3      H2            -26.0497962818      -39.9402751097        8.0227768953  W2        4081            0.0000000000
     11989      3997  TIP3      OH2           -38.3570062818      -23.3393851097        7.4378268953  W2        4082            0.0000000000
     11990      3997  TIP3      H1            -39.0420162818      -23.3774951097        6.7703368953  W2        4082            0.0000000000
     11991      3997  TIP3      H2            -38.3532862818      -22.4266251097        7.7260368953  W2        4082            0.0000000000
     11992      3998  TIP3      OH2           -36.3970462818      -37.3714551097        4.9827268953  W2        4083            0.0000000000
     11993      3998  TIP3      H1            -35.9057062818      -38.0012151097        4.4552768953  W2        4083            0.0000000000
     11994      3998  TIP3      H2            -35.7734162818      -37.0755151097        5.6458468953  W2        4083            0.0000000000
     11995      3999  TIP3      OH2           -31.3710362818      -37.0783051097        7.4397768953  W2        4084            0.0000000000
     11996      3999  TIP3      H1            -31.1929062818      -37.7249851097        8.1226368953  W2        4084            0.0000000000
     11997      3999  TIP3      H2            -31.4244162818      -36.2445351097        7.9068868953  W2        4084            0.0000000000
     11998      4000  TIP3      OH2           -29.4926562818      -22.1298951097        5.8354468953  W2        4085            0.0000000000
     11999      4000  TIP3      H1            -28.6266362818      -21.7631551097        5.6572668953  W2        4085            0.0000000000
     12000      4000  TIP3      H2            -29.7393762818      -22.5690951097        5.0215268953  W2        4085            0.0000000000
     12001      4001  TIP3      OH2           -22.7836962818      -22.5668651097        8.5145568953  W2        4086            0.0000000000
     12002      4001  TIP3      H1            -22.9779862818      -23.3146551097        7.9495168953  W2        4086            0.0000000000
     12003      4001  TIP3      H2            -22.8226862818      -21.8088551097        7.9313468953  W2        4086            0.0000000000
     12004      4002  TIP3      OH2           -36.5388862818      -22.4193051097        4.4630368953  W2        4089            0.0000000000
     12005      4002  TIP3      H1            -36.8064262818      -22.1330151097        5.3363468953  W2        4089            0.0000000000
     12006      4002  TIP3      H2            -35.7676262818      -22.9653851097        4.6152868953  W2        4089            0.0000000000
     12007      4003  TIP3      OH2            -9.1600362818      -29.9291851097       10.6954568953  W2        4092            0.0000000000
     12008      4003  TIP3      H1             -9.0709262818      -28.9853651097       10.5631668953  W2        4092            0.0000000000
     12009      4003  TIP3      H2             -9.7982762818      -30.2045451097       10.0373968953  W2        4092            0.0000000000
     12010      4004  TIP3      OH2           -10.2269062818      -30.6741151097       14.1142768953  W2        4093            0.0000000000
     12011      4004  TIP3      H1            -10.2651562818      -31.3204851097       14.8192368953  W2        4093            0.0000000000
     12012      4004  TIP3      H2            -10.5492562818      -31.1406751097       13.3431468953  W2        4093            0.0000000000
     12013      4005  TIP3      OH2            -6.5208862818      -27.7350751097       12.4157868953  W2        4095            0.0000000000
     12014      4005  TIP3      H1             -6.9616162818      -28.4554751097       12.8663468953  W2        4095            0.0000000000
     12015      4005  TIP3      H2             -6.5339162818      -27.0143551097       13.0455568953  W2        4095            0.0000000000
     12016      4006  TIP3      OH2           -16.9350962818      -26.6100151097       14.2421768953  W2        4096            0.0000000000
     12017      4006  TIP3      H1            -17.3045762818      -27.4119651097       13.8726068953  W2        4096            0.0000000000
     12018      4006  TIP3      H2            -15.9939862818      -26.7785251097       14.2885168953  W2        4096            0.0000000000
     12019      4007  TIP3      OH2           -20.3250462818      -32.9497551097        9.6350568953  W2        4097            0.0000000000
     12020      4007  TIP3      H1            -20.7727062818      -32.1038851097        9.6167068953  W2        4097            0.0000000000
     12021      4007  TIP3      H2            -20.8859262818      -33.5293351097        9.1195668953  W2        4097            0.0000000000
     12022      4008  TIP3      OH2           -19.6144362818      -30.7877951097       11.7608568953  W2        4098            0.0000000000
     12023      4008  TIP3      H1            -19.4010862818      -31.5576351097       12.2881568953  W2        4098            0.0000000000
     12024      4008  TIP3      H2            -18.8766762818      -30.6981251097       11.1576168953  W2        4098            0.0000000000
     12025      4009  TIP3      OH2            -9.4093362818      -22.6309051097       12.6278268953  W2        4099            0.0000000000
     12026      4009  TIP3      H1             -8.7896962818      -23.3074351097       12.3547468953  W2        4099            0.0000000000
     12027      4009  TIP3      H2             -9.6175962818      -22.8488251097       13.5363168953  W2        4099            0.0000000000
     12028      4010  TIP3      OH2           -11.8374662818      -28.2419751097       14.5203768953  W2        4100            0.0000000000
     12029      4010  TIP3      H1            -11.5336762818      -28.9278351097       13.9257868953  W2        4100            0.0000000000
     12030      4010  TIP3      H2            -11.1160662818      -28.1231051097       15.1381768953  W2        4100            0.0000000000
     12031      4011  TIP3      OH2            -8.6967662818      -33.8477351097       14.8478568953  W2        4102            0.0000000000
     12032      4011  TIP3      H1             -8.5541762818      -34.7940351097       14.8680168953  W2        4102            0.0000000000
     12033      4011  TIP3      H2             -8.8028662818      -33.6407551097       13.9193468953  W2        4102            0.0000000000
     12034      4012  TIP3      OH2           -15.5419362818      -35.7460951097       12.1203368953  W2        4103            0.0000000000
     12035      4012  TIP3      H1            -15.4988262818      -34.8862451097       11.7019668953  W2        4103            0.0000000000
     12036      4012  TIP3      H2            -15.9995262818      -36.2986251097       11.4866568953  W2        4103            0.0000000000
     12037      4013  TIP3      OH2            -7.8196662818      -35.6155351097       10.5211668953  W2        4104            0.0000000000
     12038      4013  TIP3      H1             -7.1732362818      -35.9442151097       11.1459268953  W2        4104            0.0000000000
     12039      4013  TIP3      H2             -7.3097262818      -35.0976351097        9.8983068953  W2        4104            0.0000000000
     12040      4014  TIP3      OH2           -18.9217862818      -33.3495151097       12.8824768953  W2        4105            0.0000000000
     12041      4014  TIP3      H1            -18.2681262818      -33.8993451097       13.3144868953  W2        4105            0.0000000000
     12042      4014  TIP3      H2            -18.8978562818      -33.6236151097       11.9656768953  W2        4105            0.0000000000
     12043      4015  TIP3      OH2           -13.7653362818      -31.7993851097       12.0976268953  W2        4106            0.0000000000
     12044      4015  TIP3      H1            -13.1492362818      -32.3258451097       12.6070268953  W2        4106            0.0000000000
     12045      4015  TIP3      H2            -14.3514562818      -32.4395151097       11.6939868953  W2        4106            0.0000000000
     12046      4016  TIP3      OH2            -9.3627662818      -27.3281451097        9.7383268953  W2        4109            0.0000000000
     12047      4016  TIP3      H1             -9.6582562818      -27.6509151097        8.8870168953  W2        4109            0.0000000000
     12048      4016  TIP3      H2             -9.6869862818      -26.4284751097        9.7795868953  W2        4109            0.0000000000
     12049      4017  TIP3      OH2            -6.0558262818      -36.3246051097       12.5017568953  W2        4111            0.0000000000
     12050      4017  TIP3      H1             -6.2710262818      -37.0902651097       13.0343568953  W2        4111            0.0000000000
     12051      4017  TIP3      H2             -5.4000862818      -35.8521451097       13.0146068953  W2        4111            0.0000000000
     12052      4018  TIP3      OH2           -17.1380162818      -34.9360751097       14.1466368953  W2        4112            0.0000000000
     12053      4018  TIP3      H1            -16.5243862818      -34.3033151097       14.5198768953  W2        4112            0.0000000000
     12054      4018  TIP3      H2            -16.6259462818      -35.4085751097       13.4903268953  W2        4112            0.0000000000
     12055      4019  TIP3      OH2           -19.6340862818      -27.5175951097        8.0508668953  W2        4114            0.0000000000
     12056      4019  TIP3      H1            -19.9059962818      -27.2884951097        7.1621568953  W2        4114            0.0000000000
     12057      4019  TIP3      H2            -19.5885162818      -26.6797151097        8.5113968953  W2        4114            0.0000000000
     12058      4020  TIP3      OH2            -6.0091162818      -25.8960051097       14.7637168953  W2        4115            0.0000000000
     12059      4020  TIP3      H1             -6.9507462818      -25.8376151097       14.9254068953  W2        4115            0.0000000000
     12060      4020  TIP3      H2             -5.7325062818      -24.9899551097       14.6266868953  W2        4115            0.0000000000
     12061      4021  TIP3      OH2           -12.7052762818      -39.5227451097       13.6469068953  W2        4117            0.0000000000
     12062      4021  TIP3      H1            -12.8228562818      -40.4711451097       13.5927368953  W2        4117            0.0000000000
     12063      4021  TIP3      H2            -13.5602662818      -39.1901351097       13.9200168953  W2        4117            0.0000000000
     12064      4022  TIP3      OH2            -7.7569962818      -24.1146551097       11.3888768953  W2        4118            0.0000000000
     12065      4022  TIP3      H1             -7.3317662818      -24.8218651097       10.9038368953  W2        4118            0.0000000000
     12066      4022  TIP3      H2             -7.4399962818      -23.3133851097       10.9720968953  W2        4118            0.0000000000
     12067      4023  TIP3      OH2            -6.5973462818      -26.2138051097        9.8975368953  W2        4119            0.0000000000
     12068      4023  TIP3      H1             -6.8548662818      -26.9037951097        9.2861268953  W2        4119            0.0000000000
     12069      4023  TIP3      H2             -6.5262662818      -26.6566851097       10.7431268953  W2        4119            0.0000000000
     12070      4024  TIP3      OH2           -10.4387862818      -30.6851851097        8.1474868953  W2        4121            0.0000000000
     12071      4024  TIP3      H1            -11.1502362818      -30.1502151097        7.7955368953  W2        4121            0.0000000000
     12072      4024  TIP3      H2             -9.7478262818      -30.6299751097        7.4873768953  W2        4121            0.0000000000
     12073      4025  TIP3      OH2           -10.3848662818      -32.2277551097        5.1859868953  W2        4122            0.0000000000
     12074      4025  TIP3      H1             -9.6838762818      -32.2050651097        5.8373868953  W2        4122            0.0000000000
     12075      4025  TIP3      H2            -10.0825762818      -32.8557851097        4.5299168953  W2        4122            0.0000000000
     12076      4026  TIP3      OH2            -7.0330162818      -30.4758551097        9.0990768953  W2        4124            0.0000000000
     12077      4026  TIP3      H1             -7.7649162818      -30.2474851097        9.6721368953  W2        4124            0.0000000000
     12078      4026  TIP3      H2             -6.5857962818      -31.1895851097        9.5538268953  W2        4124            0.0000000000
     12079      4027  TIP3      OH2           -15.3876462818      -29.8452351097       10.9815768953  W2        4126            0.0000000000
     12080      4027  TIP3      H1            -15.7181262818      -30.2158951097       10.1632768953  W2        4126            0.0000000000
     12081      4027  TIP3      H2            -14.7992362818      -30.5158351097       11.3284068953  W2        4126            0.0000000000
     12082      4028  TIP3      OH2           -14.0208962818      -26.4171751097       13.6627968953  W2        4127            0.0000000000
     12083      4028  TIP3      H1            -14.1157662818      -26.9958651097       12.9062568953  W2        4127            0.0000000000
     12084      4028  TIP3      H2            -13.2915362818      -26.7886051097       14.1590768953  W2        4127            0.0000000000
     12085      4029  TIP3      OH2           -15.0210962818      -31.0766751097       14.6150768953  W2        4128            0.0000000000
     12086      4029  TIP3      H1            -14.4558462818      -30.9552551097       13.8521968953  W2        4128            0.0000000000
     12087      4029  TIP3      H2            -14.7022062818      -30.4391751097       15.2539268953  W2        4128            0.0000000000
     12088      4030  TIP3      OH2            -8.1620662818      -31.3135651097        6.7841968953  W2        4131            0.0000000000
     12089      4030  TIP3      H1             -7.5825162818      -31.1635351097        7.5310868953  W2        4131            0.0000000000
     12090      4030  TIP3      H2             -7.7480662818      -30.8428251097        6.0608368953  W2        4131            0.0000000000
     12091      4031  TIP3      OH2           -10.4355762818      -24.5767151097       10.2195068953  W2        4133            0.0000000000
     12092      4031  TIP3      H1             -9.9618162818      -24.2810851097       10.9969268953  W2        4133            0.0000000000
     12093      4031  TIP3      H2            -10.9986462818      -23.8385551097        9.9864668953  W2        4133            0.0000000000
     12094      4032  TIP3      OH2            -4.4632262818      -39.5635251097        6.5971668953  W2        4135            0.0000000000
     12095      4032  TIP3      H1             -5.3631562818      -39.4246251097        6.8922268953  W2        4135            0.0000000000
     12096      4032  TIP3      H2             -4.2113862818      -38.7320651097        6.1953368953  W2        4135            0.0000000000
     12097      4033  TIP3      OH2           -16.3973762818      -30.7758051097        8.5708568953  W2        4136            0.0000000000
     12098      4033  TIP3      H1            -16.6892462818      -30.0076351097        8.0799868953  W2        4136            0.0000000000
     12099      4033  TIP3      H2            -17.0718562818      -31.4351851097        8.4079968953  W2        4136            0.0000000000
     12100      4034  TIP3      OH2            -3.2740862818      -25.1972851097        4.9735568953  W2        4137            0.0000000000
     12101      4034  TIP3      H1             -3.2007362818      -24.2582651097        5.1440868953  W2        4137            0.0000000000
     12102      4034  TIP3      H2             -2.3685762818      -25.5024251097        4.9172868953  W2        4137            0.0000000000
     12103      4035  TIP3      OH2           -20.5540962818      -25.6325051097       14.2698568953  W2        4139            0.0000000000
     12104      4035  TIP3      H1            -19.6080362818      -25.7768051097       14.2508068953  W2        4139            0.0000000000
     12105      4035  TIP3      H2            -20.6664662818      -24.8482251097       14.8069768953  W2        4139            0.0000000000
     12106      4036  TIP3      OH2           -10.9632662818      -21.6202451097        8.6344268953  W2        4142            0.0000000000
     12107      4036  TIP3      H1            -11.0386662818      -21.7415251097        7.6879468953  W2        4142            0.0000000000
     12108      4036  TIP3      H2            -10.9303962818      -20.6709751097        8.7528868953  W2        4142            0.0000000000
     12109      4037  TIP3      OH2           -17.3098862818      -22.8315451097       10.4153268953  W2        4143            0.0000000000
     12110      4037  TIP3      H1            -17.1578462818      -23.1795051097       11.2939768953  W2        4143            0.0000000000
     12111      4037  TIP3      H2            -18.1608462818      -23.1878151097       10.1600468953  W2        4143            0.0000000000
     12112      4038  TIP3      OH2            -7.8616662818      -22.4662251097        5.6366668953  W2        4144            0.0000000000
     12113      4038  TIP3      H1             -7.4868262818      -23.2106151097        5.1659268953  W2        4144            0.0000000000
     12114      4038  TIP3      H2             -7.8572962818      -22.7361651097        6.5549968953  W2        4144            0.0000000000
     12115      4039  TIP3      OH2            -8.1928562818      -22.5405151097        8.3858868953  W2        4145            0.0000000000
     12116      4039  TIP3      H1             -9.1278762818      -22.4403251097        8.5645868953  W2        4145            0.0000000000
     12117      4039  TIP3      H2             -7.9126662818      -23.2499151097        8.9642068953  W2        4145            0.0000000000
     12118      4040  TIP3      OH2           -15.4365162818      -38.6192951097       14.4245368953  W2        4148            0.0000000000
     12119      4040  TIP3      H1            -16.2981462818      -38.7064751097       14.0168268953  W2        4148            0.0000000000
     12120      4040  TIP3      H2            -15.4589462818      -37.7632851097       14.8522968953  W2        4148            0.0000000000
     12121      4041  TIP3      OH2            -6.6847562818      -30.2807351097        4.4139868953  W2        4151            0.0000000000
     12122      4041  TIP3      H1             -6.6426762818      -30.5033451097        3.4839868953  W2        4151            0.0000000000
     12123      4041  TIP3      H2             -5.8355462818      -29.8820251097        4.6039768953  W2        4151            0.0000000000
     12124      4042  TIP3      OH2           -11.1120062818      -36.4049151097        5.0843168953  W2        4152            0.0000000000
     12125      4042  TIP3      H1            -11.3655262818      -36.3857551097        6.0071268953  W2        4152            0.0000000000
     12126      4042  TIP3      H2            -11.3687962818      -37.2763751097        4.7829368953  W2        4152            0.0000000000
     12127      4043  TIP3      OH2           -15.3485962818      -33.4328351097       10.4315568953  W2        4154            0.0000000000
     12128      4043  TIP3      H1            -16.2413062818      -33.7732251097       10.3729368953  W2        4154            0.0000000000
     12129      4043  TIP3      H2            -14.8979362818      -33.8097451097        9.6758768953  W2        4154            0.0000000000
     12130      4044  TIP3      OH2            -9.8130462818      -33.0168051097        9.2486368953  W2        4155            0.0000000000
     12131      4044  TIP3      H1            -10.2220162818      -32.2019451097        8.9571168953  W2        4155            0.0000000000
     12132      4044  TIP3      H2             -9.0924262818      -33.1567951097        8.6343468953  W2        4155            0.0000000000
     12133      4045  TIP3      OH2            -8.8082762818      -33.5707651097       12.0626068953  W2        4157            0.0000000000
     12134      4045  TIP3      H1             -9.0038262818      -32.9650851097       11.3476668953  W2        4157            0.0000000000
     12135      4045  TIP3      H2             -8.6270162818      -34.4042451097       11.6282368953  W2        4157            0.0000000000
     12136      4046  TIP3      OH2           -14.2297162818      -35.9592651097        4.1853568953  W2        4159            0.0000000000
     12137      4046  TIP3      H1            -14.6606462818      -36.4042551097        4.9150968953  W2        4159            0.0000000000
     12138      4046  TIP3      H2            -14.9478462818      -35.5876351097        3.6731068953  W2        4159            0.0000000000
     12139      4047  TIP3      OH2           -20.9873762818      -36.2173151097       11.2372268953  W2        4160            0.0000000000
     12140      4047  TIP3      H1            -20.3566062818      -36.2461051097       11.9566168953  W2        4160            0.0000000000
     12141      4047  TIP3      H2            -20.5379462818      -36.6424451097       10.5068168953  W2        4160            0.0000000000
     12142      4048  TIP3      OH2           -19.7131662818      -35.4711151097        6.6612668953  W2        4161            0.0000000000
     12143      4048  TIP3      H1            -19.2389962818      -34.8801251097        6.0763568953  W2        4161            0.0000000000
     12144      4048  TIP3      H2            -20.4305262818      -34.9408251097        7.0082768953  W2        4161            0.0000000000
     12145      4049  TIP3      OH2           -12.7670662818      -36.0050851097       11.5179668953  W2        4163            0.0000000000
     12146      4049  TIP3      H1            -13.6779562818      -35.9484051097       11.8065668953  W2        4163            0.0000000000
     12147      4049  TIP3      H2            -12.2617762818      -36.0655351097       12.3286868953  W2        4163            0.0000000000
     12148      4050  TIP3      OH2           -17.9387262818      -34.3764551097       10.3447268953  W2        4164            0.0000000000
     12149      4050  TIP3      H1            -18.8279262818      -34.2769051097       10.0046868953  W2        4164            0.0000000000
     12150      4050  TIP3      H2            -17.6422362818      -35.2181551097        9.9985168953  W2        4164            0.0000000000
     12151      4051  TIP3      OH2           -14.2855462818      -34.3761951097        8.0011868953  W2        4165            0.0000000000
     12152      4051  TIP3      H1            -13.3539962818      -34.2471951097        8.1794968953  W2        4165            0.0000000000
     12153      4051  TIP3      H2            -14.5005162818      -33.7067651097        7.3516568953  W2        4165            0.0000000000
     12154      4052  TIP3      OH2            -8.3618762818      -36.7704551097       14.7821468953  W2        4166            0.0000000000
     12155      4052  TIP3      H1             -9.0387162818      -36.6391451097       15.4461168953  W2        4166            0.0000000000
     12156      4052  TIP3      H2             -8.8473862818      -36.9255051097       13.9719168953  W2        4166            0.0000000000
     12157      4053  TIP3      OH2           -15.6115262818      -33.1819751097        5.5677968953  W2        4167            0.0000000000
     12158      4053  TIP3      H1            -16.1540162818      -33.5615951097        4.8765568953  W2        4167            0.0000000000
     12159      4053  TIP3      H2            -14.7780362818      -32.9875051097        5.1392068953  W2        4167            0.0000000000
     12160      4054  TIP3      OH2           -11.4470962818      -33.2177851097       13.4049268953  W2        4170            0.0000000000
     12161      4054  TIP3      H1            -10.8827562818      -33.7641251097       12.8578868953  W2        4170            0.0000000000
     12162      4054  TIP3      H2            -11.5947562818      -33.7395951097       14.1936868953  W2        4170            0.0000000000
     12163      4055  TIP3      OH2           -16.4451262818      -37.0811751097        9.8234068953  W2        4171            0.0000000000
     12164      4055  TIP3      H1            -16.7621762818      -37.9836451097        9.7879468953  W2        4171            0.0000000000
     12165      4055  TIP3      H2            -15.6637162818      -37.0794351097        9.2705668953  W2        4171            0.0000000000
     12166      4056  TIP3      OH2           -12.2762462818      -28.6164051097        7.5036068953  W2        4173            0.0000000000
     12167      4056  TIP3      H1            -13.0211462818      -29.1238751097        7.1813968953  W2        4173            0.0000000000
     12168      4056  TIP3      H2            -12.4105262818      -28.5676051097        8.4500868953  W2        4173            0.0000000000
     12169      4057  TIP3      OH2            -8.3785662818      -35.8024151097        5.7028668953  W2        4175            0.0000000000
     12170      4057  TIP3      H1             -9.3171462818      -35.6908551097        5.5517468953  W2        4175            0.0000000000
     12171      4057  TIP3      H2             -8.0813562818      -34.9457251097        6.0094368953  W2        4175            0.0000000000
     12172      4058  TIP3      OH2            -7.6602162818      -33.9351451097        7.3636068953  W2        4177            0.0000000000
     12173      4058  TIP3      H1             -6.7683162818      -34.0726451097        7.6827268953  W2        4177            0.0000000000
     12174      4058  TIP3      H2             -7.6038562818      -33.1445351097        6.8269568953  W2        4177            0.0000000000
     12175      4059  TIP3      OH2           -17.1514162818      -29.3214051097       13.2733968953  W2        4178            0.0000000000
     12176      4059  TIP3      H1            -16.4066962818      -29.3238351097       12.6720468953  W2        4178            0.0000000000
     12177      4059  TIP3      H2            -17.0737562818      -30.1450251097       13.7549068953  W2        4178            0.0000000000
     12178      4060  TIP3      OH2           -10.1508362818      -27.1579751097        6.5290668953  W2        4179            0.0000000000
     12179      4060  TIP3      H1            -10.4459962818      -26.3311851097        6.9105468953  W2        4179            0.0000000000
     12180      4060  TIP3      H2            -10.8538362818      -27.7772851097        6.7252068953  W2        4179            0.0000000000
     12181      4061  TIP3      OH2            -2.7753462818      -33.7257351097        7.0582768953  W2        4183            0.0000000000
     12182      4061  TIP3      H1             -3.3297162818      -34.1219351097        6.3860268953  W2        4183            0.0000000000
     12183      4061  TIP3      H2             -2.6749862818      -32.8152151097        6.7806068953  W2        4183            0.0000000000
     12184      4062  TIP3      OH2            -4.4801762818      -24.9396951097        7.5234868953  W2        4185            0.0000000000
     12185      4062  TIP3      H1             -4.8530662818      -25.7653151097        7.8325468953  W2        4185            0.0000000000
     12186      4062  TIP3      H2             -4.2028262818      -25.1227551097        6.6258268953  W2        4185            0.0000000000
     12187      4063  TIP3      OH2            -7.3197862818      -30.1317451097       14.5446768953  W2        4186            0.0000000000
     12188      4063  TIP3      H1             -8.2480962818      -30.3635551097       14.5176068953  W2        4186            0.0000000000
     12189      4063  TIP3      H2             -6.8686762818      -30.9087651097       14.2145568953  W2        4186            0.0000000000
     12190      4064  TIP3      OH2           -14.7764762818      -25.8035851097       10.6775468953  W2        4187            0.0000000000
     12191      4064  TIP3      H1            -14.2492562818      -25.0301451097       10.4774268953  W2        4187            0.0000000000
     12192      4064  TIP3      H2            -15.6566262818      -25.5786651097       10.3759468953  W2        4187            0.0000000000
     12193      4065  TIP3      OH2           -19.0217062818      -30.9411751097        5.2647868953  W2        4188            0.0000000000
     12194      4065  TIP3      H1            -18.4057162818      -30.3144551097        5.6442668953  W2        4188            0.0000000000
     12195      4065  TIP3      H2            -19.8834462818      -30.6251951097        5.5364368953  W2        4188            0.0000000000
     12196      4066  TIP3      OH2           -13.3492462818      -28.1405951097       10.2539768953  W2        4189            0.0000000000
     12197      4066  TIP3      H1            -13.5902462818      -27.2151551097       10.2955068953  W2        4189            0.0000000000
     12198      4066  TIP3      H2            -14.0898862818      -28.5994651097       10.6503668953  W2        4189            0.0000000000
     12199      4067  TIP3      OH2           -14.6661662818      -23.1188351097        9.7991968953  W2        4191            0.0000000000
     12200      4067  TIP3      H1            -15.6161162818      -23.0130951097        9.8505268953  W2        4191            0.0000000000
     12201      4067  TIP3      H2            -14.3143562818      -22.2980951097       10.1439468953  W2        4191            0.0000000000
     12202      4068  TIP3      OH2            -7.0876162818      -26.9631151097        5.3435468953  W2        4193            0.0000000000
     12203      4068  TIP3      H1             -6.7343062818      -27.3431351097        6.1478968953  W2        4193            0.0000000000
     12204      4068  TIP3      H2             -8.0362662818      -27.0566351097        5.4304768953  W2        4193            0.0000000000
     12205      4069  TIP3      OH2            -2.5841762818      -22.4838651097        5.5445668953  W2        4195            0.0000000000
     12206      4069  TIP3      H1             -1.8403862818      -21.8978151097        5.4047268953  W2        4195            0.0000000000
     12207      4069  TIP3      H2             -3.2783662818      -21.9152851097        5.8778068953  W2        4195            0.0000000000
     12208      4070  TIP3      OH2            -6.2216862818      -28.2909151097        7.5703368953  W2        4197            0.0000000000
     12209      4070  TIP3      H1             -6.4989262818      -29.0189851097        8.1264468953  W2        4197            0.0000000000
     12210      4070  TIP3      H2             -5.2943862818      -28.1717151097        7.7755968953  W2        4197            0.0000000000
     12211      4071  TIP3      OH2           -12.9968362818      -25.8515051097        3.7905468953  W2        4199            0.0000000000
     12212      4071  TIP3      H1            -12.7578562818      -26.5996951097        3.2434368953  W2        4199            0.0000000000
     12213      4071  TIP3      H2            -13.2657062818      -26.2393351097        4.6233268953  W2        4199            0.0000000000
     12214      4072  TIP3      OH2           -14.0597762818      -26.2811251097        6.2468068953  W2        4200            0.0000000000
     12215      4072  TIP3      H1            -13.9129762818      -26.8011451097        7.0368968953  W2        4200            0.0000000000
     12216      4072  TIP3      H2            -14.0626062818      -25.3743651097        6.5533968953  W2        4200            0.0000000000
     12217      4073  TIP3      OH2           -17.6066662818      -29.0287951097        6.7573468953  W2        4201            0.0000000000
     12218      4073  TIP3      H1            -18.2927362818      -28.6765451097        7.3243168953  W2        4201            0.0000000000
     12219      4073  TIP3      H2            -17.0838762818      -28.2658351097        6.5107768953  W2        4201            0.0000000000
     12220      4074  TIP3      OH2            -8.9906662818      -36.7142451097        8.1334768953  W2        4203            0.0000000000
     12221      4074  TIP3      H1             -8.7708362818      -36.2427051097        7.3300168953  W2        4203            0.0000000000
     12222      4074  TIP3      H2             -8.4322662818      -36.3199851097        8.8035368953  W2        4203            0.0000000000
     12223      4075  TIP3      OH2           -11.3220562818      -24.5837651097        6.9962268953  W2        4204            0.0000000000
     12224      4075  TIP3      H1            -12.1384462818      -24.0867951097        7.0486568953  W2        4204            0.0000000000
     12225      4075  TIP3      H2            -10.7924262818      -24.1084151097        6.3561068953  W2        4204            0.0000000000
     12226      4076  TIP3      OH2           -11.7906762818      -34.9863651097        8.9683168953  W2        4205            0.0000000000
     12227      4076  TIP3      H1            -10.9784162818      -34.4820451097        9.0144868953  W2        4205            0.0000000000
     12228      4076  TIP3      H2            -12.0353762818      -35.1313951097        9.8822768953  W2        4205            0.0000000000
     12229      4077  TIP3      OH2           -10.9070062818      -37.9050651097        9.9064268953  W2        4207            0.0000000000
     12230      4077  TIP3      H1            -11.2536562818      -37.2880051097       10.5508568953  W2        4207            0.0000000000
     12231      4077  TIP3      H2            -10.2483162818      -37.4044951097        9.4249768953  W2        4207            0.0000000000
     12232      4078  TIP3      OH2           -13.9837462818      -23.5400451097        6.9779168953  W2        4208            0.0000000000
     12233      4078  TIP3      H1            -13.8228762818      -22.7402951097        6.4771768953  W2        4208            0.0000000000
     12234      4078  TIP3      H2            -14.1809662818      -23.2334451097        7.8629768953  W2        4208            0.0000000000
     12235      4079  TIP3      OH2           -15.2493062818      -36.8421251097        6.5936768953  W2        4209            0.0000000000
     12236      4079  TIP3      H1            -15.3328262818      -35.9538151097        6.9403168953  W2        4209            0.0000000000
     12237      4079  TIP3      H2            -14.3592762818      -37.1074551097        6.8253568953  W2        4209            0.0000000000
     12238      4080  TIP3      OH2            -6.4483562818      -32.3429651097       13.0836768953  W2        4211            0.0000000000
     12239      4080  TIP3      H1             -7.2459162818      -32.7579451097       12.7551768953  W2        4211            0.0000000000
     12240      4080  TIP3      H2             -6.0032462818      -33.0335951097       13.5747268953  W2        4211            0.0000000000
     12241      4081  TIP3      OH2           -16.9907762818      -26.4149051097        5.6541268953  W2        4212            0.0000000000
     12242      4081  TIP3      H1            -16.3986262818      -25.7154251097        5.9303668953  W2        4212            0.0000000000
     12243      4081  TIP3      H2            -16.5314762818      -26.8479551097        4.9345868953  W2        4212            0.0000000000
     12244      4082  TIP3      OH2           -18.6748562818      -33.7506051097        4.7700668953  W2        4213            0.0000000000
     12245      4082  TIP3      H1            -18.7195962818      -32.8112951097        4.9487668953  W2        4213            0.0000000000
     12246      4082  TIP3      H2            -19.5625362818      -33.9861151097        4.5002768953  W2        4213            0.0000000000
     12247      4083  TIP3      OH2            -5.3618962818      -23.0867151097       14.7060268953  W2        4214            0.0000000000
     12248      4083  TIP3      H1             -5.5174662818      -22.4082751097       14.0489568953  W2        4214            0.0000000000
     12249      4083  TIP3      H2             -4.4292562818      -23.0147851097       14.9090868953  W2        4214            0.0000000000
     12250      4084  TIP3      OH2           -17.8666562818      -38.9689451097       13.4431668953  W2        4215            0.0000000000
     12251      4084  TIP3      H1            -18.0956762818      -38.9096951097       12.5156668953  W2        4215            0.0000000000
     12252      4084  TIP3      H2            -18.3093162818      -39.7603951097       13.7495768953  W2        4215            0.0000000000
     12253      4085  TIP3      OH2           -18.9363262818      -25.0282351097        9.6037468953  W2        4216            0.0000000000
     12254      4085  TIP3      H1            -19.7684662818      -24.5559651097        9.6308868953  W2        4216            0.0000000000
     12255      4085  TIP3      H2            -18.3904962818      -24.5184751097        9.0050568953  W2        4216            0.0000000000
     12256      4086  TIP3      OH2           -10.9586562818      -23.9883651097        3.9291468953  W2        4219            0.0000000000
     12257      4086  TIP3      H1            -11.6025562818      -24.6195051097        4.2505168953  W2        4219            0.0000000000
     12258      4086  TIP3      H2            -10.1968262818      -24.5195651097        3.6974968953  W2        4219            0.0000000000
     12259      4087  TIP3      OH2            -6.3543662818      -24.1713751097        4.1629468953  W2        4221            0.0000000000
     12260      4087  TIP3      H1             -6.0713262818      -24.9658551097        4.6156368953  W2        4221            0.0000000000
     12261      4087  TIP3      H2             -5.6145762818      -23.9382751097        3.6020568953  W2        4221            0.0000000000
     12262      4088  TIP3      OH2           -15.3996362818      -28.2618851097        4.0204368953  W2        4223            0.0000000000
     12263      4088  TIP3      H1            -15.3352262818      -29.0559251097        4.5510768953  W2        4223            0.0000000000
     12264      4088  TIP3      H2            -14.7467162818      -28.3806051097        3.3306368953  W2        4223            0.0000000000
     12265      4089  TIP3      OH2           -10.0472962818      -27.2147151097        3.7562368953  W2        4225            0.0000000000
     12266      4089  TIP3      H1            -10.3158862818      -27.0345051097        4.6571268953  W2        4225            0.0000000000
     12267      4089  TIP3      H2            -10.2537362818      -28.1400951097        3.6248168953  W2        4225            0.0000000000
     12268      4090  TIP3      OH2           -14.2502562818      -30.2892651097        6.3262368953  W2        4228            0.0000000000
     12269      4090  TIP3      H1            -14.7100562818      -30.7734351097        7.0120868953  W2        4228            0.0000000000
     12270      4090  TIP3      H2            -13.9953862818      -30.9577251097        5.6902868953  W2        4228            0.0000000000
     12271      4091  TIP3      OH2           -13.1792162818      -32.0460851097        4.5885568953  W2        4230            0.0000000000
     12272      4091  TIP3      H1            -13.3597162818      -32.2009651097        3.6613868953  W2        4230            0.0000000000
     12273      4091  TIP3      H2            -12.2291662818      -31.9382151097        4.6333468953  W2        4230            0.0000000000
     12274      4092  TIP3      OH2            -3.7893862818      -29.6916651097        4.0343668953  W2        4232            0.0000000000
     12275      4092  TIP3      H1             -4.0629062818      -30.1161151097        3.2211968953  W2        4232            0.0000000000
     12276      4092  TIP3      H2             -3.7499762818      -28.7602151097        3.8174068953  W2        4232            0.0000000000
     12277      4093  TIP3      OH2           -13.2820462818      -21.3557151097        5.5899168953  W2        4246            0.0000000000
     12278      4093  TIP3      H1            -12.3489762818      -21.1978451097        5.7337568953  W2        4246            0.0000000000
     12279      4093  TIP3      H2            -13.5461662818      -20.6804151097        4.9650668953  W2        4246            0.0000000000
     12280      4094  TIP3      OH2           -19.7135562818      -26.7193351097        5.0727268953  W2        4247            0.0000000000
     12281      4094  TIP3      H1            -18.7996362818      -26.6404451097        5.3461168953  W2        4247            0.0000000000
     12282      4094  TIP3      H2            -19.7062462818      -27.4063751097        4.4062868953  W2        4247            0.0000000000
     12283      4095  TIP3      OH2           -21.0644962818      -21.3264851097       10.1501168953  W2        4248            0.0000000000
     12284      4095  TIP3      H1            -21.7117862818      -21.7883151097        9.6172368953  W2        4248            0.0000000000
     12285      4095  TIP3      H2            -20.7100362818      -21.9981551097       10.7327368953  W2        4248            0.0000000000
     12286      4096  TIP3      OH2           -20.1945762818      -23.2457851097       11.9547368953  W2        4249            0.0000000000
     12287      4096  TIP3      H1            -20.5288962818      -24.1260551097       12.1267568953  W2        4249            0.0000000000
     12288      4096  TIP3      H2            -19.9723362818      -22.9002851097       12.8192968953  W2        4249            0.0000000000
     12289      4097  TIP3      OH2            -3.3311062818      -28.8228551097        8.0094068953  W2        4253            0.0000000000
     12290      4097  TIP3      H1             -2.4809662818      -28.4017651097        8.1365668953  W2        4253            0.0000000000
     12291      4097  TIP3      H2             -3.3255962818      -29.5628451097        8.6165468953  W2        4253            0.0000000000
     12292      4098  TIP3      OH2            -2.9365462818      -30.7691151097        9.8329768953  W2        4254            0.0000000000
     12293      4098  TIP3      H1             -3.6630862818      -31.2488551097       10.2307368953  W2        4254            0.0000000000
     12294      4098  TIP3      H2             -2.3552162818      -30.5636451097       10.5651368953  W2        4254            0.0000000000
     12295      4099  TIP3      OH2            -3.1774262818      -27.9843651097       14.7807368953  W2        4255            0.0000000000
     12296      4099  TIP3      H1             -2.3440062818      -28.3623651097       14.5000968953  W2        4255            0.0000000000
     12297      4099  TIP3      H2             -3.0653962818      -27.0412451097       14.6616468953  W2        4255            0.0000000000
     12298      4100  TIP3      OH2            -2.6682362818      -30.8682651097        6.2241068953  W2        4257            0.0000000000
     12299      4100  TIP3      H1             -3.1901262818      -30.5118551097        5.5051968953  W2        4257            0.0000000000
     12300      4100  TIP3      H2             -2.7013162818      -30.1934851097        6.9021968953  W2        4257            0.0000000000
     12301      4101  TIP3      OH2            -4.3193362818      -33.6287051097        4.7748168953  W2        4258            0.0000000000
     12302      4101  TIP3      H1             -4.2228962818      -32.9620051097        4.0947868953  W2        4258            0.0000000000
     12303      4101  TIP3      H2             -4.4593762818      -34.4440751097        4.2933668953  W2        4258            0.0000000000
     12304      4102  TIP3      OH2            -5.1498662818      -32.2484651097       10.3958468953  W2        4259            0.0000000000
     12305      4102  TIP3      H1             -5.2999862818      -33.1936051097       10.3756268953  W2        4259            0.0000000000
     12306      4102  TIP3      H2             -5.5034162818      -31.9673251097       11.2397568953  W2        4259            0.0000000000
     12307      4103  TIP3      OH2           -20.1146262818      -30.1702451097       14.4062268953  W2        4260            0.0000000000
     12308      4103  TIP3      H1            -19.9303362818      -30.2520751097       13.4705168953  W2        4260            0.0000000000
     12309      4103  TIP3      H2            -19.2653362818      -30.2945451097       14.8298668953  W2        4260            0.0000000000
     12310      4104  TIP3      OH2            -5.0719562818      -36.2207251097        3.8923668953  W2        4263            0.0000000000
     12311      4104  TIP3      H1             -4.4613762818      -36.5920451097        4.5291868953  W2        4263            0.0000000000
     12312      4104  TIP3      H2             -5.9088062818      -36.6420351097        4.0883668953  W2        4263            0.0000000000
     12313      4105  TIP3      OH2            -5.4393862818      -34.6658851097        8.8583568953  W2        4264            0.0000000000
     12314      4105  TIP3      H1             -5.1596762818      -35.5728451097        8.9825268953  W2        4264            0.0000000000
     12315      4105  TIP3      H2             -4.6802162818      -34.2317351097        8.4692768953  W2        4264            0.0000000000
     12316      4106  TIP3      OH2            -4.8275562818      -34.0841451097       14.2942468953  W2        4265            0.0000000000
     12317      4106  TIP3      H1             -3.8947562818      -33.8721551097       14.2598468953  W2        4265            0.0000000000
     12318      4106  TIP3      H2             -5.0628062818      -33.9829351097       15.2165468953  W2        4265            0.0000000000
     12319      4107  TIP3      OH2            -4.8259062818      -37.4029551097        8.9065568953  W2        4269            0.0000000000
     12320      4107  TIP3      H1             -4.6434062818      -37.8518051097        9.7320568953  W2        4269            0.0000000000
     12321      4107  TIP3      H2             -5.4256162818      -37.9875151097        8.4430168953  W2        4269            0.0000000000
     12322      4108  TIP3      OH2           -19.2958962818      -36.5875851097       13.4383968953  W2        4270            0.0000000000
     12323      4108  TIP3      H1            -18.8507362818      -37.3793351097       13.7403668953  W2        4270            0.0000000000
     12324      4108  TIP3      H2            -18.8295962818      -35.8710651097       13.8689568953  W2        4270            0.0000000000
     12325      4109  TIP3      OH2           -20.9918662818      -33.5882851097       14.5074168953  W2        4271            0.0000000000
     12326      4109  TIP3      H1            -20.4998862818      -33.8092351097       13.7166168953  W2        4271            0.0000000000
     12327      4109  TIP3      H2            -20.6297762818      -32.7479451097       14.7883668953  W2        4271            0.0000000000
     12328      4110  TIP3      OH2            -2.9592862818      -37.3351451097        5.4345868953  W2        4273            0.0000000000
     12329      4110  TIP3      H1             -2.5470262818      -38.0565751097        4.9593868953  W2        4273            0.0000000000
     12330      4110  TIP3      H2             -2.2776362818      -36.6656851097        5.4930168953  W2        4273            0.0000000000
     12331      4111  TIP3      OH2           -20.6782162818      -37.3303751097        8.5616568953  W2        4274            0.0000000000
     12332      4111  TIP3      H1            -21.6033762818      -37.1217151097        8.4322068953  W2        4274            0.0000000000
     12333      4111  TIP3      H2            -20.2242262818      -36.8462951097        7.8718868953  W2        4274            0.0000000000
     12334      4112  TIP3      OH2            -5.9074962818      -22.3462051097       10.5073968953  W2        4275            0.0000000000
     12335      4112  TIP3      H1             -5.2552062818      -22.6939951097        9.8993068953  W2        4275            0.0000000000
     12336      4112  TIP3      H2             -5.3971162818      -21.8578851097       11.1533668953  W2        4275            0.0000000000
     12337      4113  TIP3      OH2           -18.7519762818      -22.5633051097       14.2665968953  W2        4287            0.0000000000
     12338      4113  TIP3      H1            -18.7703762818      -22.9887951097       15.1238268953  W2        4287            0.0000000000
     12339      4113  TIP3      H2            -17.9471862818      -22.8818051097       13.8578168953  W2        4287            0.0000000000
     12340      4114  TIP3      OH2           -16.6106662818      -23.8534351097       12.9215868953  W2        4288            0.0000000000
     12341      4114  TIP3      H1            -16.8295962818      -24.7696951097       13.0911868953  W2        4288            0.0000000000
     12342      4114  TIP3      H2            -15.7864462818      -23.7133951097       13.3877268953  W2        4288            0.0000000000
     12343      4115  TIP3      OH2           -14.0734162818      -23.3835051097       13.7703868953  W2        4289            0.0000000000
     12344      4115  TIP3      H1            -13.8608462818      -24.2716051097       13.4834768953  W2        4289            0.0000000000
     12345      4115  TIP3      H2            -14.0089062818      -23.4177351097       14.7247868953  W2        4289            0.0000000000
     12346      4116  TIP3      OH2           -10.5650462818      -37.7194451097       12.9147168953  W2        4290            0.0000000000
     12347      4116  TIP3      H1            -11.2393662818      -38.3488851097       13.1702968953  W2        4290            0.0000000000
     12348      4116  TIP3      H2            -10.0011262818      -38.2035551097       12.3115068953  W2        4290            0.0000000000
     12349      4117  TIP3      OH2            -5.4223262818      -39.6120451097       13.0274268953  W2        4291            0.0000000000
     12350      4117  TIP3      H1             -4.8185662818      -39.0645051097       12.5255268953  W2        4291            0.0000000000
     12351      4117  TIP3      H2             -6.2921262818      -39.2930051097       12.7868368953  W2        4291            0.0000000000
     12352      4118  TIP3      OH2            -3.6952862818      -38.4731751097       11.3605168953  W2        4292            0.0000000000
     12353      4118  TIP3      H1             -3.0835362818      -38.9876051097       10.8338768953  W2        4292            0.0000000000
     12354      4118  TIP3      H2             -3.3129462818      -37.5959651097       11.3839568953  W2        4292            0.0000000000
     12355      4119  TIP3      OH2           -18.2382962818      -39.0854151097       10.7367068953  W2        4293            0.0000000000
     12356      4119  TIP3      H1            -19.0153162818      -39.3199251097       10.2292968953  W2        4293            0.0000000000
     12357      4119  TIP3      H2            -17.7079362818      -39.8822051097       10.7455068953  W2        4293            0.0000000000
     12358      4120  TIP3      OH2           -19.4019562818      -39.2876051097        6.5403168953  W2        4294            0.0000000000
     12359      4120  TIP3      H1            -18.9628862818      -38.6765551097        5.9486668953  W2        4294            0.0000000000
     12360      4120  TIP3      H2            -20.0357162818      -38.7491951097        7.0143168953  W2        4294            0.0000000000
     12361      4121  TIP3      OH2           -13.6590362818      -39.1587051097       10.5500168953  W2        4295            0.0000000000
     12362      4121  TIP3      H1            -12.7846962818      -38.7702751097       10.5204468953  W2        4295            0.0000000000
     12363      4121  TIP3      H2            -13.7949562818      -39.3739251097       11.4727368953  W2        4295            0.0000000000
     12364      4122  TIP3      OH2            -8.1021962818      -39.1287251097       12.1991868953  W2        4296            0.0000000000
     12365      4122  TIP3      H1             -8.0260362818      -39.0335651097       11.2497868953  W2        4296            0.0000000000
     12366      4122  TIP3      H2             -8.3772762818      -40.0364351097       12.3280968953  W2        4296            0.0000000000
     12367      4123  TIP3      OH2            -6.7489362818      -39.1029451097        7.8916868953  W2        4297            0.0000000000
     12368      4123  TIP3      H1             -7.4518262818      -38.4880251097        7.6818268953  W2        4297            0.0000000000
     12369      4123  TIP3      H2             -7.1937962818      -39.9402751097        8.0227768953  W2        4297            0.0000000000
     12370      4124  TIP3      OH2           -19.5010062818      -23.3393851097        7.4378268953  W2        4298            0.0000000000
     12371      4124  TIP3      H1            -20.1860162818      -23.3774951097        6.7703368953  W2        4298            0.0000000000
     12372      4124  TIP3      H2            -19.4972862818      -22.4266251097        7.7260368953  W2        4298            0.0000000000
     12373      4125  TIP3      OH2           -17.5410462818      -37.3714551097        4.9827268953  W2        4299            0.0000000000
     12374      4125  TIP3      H1            -17.0497062818      -38.0012151097        4.4552768953  W2        4299            0.0000000000
     12375      4125  TIP3      H2            -16.9174162818      -37.0755151097        5.6458468953  W2        4299            0.0000000000
     12376      4126  TIP3      OH2           -12.5150362818      -37.0783051097        7.4397768953  W2        4300            0.0000000000
     12377      4126  TIP3      H1            -12.3369062818      -37.7249851097        8.1226368953  W2        4300            0.0000000000
     12378      4126  TIP3      H2            -12.5684162818      -36.2445351097        7.9068868953  W2        4300            0.0000000000
     12379      4127  TIP3      OH2           -10.6366562818      -22.1298951097        5.8354468953  W2        4301            0.0000000000
     12380      4127  TIP3      H1             -9.7706362818      -21.7631551097        5.6572668953  W2        4301            0.0000000000
     12381      4127  TIP3      H2            -10.8833762818      -22.5690951097        5.0215268953  W2        4301            0.0000000000
     12382      4128  TIP3      OH2            -3.9276962818      -22.5668651097        8.5145568953  W2        4302            0.0000000000
     12383      4128  TIP3      H1             -4.1219862818      -23.3146551097        7.9495168953  W2        4302            0.0000000000
     12384      4128  TIP3      H2             -3.9666862818      -21.8088551097        7.9313468953  W2        4302            0.0000000000
     12385      4129  TIP3      OH2           -17.6828862818      -22.4193051097        4.4630368953  W2        4305            0.0000000000
     12386      4129  TIP3      H1            -17.9504262818      -22.1330151097        5.3363468953  W2        4305            0.0000000000
     12387      4129  TIP3      H2            -16.9116262818      -22.9653851097        4.6152868953  W2        4305            0.0000000000
     12388      4130  TIP3      OH2             9.6959637182      -29.9291851097       10.6954568953  W2        4308            0.0000000000
     12389      4130  TIP3      H1              9.7850737182      -28.9853651097       10.5631668953  W2        4308            0.0000000000
     12390      4130  TIP3      H2              9.0577237182      -30.2045451097       10.0373968953  W2        4308            0.0000000000
     12391      4131  TIP3      OH2             8.6290937182      -30.6741151097       14.1142768953  W2        4309            0.0000000000
     12392      4131  TIP3      H1              8.5908437182      -31.3204851097       14.8192368953  W2        4309            0.0000000000
     12393      4131  TIP3      H2              8.3067437182      -31.1406751097       13.3431468953  W2        4309            0.0000000000
     12394      4132  TIP3      OH2            12.3351137182      -27.7350751097       12.4157868953  W2        4311            0.0000000000
     12395      4132  TIP3      H1             11.8943837182      -28.4554751097       12.8663468953  W2        4311            0.0000000000
     12396      4132  TIP3      H2             12.3220837182      -27.0143551097       13.0455568953  W2        4311            0.0000000000
     12397      4133  TIP3      OH2             1.9209037182      -26.6100151097       14.2421768953  W2        4312            0.0000000000
     12398      4133  TIP3      H1              1.5514237182      -27.4119651097       13.8726068953  W2        4312            0.0000000000
     12399      4133  TIP3      H2              2.8620137182      -26.7785251097       14.2885168953  W2        4312            0.0000000000
     12400      4134  TIP3      OH2            -1.4690462818      -32.9497551097        9.6350568953  W2        4313            0.0000000000
     12401      4134  TIP3      H1             -1.9167062818      -32.1038851097        9.6167068953  W2        4313            0.0000000000
     12402      4134  TIP3      H2             -2.0299262818      -33.5293351097        9.1195668953  W2        4313            0.0000000000
     12403      4135  TIP3      OH2            -0.7584362818      -30.7877951097       11.7608568953  W2        4314            0.0000000000
     12404      4135  TIP3      H1             -0.5450862818      -31.5576351097       12.2881568953  W2        4314            0.0000000000
     12405      4135  TIP3      H2             -0.0206762818      -30.6981251097       11.1576168953  W2        4314            0.0000000000
     12406      4136  TIP3      OH2             9.4466637182      -22.6309051097       12.6278268953  W2        4315            0.0000000000
     12407      4136  TIP3      H1             10.0663037182      -23.3074351097       12.3547468953  W2        4315            0.0000000000
     12408      4136  TIP3      H2              9.2384037182      -22.8488251097       13.5363168953  W2        4315            0.0000000000
     12409      4137  TIP3      OH2             7.0185337182      -28.2419751097       14.5203768953  W2        4316            0.0000000000
     12410      4137  TIP3      H1              7.3223237182      -28.9278351097       13.9257868953  W2        4316            0.0000000000
     12411      4137  TIP3      H2              7.7399337182      -28.1231051097       15.1381768953  W2        4316            0.0000000000
     12412      4138  TIP3      OH2            10.1592337182      -33.8477351097       14.8478568953  W2        4318            0.0000000000
     12413      4138  TIP3      H1             10.3018237182      -34.7940351097       14.8680168953  W2        4318            0.0000000000
     12414      4138  TIP3      H2             10.0531337182      -33.6407551097       13.9193468953  W2        4318            0.0000000000
     12415      4139  TIP3      OH2             3.3140637182      -35.7460951097       12.1203368953  W2        4319            0.0000000000
     12416      4139  TIP3      H1              3.3571737182      -34.8862451097       11.7019668953  W2        4319            0.0000000000
     12417      4139  TIP3      H2              2.8564737182      -36.2986251097       11.4866568953  W2        4319            0.0000000000
     12418      4140  TIP3      OH2            11.0363337182      -35.6155351097       10.5211668953  W2        4320            0.0000000000
     12419      4140  TIP3      H1             11.6827637182      -35.9442151097       11.1459268953  W2        4320            0.0000000000
     12420      4140  TIP3      H2             11.5462737182      -35.0976351097        9.8983068953  W2        4320            0.0000000000
     12421      4141  TIP3      OH2            -0.0657862818      -33.3495151097       12.8824768953  W2        4321            0.0000000000
     12422      4141  TIP3      H1              0.5878737182      -33.8993451097       13.3144868953  W2        4321            0.0000000000
     12423      4141  TIP3      H2             -0.0418562818      -33.6236151097       11.9656768953  W2        4321            0.0000000000
     12424      4142  TIP3      OH2             5.0906637182      -31.7993851097       12.0976268953  W2        4322            0.0000000000
     12425      4142  TIP3      H1              5.7067637182      -32.3258451097       12.6070268953  W2        4322            0.0000000000
     12426      4142  TIP3      H2              4.5045437182      -32.4395151097       11.6939868953  W2        4322            0.0000000000
     12427      4143  TIP3      OH2             9.4932337182      -27.3281451097        9.7383268953  W2        4325            0.0000000000
     12428      4143  TIP3      H1              9.1977437182      -27.6509151097        8.8870168953  W2        4325            0.0000000000
     12429      4143  TIP3      H2              9.1690137182      -26.4284751097        9.7795868953  W2        4325            0.0000000000
     12430      4144  TIP3      OH2            12.8001737182      -36.3246051097       12.5017568953  W2        4327            0.0000000000
     12431      4144  TIP3      H1             12.5849737182      -37.0902651097       13.0343568953  W2        4327            0.0000000000
     12432      4144  TIP3      H2             13.4559137182      -35.8521451097       13.0146068953  W2        4327            0.0000000000
     12433      4145  TIP3      OH2             1.7179837182      -34.9360751097       14.1466368953  W2        4328            0.0000000000
     12434      4145  TIP3      H1              2.3316137182      -34.3033151097       14.5198768953  W2        4328            0.0000000000
     12435      4145  TIP3      H2              2.2300537182      -35.4085751097       13.4903268953  W2        4328            0.0000000000
     12436      4146  TIP3      OH2            -0.7780862818      -27.5175951097        8.0508668953  W2        4330            0.0000000000
     12437      4146  TIP3      H1             -1.0499962818      -27.2884951097        7.1621568953  W2        4330            0.0000000000
     12438      4146  TIP3      H2             -0.7325162818      -26.6797151097        8.5113968953  W2        4330            0.0000000000
     12439      4147  TIP3      OH2            12.8468837182      -25.8960051097       14.7637168953  W2        4331            0.0000000000
     12440      4147  TIP3      H1             11.9052537182      -25.8376151097       14.9254068953  W2        4331            0.0000000000
     12441      4147  TIP3      H2             13.1234937182      -24.9899551097       14.6266868953  W2        4331            0.0000000000
     12442      4148  TIP3      OH2             6.1507237182      -39.5227451097       13.6469068953  W2        4333            0.0000000000
     12443      4148  TIP3      H1              6.0331437182      -40.4711451097       13.5927368953  W2        4333            0.0000000000
     12444      4148  TIP3      H2              5.2957337182      -39.1901351097       13.9200168953  W2        4333            0.0000000000
     12445      4149  TIP3      OH2            11.0990037182      -24.1146551097       11.3888768953  W2        4334            0.0000000000
     12446      4149  TIP3      H1             11.5242337182      -24.8218651097       10.9038368953  W2        4334            0.0000000000
     12447      4149  TIP3      H2             11.4160037182      -23.3133851097       10.9720968953  W2        4334            0.0000000000
     12448      4150  TIP3      OH2            12.2586537182      -26.2138051097        9.8975368953  W2        4335            0.0000000000
     12449      4150  TIP3      H1             12.0011337182      -26.9037951097        9.2861268953  W2        4335            0.0000000000
     12450      4150  TIP3      H2             12.3297337182      -26.6566851097       10.7431268953  W2        4335            0.0000000000
     12451      4151  TIP3      OH2             8.4172137182      -30.6851851097        8.1474868953  W2        4337            0.0000000000
     12452      4151  TIP3      H1              7.7057637182      -30.1502151097        7.7955368953  W2        4337            0.0000000000
     12453      4151  TIP3      H2              9.1081737182      -30.6299751097        7.4873768953  W2        4337            0.0000000000
     12454      4152  TIP3      OH2             8.4711337182      -32.2277551097        5.1859868953  W2        4338            0.0000000000
     12455      4152  TIP3      H1              9.1721237182      -32.2050651097        5.8373868953  W2        4338            0.0000000000
     12456      4152  TIP3      H2              8.7734237182      -32.8557851097        4.5299168953  W2        4338            0.0000000000
     12457      4153  TIP3      OH2            11.8229837182      -30.4758551097        9.0990768953  W2        4340            0.0000000000
     12458      4153  TIP3      H1             11.0910837182      -30.2474851097        9.6721368953  W2        4340            0.0000000000
     12459      4153  TIP3      H2             12.2702037182      -31.1895851097        9.5538268953  W2        4340            0.0000000000
     12460      4154  TIP3      OH2             3.4683537182      -29.8452351097       10.9815768953  W2        4342            0.0000000000
     12461      4154  TIP3      H1              3.1378737182      -30.2158951097       10.1632768953  W2        4342            0.0000000000
     12462      4154  TIP3      H2              4.0567637182      -30.5158351097       11.3284068953  W2        4342            0.0000000000
     12463      4155  TIP3      OH2             4.8351037182      -26.4171751097       13.6627968953  W2        4343            0.0000000000
     12464      4155  TIP3      H1              4.7402337182      -26.9958651097       12.9062568953  W2        4343            0.0000000000
     12465      4155  TIP3      H2              5.5644637182      -26.7886051097       14.1590768953  W2        4343            0.0000000000
     12466      4156  TIP3      OH2             3.8349037182      -31.0766751097       14.6150768953  W2        4344            0.0000000000
     12467      4156  TIP3      H1              4.4001537182      -30.9552551097       13.8521968953  W2        4344            0.0000000000
     12468      4156  TIP3      H2              4.1537937182      -30.4391751097       15.2539268953  W2        4344            0.0000000000
     12469      4157  TIP3      OH2            10.6939337182      -31.3135651097        6.7841968953  W2        4347            0.0000000000
     12470      4157  TIP3      H1             11.2734837182      -31.1635351097        7.5310868953  W2        4347            0.0000000000
     12471      4157  TIP3      H2             11.1079337182      -30.8428251097        6.0608368953  W2        4347            0.0000000000
     12472      4158  TIP3      OH2             8.4204237182      -24.5767151097       10.2195068953  W2        4349            0.0000000000
     12473      4158  TIP3      H1              8.8941837182      -24.2810851097       10.9969268953  W2        4349            0.0000000000
     12474      4158  TIP3      H2              7.8573537182      -23.8385551097        9.9864668953  W2        4349            0.0000000000
     12475      4159  TIP3      OH2            14.3927737182      -39.5635251097        6.5971668953  W2        4351            0.0000000000
     12476      4159  TIP3      H1             13.4928437182      -39.4246251097        6.8922268953  W2        4351            0.0000000000
     12477      4159  TIP3      H2             14.6446137182      -38.7320651097        6.1953368953  W2        4351            0.0000000000
     12478      4160  TIP3      OH2             2.4586237182      -30.7758051097        8.5708568953  W2        4352            0.0000000000
     12479      4160  TIP3      H1              2.1667537182      -30.0076351097        8.0799868953  W2        4352            0.0000000000
     12480      4160  TIP3      H2              1.7841437182      -31.4351851097        8.4079968953  W2        4352            0.0000000000
     12481      4161  TIP3      OH2            15.5819137182      -25.1972851097        4.9735568953  W2        4353            0.0000000000
     12482      4161  TIP3      H1             15.6552637182      -24.2582651097        5.1440868953  W2        4353            0.0000000000
     12483      4161  TIP3      H2             16.4874237182      -25.5024251097        4.9172868953  W2        4353            0.0000000000
     12484      4162  TIP3      OH2            -1.6980962818      -25.6325051097       14.2698568953  W2        4355            0.0000000000
     12485      4162  TIP3      H1             -0.7520362818      -25.7768051097       14.2508068953  W2        4355            0.0000000000
     12486      4162  TIP3      H2             -1.8104662818      -24.8482251097       14.8069768953  W2        4355            0.0000000000
     12487      4163  TIP3      OH2             7.8927337182      -21.6202451097        8.6344268953  W2        4358            0.0000000000
     12488      4163  TIP3      H1              7.8173337182      -21.7415251097        7.6879468953  W2        4358            0.0000000000
     12489      4163  TIP3      H2              7.9256037182      -20.6709751097        8.7528868953  W2        4358            0.0000000000
     12490      4164  TIP3      OH2             1.5461137182      -22.8315451097       10.4153268953  W2        4359            0.0000000000
     12491      4164  TIP3      H1              1.6981537182      -23.1795051097       11.2939768953  W2        4359            0.0000000000
     12492      4164  TIP3      H2              0.6951537182      -23.1878151097       10.1600468953  W2        4359            0.0000000000
     12493      4165  TIP3      OH2            10.9943337182      -22.4662251097        5.6366668953  W2        4360            0.0000000000
     12494      4165  TIP3      H1             11.3691737182      -23.2106151097        5.1659268953  W2        4360            0.0000000000
     12495      4165  TIP3      H2             10.9987037182      -22.7361651097        6.5549968953  W2        4360            0.0000000000
     12496      4166  TIP3      OH2            10.6631437182      -22.5405151097        8.3858868953  W2        4361            0.0000000000
     12497      4166  TIP3      H1              9.7281237182      -22.4403251097        8.5645868953  W2        4361            0.0000000000
     12498      4166  TIP3      H2             10.9433337182      -23.2499151097        8.9642068953  W2        4361            0.0000000000
     12499      4167  TIP3      OH2             3.4194837182      -38.6192951097       14.4245368953  W2        4364            0.0000000000
     12500      4167  TIP3      H1              2.5578537182      -38.7064751097       14.0168268953  W2        4364            0.0000000000
     12501      4167  TIP3      H2              3.3970537182      -37.7632851097       14.8522968953  W2        4364            0.0000000000
     12502      4168  TIP3      OH2            12.1712437182      -30.2807351097        4.4139868953  W2        4367            0.0000000000
     12503      4168  TIP3      H1             12.2133237182      -30.5033451097        3.4839868953  W2        4367            0.0000000000
     12504      4168  TIP3      H2             13.0204537182      -29.8820251097        4.6039768953  W2        4367            0.0000000000
     12505      4169  TIP3      OH2             7.7439937182      -36.4049151097        5.0843168953  W2        4368            0.0000000000
     12506      4169  TIP3      H1              7.4904737182      -36.3857551097        6.0071268953  W2        4368            0.0000000000
     12507      4169  TIP3      H2              7.4872037182      -37.2763751097        4.7829368953  W2        4368            0.0000000000
     12508      4170  TIP3      OH2             3.5074037182      -33.4328351097       10.4315568953  W2        4370            0.0000000000
     12509      4170  TIP3      H1              2.6146937182      -33.7732251097       10.3729368953  W2        4370            0.0000000000
     12510      4170  TIP3      H2              3.9580637182      -33.8097451097        9.6758768953  W2        4370            0.0000000000
     12511      4171  TIP3      OH2             9.0429537182      -33.0168051097        9.2486368953  W2        4371            0.0000000000
     12512      4171  TIP3      H1              8.6339837182      -32.2019451097        8.9571168953  W2        4371            0.0000000000
     12513      4171  TIP3      H2              9.7635737182      -33.1567951097        8.6343468953  W2        4371            0.0000000000
     12514      4172  TIP3      OH2            10.0477237182      -33.5707651097       12.0626068953  W2        4373            0.0000000000
     12515      4172  TIP3      H1              9.8521737182      -32.9650851097       11.3476668953  W2        4373            0.0000000000
     12516      4172  TIP3      H2             10.2289837182      -34.4042451097       11.6282368953  W2        4373            0.0000000000
     12517      4173  TIP3      OH2             4.6262837182      -35.9592651097        4.1853568953  W2        4375            0.0000000000
     12518      4173  TIP3      H1              4.1953537182      -36.4042551097        4.9150968953  W2        4375            0.0000000000
     12519      4173  TIP3      H2              3.9081537182      -35.5876351097        3.6731068953  W2        4375            0.0000000000
     12520      4174  TIP3      OH2            -2.1313762818      -36.2173151097       11.2372268953  W2        4376            0.0000000000
     12521      4174  TIP3      H1             -1.5006062818      -36.2461051097       11.9566168953  W2        4376            0.0000000000
     12522      4174  TIP3      H2             -1.6819462818      -36.6424451097       10.5068168953  W2        4376            0.0000000000
     12523      4175  TIP3      OH2            -0.8571662818      -35.4711151097        6.6612668953  W2        4377            0.0000000000
     12524      4175  TIP3      H1             -0.3829962818      -34.8801251097        6.0763568953  W2        4377            0.0000000000
     12525      4175  TIP3      H2             -1.5745262818      -34.9408251097        7.0082768953  W2        4377            0.0000000000
     12526      4176  TIP3      OH2             6.0889337182      -36.0050851097       11.5179668953  W2        4379            0.0000000000
     12527      4176  TIP3      H1              5.1780437182      -35.9484051097       11.8065668953  W2        4379            0.0000000000
     12528      4176  TIP3      H2              6.5942237182      -36.0655351097       12.3286868953  W2        4379            0.0000000000
     12529      4177  TIP3      OH2             0.9172737182      -34.3764551097       10.3447268953  W2        4380            0.0000000000
     12530      4177  TIP3      H1              0.0280737182      -34.2769051097       10.0046868953  W2        4380            0.0000000000
     12531      4177  TIP3      H2              1.2137637182      -35.2181551097        9.9985168953  W2        4380            0.0000000000
     12532      4178  TIP3      OH2             4.5704537182      -34.3761951097        8.0011868953  W2        4381            0.0000000000
     12533      4178  TIP3      H1              5.5020037182      -34.2471951097        8.1794968953  W2        4381            0.0000000000
     12534      4178  TIP3      H2              4.3554837182      -33.7067651097        7.3516568953  W2        4381            0.0000000000
     12535      4179  TIP3      OH2            10.4941237182      -36.7704551097       14.7821468953  W2        4382            0.0000000000
     12536      4179  TIP3      H1              9.8172837182      -36.6391451097       15.4461168953  W2        4382            0.0000000000
     12537      4179  TIP3      H2             10.0086137182      -36.9255051097       13.9719168953  W2        4382            0.0000000000
     12538      4180  TIP3      OH2             3.2444737182      -33.1819751097        5.5677968953  W2        4383            0.0000000000
     12539      4180  TIP3      H1              2.7019837182      -33.5615951097        4.8765568953  W2        4383            0.0000000000
     12540      4180  TIP3      H2              4.0779637182      -32.9875051097        5.1392068953  W2        4383            0.0000000000
     12541      4181  TIP3      OH2             7.4089037182      -33.2177851097       13.4049268953  W2        4386            0.0000000000
     12542      4181  TIP3      H1              7.9732437182      -33.7641251097       12.8578868953  W2        4386            0.0000000000
     12543      4181  TIP3      H2              7.2612437182      -33.7395951097       14.1936868953  W2        4386            0.0000000000
     12544      4182  TIP3      OH2             2.4108737182      -37.0811751097        9.8234068953  W2        4387            0.0000000000
     12545      4182  TIP3      H1              2.0938237182      -37.9836451097        9.7879468953  W2        4387            0.0000000000
     12546      4182  TIP3      H2              3.1922837182      -37.0794351097        9.2705668953  W2        4387            0.0000000000
     12547      4183  TIP3      OH2             6.5797537182      -28.6164051097        7.5036068953  W2        4389            0.0000000000
     12548      4183  TIP3      H1              5.8348537182      -29.1238751097        7.1813968953  W2        4389            0.0000000000
     12549      4183  TIP3      H2              6.4454737182      -28.5676051097        8.4500868953  W2        4389            0.0000000000
     12550      4184  TIP3      OH2            10.4774337182      -35.8024151097        5.7028668953  W2        4391            0.0000000000
     12551      4184  TIP3      H1              9.5388537182      -35.6908551097        5.5517468953  W2        4391            0.0000000000
     12552      4184  TIP3      H2             10.7746437182      -34.9457251097        6.0094368953  W2        4391            0.0000000000
     12553      4185  TIP3      OH2            11.1957837182      -33.9351451097        7.3636068953  W2        4393            0.0000000000
     12554      4185  TIP3      H1             12.0876837182      -34.0726451097        7.6827268953  W2        4393            0.0000000000
     12555      4185  TIP3      H2             11.2521437182      -33.1445351097        6.8269568953  W2        4393            0.0000000000
     12556      4186  TIP3      OH2             1.7045837182      -29.3214051097       13.2733968953  W2        4394            0.0000000000
     12557      4186  TIP3      H1              2.4493037182      -29.3238351097       12.6720468953  W2        4394            0.0000000000
     12558      4186  TIP3      H2              1.7822437182      -30.1450251097       13.7549068953  W2        4394            0.0000000000
     12559      4187  TIP3      OH2             8.7051637182      -27.1579751097        6.5290668953  W2        4395            0.0000000000
     12560      4187  TIP3      H1              8.4100037182      -26.3311851097        6.9105468953  W2        4395            0.0000000000
     12561      4187  TIP3      H2              8.0021637182      -27.7772851097        6.7252068953  W2        4395            0.0000000000
     12562      4188  TIP3      OH2            16.0806537182      -33.7257351097        7.0582768953  W2        4399            0.0000000000
     12563      4188  TIP3      H1             15.5262837182      -34.1219351097        6.3860268953  W2        4399            0.0000000000
     12564      4188  TIP3      H2             16.1810137182      -32.8152151097        6.7806068953  W2        4399            0.0000000000
     12565      4189  TIP3      OH2            14.3758237182      -24.9396951097        7.5234868953  W2        4401            0.0000000000
     12566      4189  TIP3      H1             14.0029337182      -25.7653151097        7.8325468953  W2        4401            0.0000000000
     12567      4189  TIP3      H2             14.6531737182      -25.1227551097        6.6258268953  W2        4401            0.0000000000
     12568      4190  TIP3      OH2            11.5362137182      -30.1317451097       14.5446768953  W2        4402            0.0000000000
     12569      4190  TIP3      H1             10.6079037182      -30.3635551097       14.5176068953  W2        4402            0.0000000000
     12570      4190  TIP3      H2             11.9873237182      -30.9087651097       14.2145568953  W2        4402            0.0000000000
     12571      4191  TIP3      OH2             4.0795237182      -25.8035851097       10.6775468953  W2        4403            0.0000000000
     12572      4191  TIP3      H1              4.6067437182      -25.0301451097       10.4774268953  W2        4403            0.0000000000
     12573      4191  TIP3      H2              3.1993737182      -25.5786651097       10.3759468953  W2        4403            0.0000000000
     12574      4192  TIP3      OH2            -0.1657062818      -30.9411751097        5.2647868953  W2        4404            0.0000000000
     12575      4192  TIP3      H1              0.4502837182      -30.3144551097        5.6442668953  W2        4404            0.0000000000
     12576      4192  TIP3      H2             -1.0274462818      -30.6251951097        5.5364368953  W2        4404            0.0000000000
     12577      4193  TIP3      OH2             5.5067537182      -28.1405951097       10.2539768953  W2        4405            0.0000000000
     12578      4193  TIP3      H1              5.2657537182      -27.2151551097       10.2955068953  W2        4405            0.0000000000
     12579      4193  TIP3      H2              4.7661137182      -28.5994651097       10.6503668953  W2        4405            0.0000000000
     12580      4194  TIP3      OH2             4.1898337182      -23.1188351097        9.7991968953  W2        4407            0.0000000000
     12581      4194  TIP3      H1              3.2398837182      -23.0130951097        9.8505268953  W2        4407            0.0000000000
     12582      4194  TIP3      H2              4.5416437182      -22.2980951097       10.1439468953  W2        4407            0.0000000000
     12583      4195  TIP3      OH2            11.7683837182      -26.9631151097        5.3435468953  W2        4409            0.0000000000
     12584      4195  TIP3      H1             12.1216937182      -27.3431351097        6.1478968953  W2        4409            0.0000000000
     12585      4195  TIP3      H2             10.8197337182      -27.0566351097        5.4304768953  W2        4409            0.0000000000
     12586      4196  TIP3      OH2            16.2718237182      -22.4838651097        5.5445668953  W2        4411            0.0000000000
     12587      4196  TIP3      H1             17.0156137182      -21.8978151097        5.4047268953  W2        4411            0.0000000000
     12588      4196  TIP3      H2             15.5776337182      -21.9152851097        5.8778068953  W2        4411            0.0000000000
     12589      4197  TIP3      OH2            12.6343137182      -28.2909151097        7.5703368953  W2        4413            0.0000000000
     12590      4197  TIP3      H1             12.3570737182      -29.0189851097        8.1264468953  W2        4413            0.0000000000
     12591      4197  TIP3      H2             13.5616137182      -28.1717151097        7.7755968953  W2        4413            0.0000000000
     12592      4198  TIP3      OH2             5.8591637182      -25.8515051097        3.7905468953  W2        4415            0.0000000000
     12593      4198  TIP3      H1              6.0981437182      -26.5996951097        3.2434368953  W2        4415            0.0000000000
     12594      4198  TIP3      H2              5.5902937182      -26.2393351097        4.6233268953  W2        4415            0.0000000000
     12595      4199  TIP3      OH2             4.7962237182      -26.2811251097        6.2468068953  W2        4416            0.0000000000
     12596      4199  TIP3      H1              4.9430237182      -26.8011451097        7.0368968953  W2        4416            0.0000000000
     12597      4199  TIP3      H2              4.7933937182      -25.3743651097        6.5533968953  W2        4416            0.0000000000
     12598      4200  TIP3      OH2             1.2493337182      -29.0287951097        6.7573468953  W2        4417            0.0000000000
     12599      4200  TIP3      H1              0.5632637182      -28.6765451097        7.3243168953  W2        4417            0.0000000000
     12600      4200  TIP3      H2              1.7721237182      -28.2658351097        6.5107768953  W2        4417            0.0000000000
     12601      4201  TIP3      OH2             9.8653337182      -36.7142451097        8.1334768953  W2        4419            0.0000000000
     12602      4201  TIP3      H1             10.0851637182      -36.2427051097        7.3300168953  W2        4419            0.0000000000
     12603      4201  TIP3      H2             10.4237337182      -36.3199851097        8.8035368953  W2        4419            0.0000000000
     12604      4202  TIP3      OH2             7.5339437182      -24.5837651097        6.9962268953  W2        4420            0.0000000000
     12605      4202  TIP3      H1              6.7175537182      -24.0867951097        7.0486568953  W2        4420            0.0000000000
     12606      4202  TIP3      H2              8.0635737182      -24.1084151097        6.3561068953  W2        4420            0.0000000000
     12607      4203  TIP3      OH2             7.0653237182      -34.9863651097        8.9683168953  W2        4421            0.0000000000
     12608      4203  TIP3      H1              7.8775837182      -34.4820451097        9.0144868953  W2        4421            0.0000000000
     12609      4203  TIP3      H2              6.8206237182      -35.1313951097        9.8822768953  W2        4421            0.0000000000
     12610      4204  TIP3      OH2             7.9489937182      -37.9050651097        9.9064268953  W2        4423            0.0000000000
     12611      4204  TIP3      H1              7.6023437182      -37.2880051097       10.5508568953  W2        4423            0.0000000000
     12612      4204  TIP3      H2              8.6076837182      -37.4044951097        9.4249768953  W2        4423            0.0000000000
     12613      4205  TIP3      OH2             4.8722537182      -23.5400451097        6.9779168953  W2        4424            0.0000000000
     12614      4205  TIP3      H1              5.0331237182      -22.7402951097        6.4771768953  W2        4424            0.0000000000
     12615      4205  TIP3      H2              4.6750337182      -23.2334451097        7.8629768953  W2        4424            0.0000000000
     12616      4206  TIP3      OH2             3.6066937182      -36.8421251097        6.5936768953  W2        4425            0.0000000000
     12617      4206  TIP3      H1              3.5231737182      -35.9538151097        6.9403168953  W2        4425            0.0000000000
     12618      4206  TIP3      H2              4.4967237182      -37.1074551097        6.8253568953  W2        4425            0.0000000000
     12619      4207  TIP3      OH2            12.4076437182      -32.3429651097       13.0836768953  W2        4427            0.0000000000
     12620      4207  TIP3      H1             11.6100837182      -32.7579451097       12.7551768953  W2        4427            0.0000000000
     12621      4207  TIP3      H2             12.8527537182      -33.0335951097       13.5747268953  W2        4427            0.0000000000
     12622      4208  TIP3      OH2             1.8652237182      -26.4149051097        5.6541268953  W2        4428            0.0000000000
     12623      4208  TIP3      H1              2.4573737182      -25.7154251097        5.9303668953  W2        4428            0.0000000000
     12624      4208  TIP3      H2              2.3245237182      -26.8479551097        4.9345868953  W2        4428            0.0000000000
     12625      4209  TIP3      OH2             0.1811437182      -33.7506051097        4.7700668953  W2        4429            0.0000000000
     12626      4209  TIP3      H1              0.1364037182      -32.8112951097        4.9487668953  W2        4429            0.0000000000
     12627      4209  TIP3      H2             -0.7065362818      -33.9861151097        4.5002768953  W2        4429            0.0000000000
     12628      4210  TIP3      OH2            13.4941037182      -23.0867151097       14.7060268953  W2        4430            0.0000000000
     12629      4210  TIP3      H1             13.3385337182      -22.4082751097       14.0489568953  W2        4430            0.0000000000
     12630      4210  TIP3      H2             14.4267437182      -23.0147851097       14.9090868953  W2        4430            0.0000000000
     12631      4211  TIP3      OH2             0.9893437182      -38.9689451097       13.4431668953  W2        4431            0.0000000000
     12632      4211  TIP3      H1              0.7603237182      -38.9096951097       12.5156668953  W2        4431            0.0000000000
     12633      4211  TIP3      H2              0.5466837182      -39.7603951097       13.7495768953  W2        4431            0.0000000000
     12634      4212  TIP3      OH2            -0.0803262818      -25.0282351097        9.6037468953  W2        4432            0.0000000000
     12635      4212  TIP3      H1             -0.9124662818      -24.5559651097        9.6308868953  W2        4432            0.0000000000
     12636      4212  TIP3      H2              0.4655037182      -24.5184751097        9.0050568953  W2        4432            0.0000000000
     12637      4213  TIP3      OH2             7.8973437182      -23.9883651097        3.9291468953  W2        4435            0.0000000000
     12638      4213  TIP3      H1              7.2534437182      -24.6195051097        4.2505168953  W2        4435            0.0000000000
     12639      4213  TIP3      H2              8.6591737182      -24.5195651097        3.6974968953  W2        4435            0.0000000000
     12640      4214  TIP3      OH2            12.5016337182      -24.1713751097        4.1629468953  W2        4437            0.0000000000
     12641      4214  TIP3      H1             12.7846737182      -24.9658551097        4.6156368953  W2        4437            0.0000000000
     12642      4214  TIP3      H2             13.2414237182      -23.9382751097        3.6020568953  W2        4437            0.0000000000
     12643      4215  TIP3      OH2             3.4563637182      -28.2618851097        4.0204368953  W2        4439            0.0000000000
     12644      4215  TIP3      H1              3.5207737182      -29.0559251097        4.5510768953  W2        4439            0.0000000000
     12645      4215  TIP3      H2              4.1092837182      -28.3806051097        3.3306368953  W2        4439            0.0000000000
     12646      4216  TIP3      OH2             8.8087037182      -27.2147151097        3.7562368953  W2        4441            0.0000000000
     12647      4216  TIP3      H1              8.5401137182      -27.0345051097        4.6571268953  W2        4441            0.0000000000
     12648      4216  TIP3      H2              8.6022637182      -28.1400951097        3.6248168953  W2        4441            0.0000000000
     12649      4217  TIP3      OH2             4.6057437182      -30.2892651097        6.3262368953  W2        4444            0.0000000000
     12650      4217  TIP3      H1              4.1459437182      -30.7734351097        7.0120868953  W2        4444            0.0000000000
     12651      4217  TIP3      H2              4.8606137182      -30.9577251097        5.6902868953  W2        4444            0.0000000000
     12652      4218  TIP3      OH2             5.6767837182      -32.0460851097        4.5885568953  W2        4446            0.0000000000
     12653      4218  TIP3      H1              5.4962837182      -32.2009651097        3.6613868953  W2        4446            0.0000000000
     12654      4218  TIP3      H2              6.6268337182      -31.9382151097        4.6333468953  W2        4446            0.0000000000
     12655      4219  TIP3      OH2            15.0666137182      -29.6916651097        4.0343668953  W2        4448            0.0000000000
     12656      4219  TIP3      H1             14.7930937182      -30.1161151097        3.2211968953  W2        4448            0.0000000000
     12657      4219  TIP3      H2             15.1060237182      -28.7602151097        3.8174068953  W2        4448            0.0000000000
     12658      4220  TIP3      OH2             5.5739537182      -21.3557151097        5.5899168953  W2        4462            0.0000000000
     12659      4220  TIP3      H1              6.5070237182      -21.1978451097        5.7337568953  W2        4462            0.0000000000
     12660      4220  TIP3      H2              5.3098337182      -20.6804151097        4.9650668953  W2        4462            0.0000000000
     12661      4221  TIP3      OH2            -0.8575562818      -26.7193351097        5.0727268953  W2        4463            0.0000000000
     12662      4221  TIP3      H1              0.0563637182      -26.6404451097        5.3461168953  W2        4463            0.0000000000
     12663      4221  TIP3      H2             -0.8502462818      -27.4063751097        4.4062868953  W2        4463            0.0000000000
     12664      4222  TIP3      OH2            -2.2084962818      -21.3264851097       10.1501168953  W2        4464            0.0000000000
     12665      4222  TIP3      H1             -2.8557862818      -21.7883151097        9.6172368953  W2        4464            0.0000000000
     12666      4222  TIP3      H2             -1.8540362818      -21.9981551097       10.7327368953  W2        4464            0.0000000000
     12667      4223  TIP3      OH2            -1.3385762818      -23.2457851097       11.9547368953  W2        4465            0.0000000000
     12668      4223  TIP3      H1             -1.6728962818      -24.1260551097       12.1267568953  W2        4465            0.0000000000
     12669      4223  TIP3      H2             -1.1163362818      -22.9002851097       12.8192968953  W2        4465            0.0000000000
     12670      4224  TIP3      OH2            15.5248937182      -28.8228551097        8.0094068953  W2        4469            0.0000000000
     12671      4224  TIP3      H1             16.3750337182      -28.4017651097        8.1365668953  W2        4469            0.0000000000
     12672      4224  TIP3      H2             15.5304037182      -29.5628451097        8.6165468953  W2        4469            0.0000000000
     12673      4225  TIP3      OH2            15.9194537182      -30.7691151097        9.8329768953  W2        4470            0.0000000000
     12674      4225  TIP3      H1             15.1929137182      -31.2488551097       10.2307368953  W2        4470            0.0000000000
     12675      4225  TIP3      H2             16.5007837182      -30.5636451097       10.5651368953  W2        4470            0.0000000000
     12676      4226  TIP3      OH2            15.6785737182      -27.9843651097       14.7807368953  W2        4471            0.0000000000
     12677      4226  TIP3      H1             16.5119937182      -28.3623651097       14.5000968953  W2        4471            0.0000000000
     12678      4226  TIP3      H2             15.7906037182      -27.0412451097       14.6616468953  W2        4471            0.0000000000
     12679      4227  TIP3      OH2            16.1877637182      -30.8682651097        6.2241068953  W2        4473            0.0000000000
     12680      4227  TIP3      H1             15.6658737182      -30.5118551097        5.5051968953  W2        4473            0.0000000000
     12681      4227  TIP3      H2             16.1546837182      -30.1934851097        6.9021968953  W2        4473            0.0000000000
     12682      4228  TIP3      OH2            14.5366637182      -33.6287051097        4.7748168953  W2        4474            0.0000000000
     12683      4228  TIP3      H1             14.6331037182      -32.9620051097        4.0947868953  W2        4474            0.0000000000
     12684      4228  TIP3      H2             14.3966237182      -34.4440751097        4.2933668953  W2        4474            0.0000000000
     12685      4229  TIP3      OH2            13.7061337182      -32.2484651097       10.3958468953  W2        4475            0.0000000000
     12686      4229  TIP3      H1             13.5560137182      -33.1936051097       10.3756268953  W2        4475            0.0000000000
     12687      4229  TIP3      H2             13.3525837182      -31.9673251097       11.2397568953  W2        4475            0.0000000000
     12688      4230  TIP3      OH2            -1.2586262818      -30.1702451097       14.4062268953  W2        4476            0.0000000000
     12689      4230  TIP3      H1             -1.0743362818      -30.2520751097       13.4705168953  W2        4476            0.0000000000
     12690      4230  TIP3      H2             -0.4093362818      -30.2945451097       14.8298668953  W2        4476            0.0000000000
     12691      4231  TIP3      OH2            13.7840437182      -36.2207251097        3.8923668953  W2        4479            0.0000000000
     12692      4231  TIP3      H1             14.3946237182      -36.5920451097        4.5291868953  W2        4479            0.0000000000
     12693      4231  TIP3      H2             12.9471937182      -36.6420351097        4.0883668953  W2        4479            0.0000000000
     12694      4232  TIP3      OH2            13.4166137182      -34.6658851097        8.8583568953  W2        4480            0.0000000000
     12695      4232  TIP3      H1             13.6963237182      -35.5728451097        8.9825268953  W2        4480            0.0000000000
     12696      4232  TIP3      H2             14.1757837182      -34.2317351097        8.4692768953  W2        4480            0.0000000000
     12697      4233  TIP3      OH2            14.0284437182      -34.0841451097       14.2942468953  W2        4481            0.0000000000
     12698      4233  TIP3      H1             14.9612437182      -33.8721551097       14.2598468953  W2        4481            0.0000000000
     12699      4233  TIP3      H2             13.7931937182      -33.9829351097       15.2165468953  W2        4481            0.0000000000
     12700      4234  TIP3      OH2            14.0300937182      -37.4029551097        8.9065568953  W2        4485            0.0000000000
     12701      4234  TIP3      H1             14.2125937182      -37.8518051097        9.7320568953  W2        4485            0.0000000000
     12702      4234  TIP3      H2             13.4303837182      -37.9875151097        8.4430168953  W2        4485            0.0000000000
     12703      4235  TIP3      OH2            -0.4398962818      -36.5875851097       13.4383968953  W2        4486            0.0000000000
     12704      4235  TIP3      H1              0.0052637182      -37.3793351097       13.7403668953  W2        4486            0.0000000000
     12705      4235  TIP3      H2              0.0264037182      -35.8710651097       13.8689568953  W2        4486            0.0000000000
     12706      4236  TIP3      OH2            -2.1358662818      -33.5882851097       14.5074168953  W2        4487            0.0000000000
     12707      4236  TIP3      H1             -1.6438862818      -33.8092351097       13.7166168953  W2        4487            0.0000000000
     12708      4236  TIP3      H2             -1.7737762818      -32.7479451097       14.7883668953  W2        4487            0.0000000000
     12709      4237  TIP3      OH2            15.8967137182      -37.3351451097        5.4345868953  W2        4489            0.0000000000
     12710      4237  TIP3      H1             16.3089737182      -38.0565751097        4.9593868953  W2        4489            0.0000000000
     12711      4237  TIP3      H2             16.5783637182      -36.6656851097        5.4930168953  W2        4489            0.0000000000
     12712      4238  TIP3      OH2            -1.8222162818      -37.3303751097        8.5616568953  W2        4490            0.0000000000
     12713      4238  TIP3      H1             -2.7473762818      -37.1217151097        8.4322068953  W2        4490            0.0000000000
     12714      4238  TIP3      H2             -1.3682262818      -36.8462951097        7.8718868953  W2        4490            0.0000000000
     12715      4239  TIP3      OH2            12.9485037182      -22.3462051097       10.5073968953  W2        4491            0.0000000000
     12716      4239  TIP3      H1             13.6007937182      -22.6939951097        9.8993068953  W2        4491            0.0000000000
     12717      4239  TIP3      H2             13.4588837182      -21.8578851097       11.1533668953  W2        4491            0.0000000000
     12718      4240  TIP3      OH2             0.1040237182      -22.5633051097       14.2665968953  W2        4503            0.0000000000
     12719      4240  TIP3      H1              0.0856237182      -22.9887951097       15.1238268953  W2        4503            0.0000000000
     12720      4240  TIP3      H2              0.9088137182      -22.8818051097       13.8578168953  W2        4503            0.0000000000
     12721      4241  TIP3      OH2             2.2453337182      -23.8534351097       12.9215868953  W2        4504            0.0000000000
     12722      4241  TIP3      H1              2.0264037182      -24.7696951097       13.0911868953  W2        4504            0.0000000000
     12723      4241  TIP3      H2              3.0695537182      -23.7133951097       13.3877268953  W2        4504            0.0000000000
     12724      4242  TIP3      OH2             4.7825837182      -23.3835051097       13.7703868953  W2        4505            0.0000000000
     12725      4242  TIP3      H1              4.9951537182      -24.2716051097       13.4834768953  W2        4505            0.0000000000
     12726      4242  TIP3      H2              4.8470937182      -23.4177351097       14.7247868953  W2        4505            0.0000000000
     12727      4243  TIP3      OH2             8.2909537182      -37.7194451097       12.9147168953  W2        4506            0.0000000000
     12728      4243  TIP3      H1              7.6166337182      -38.3488851097       13.1702968953  W2        4506            0.0000000000
     12729      4243  TIP3      H2              8.8548737182      -38.2035551097       12.3115068953  W2        4506            0.0000000000
     12730      4244  TIP3      OH2            13.4336737182      -39.6120451097       13.0274268953  W2        4507            0.0000000000
     12731      4244  TIP3      H1             14.0374337182      -39.0645051097       12.5255268953  W2        4507            0.0000000000
     12732      4244  TIP3      H2             12.5638737182      -39.2930051097       12.7868368953  W2        4507            0.0000000000
     12733      4245  TIP3      OH2            15.1607137182      -38.4731751097       11.3605168953  W2        4508            0.0000000000
     12734      4245  TIP3      H1             15.7724637182      -38.9876051097       10.8338768953  W2        4508            0.0000000000
     12735      4245  TIP3      H2             15.5430537182      -37.5959651097       11.3839568953  W2        4508            0.0000000000
     12736      4246  TIP3      OH2             0.6177037182      -39.0854151097       10.7367068953  W2        4509            0.0000000000
     12737      4246  TIP3      H1             -0.1593162818      -39.3199251097       10.2292968953  W2        4509            0.0000000000
     12738      4246  TIP3      H2              1.1480637182      -39.8822051097       10.7455068953  W2        4509            0.0000000000
     12739      4247  TIP3      OH2            -0.5459562818      -39.2876051097        6.5403168953  W2        4510            0.0000000000
     12740      4247  TIP3      H1             -0.1068862818      -38.6765551097        5.9486668953  W2        4510            0.0000000000
     12741      4247  TIP3      H2             -1.1797162818      -38.7491951097        7.0143168953  W2        4510            0.0000000000
     12742      4248  TIP3      OH2             5.1969637182      -39.1587051097       10.5500168953  W2        4511            0.0000000000
     12743      4248  TIP3      H1              6.0713037182      -38.7702751097       10.5204468953  W2        4511            0.0000000000
     12744      4248  TIP3      H2              5.0610437182      -39.3739251097       11.4727368953  W2        4511            0.0000000000
     12745      4249  TIP3      OH2            10.7538037182      -39.1287251097       12.1991868953  W2        4512            0.0000000000
     12746      4249  TIP3      H1             10.8299637182      -39.0335651097       11.2497868953  W2        4512            0.0000000000
     12747      4249  TIP3      H2             10.4787237182      -40.0364351097       12.3280968953  W2        4512            0.0000000000
     12748      4250  TIP3      OH2            12.1070637182      -39.1029451097        7.8916868953  W2        4513            0.0000000000
     12749      4250  TIP3      H1             11.4041737182      -38.4880251097        7.6818268953  W2        4513            0.0000000000
     12750      4250  TIP3      H2             11.6622037182      -39.9402751097        8.0227768953  W2        4513            0.0000000000
     12751      4251  TIP3      OH2            -0.6450062818      -23.3393851097        7.4378268953  W2        4514            0.0000000000
     12752      4251  TIP3      H1             -1.3300162818      -23.3774951097        6.7703368953  W2        4514            0.0000000000
     12753      4251  TIP3      H2             -0.6412862818      -22.4266251097        7.7260368953  W2        4514            0.0000000000
     12754      4252  TIP3      OH2             1.3149537182      -37.3714551097        4.9827268953  W2        4515            0.0000000000
     12755      4252  TIP3      H1              1.8062937182      -38.0012151097        4.4552768953  W2        4515            0.0000000000
     12756      4252  TIP3      H2              1.9385837182      -37.0755151097        5.6458468953  W2        4515            0.0000000000
     12757      4253  TIP3      OH2             6.3409637182      -37.0783051097        7.4397768953  W2        4516            0.0000000000
     12758      4253  TIP3      H1              6.5190937182      -37.7249851097        8.1226368953  W2        4516            0.0000000000
     12759      4253  TIP3      H2              6.2875837182      -36.2445351097        7.9068868953  W2        4516            0.0000000000
     12760      4254  TIP3      OH2             8.2193437182      -22.1298951097        5.8354468953  W2        4517            0.0000000000
     12761      4254  TIP3      H1              9.0853637182      -21.7631551097        5.6572668953  W2        4517            0.0000000000
     12762      4254  TIP3      H2              7.9726237182      -22.5690951097        5.0215268953  W2        4517            0.0000000000
     12763      4255  TIP3      OH2            14.9283037182      -22.5668651097        8.5145568953  W2        4518            0.0000000000
     12764      4255  TIP3      H1             14.7340137182      -23.3146551097        7.9495168953  W2        4518            0.0000000000
     12765      4255  TIP3      H2             14.8893137182      -21.8088551097        7.9313468953  W2        4518            0.0000000000
     12766      4256  TIP3      OH2             1.1731137182      -22.4193051097        4.4630368953  W2        4521            0.0000000000
     12767      4256  TIP3      H1              0.9055737182      -22.1330151097        5.3363468953  W2        4521            0.0000000000
     12768      4256  TIP3      H2              1.9443737182      -22.9653851097        4.6152868953  W2        4521            0.0000000000
     12769      4257  TIP3      OH2            28.5519637182      -29.9291851097       10.6954568953  W2        4524            0.0000000000
     12770      4257  TIP3      H1             28.6410737182      -28.9853651097       10.5631668953  W2        4524            0.0000000000
     12771      4257  TIP3      H2             27.9137237182      -30.2045451097       10.0373968953  W2        4524            0.0000000000
     12772      4258  TIP3      OH2            27.4850937182      -30.6741151097       14.1142768953  W2        4525            0.0000000000
     12773      4258  TIP3      H1             27.4468437182      -31.3204851097       14.8192368953  W2        4525            0.0000000000
     12774      4258  TIP3      H2             27.1627437182      -31.1406751097       13.3431468953  W2        4525            0.0000000000
     12775      4259  TIP3      OH2            31.1911137182      -27.7350751097       12.4157868953  W2        4527            0.0000000000
     12776      4259  TIP3      H1             30.7503837182      -28.4554751097       12.8663468953  W2        4527            0.0000000000
     12777      4259  TIP3      H2             31.1780837182      -27.0143551097       13.0455568953  W2        4527            0.0000000000
     12778      4260  TIP3      OH2            20.7769037182      -26.6100151097       14.2421768953  W2        4528            0.0000000000
     12779      4260  TIP3      H1             20.4074237182      -27.4119651097       13.8726068953  W2        4528            0.0000000000
     12780      4260  TIP3      H2             21.7180137182      -26.7785251097       14.2885168953  W2        4528            0.0000000000
     12781      4261  TIP3      OH2            17.3869537182      -32.9497551097        9.6350568953  W2        4529            0.0000000000
     12782      4261  TIP3      H1             16.9392937182      -32.1038851097        9.6167068953  W2        4529            0.0000000000
     12783      4261  TIP3      H2             16.8260737182      -33.5293351097        9.1195668953  W2        4529            0.0000000000
     12784      4262  TIP3      OH2            18.0975637182      -30.7877951097       11.7608568953  W2        4530            0.0000000000
     12785      4262  TIP3      H1             18.3109137182      -31.5576351097       12.2881568953  W2        4530            0.0000000000
     12786      4262  TIP3      H2             18.8353237182      -30.6981251097       11.1576168953  W2        4530            0.0000000000
     12787      4263  TIP3      OH2            28.3026637182      -22.6309051097       12.6278268953  W2        4531            0.0000000000
     12788      4263  TIP3      H1             28.9223037182      -23.3074351097       12.3547468953  W2        4531            0.0000000000
     12789      4263  TIP3      H2             28.0944037182      -22.8488251097       13.5363168953  W2        4531            0.0000000000
     12790      4264  TIP3      OH2            25.8745337182      -28.2419751097       14.5203768953  W2        4532            0.0000000000
     12791      4264  TIP3      H1             26.1783237182      -28.9278351097       13.9257868953  W2        4532            0.0000000000
     12792      4264  TIP3      H2             26.5959337182      -28.1231051097       15.1381768953  W2        4532            0.0000000000
     12793      4265  TIP3      OH2            29.0152337182      -33.8477351097       14.8478568953  W2        4534            0.0000000000
     12794      4265  TIP3      H1             29.1578237182      -34.7940351097       14.8680168953  W2        4534            0.0000000000
     12795      4265  TIP3      H2             28.9091337182      -33.6407551097       13.9193468953  W2        4534            0.0000000000
     12796      4266  TIP3      OH2            22.1700637182      -35.7460951097       12.1203368953  W2        4535            0.0000000000
     12797      4266  TIP3      H1             22.2131737182      -34.8862451097       11.7019668953  W2        4535            0.0000000000
     12798      4266  TIP3      H2             21.7124737182      -36.2986251097       11.4866568953  W2        4535            0.0000000000
     12799      4267  TIP3      OH2            29.8923337182      -35.6155351097       10.5211668953  W2        4536            0.0000000000
     12800      4267  TIP3      H1             30.5387637182      -35.9442151097       11.1459268953  W2        4536            0.0000000000
     12801      4267  TIP3      H2             30.4022737182      -35.0976351097        9.8983068953  W2        4536            0.0000000000
     12802      4268  TIP3      OH2            18.7902137182      -33.3495151097       12.8824768953  W2        4537            0.0000000000
     12803      4268  TIP3      H1             19.4438737182      -33.8993451097       13.3144868953  W2        4537            0.0000000000
     12804      4268  TIP3      H2             18.8141437182      -33.6236151097       11.9656768953  W2        4537            0.0000000000
     12805      4269  TIP3      OH2            23.9466637182      -31.7993851097       12.0976268953  W2        4538            0.0000000000
     12806      4269  TIP3      H1             24.5627637182      -32.3258451097       12.6070268953  W2        4538            0.0000000000
     12807      4269  TIP3      H2             23.3605437182      -32.4395151097       11.6939868953  W2        4538            0.0000000000
     12808      4270  TIP3      OH2            28.3492337182      -27.3281451097        9.7383268953  W2        4541            0.0000000000
     12809      4270  TIP3      H1             28.0537437182      -27.6509151097        8.8870168953  W2        4541            0.0000000000
     12810      4270  TIP3      H2             28.0250137182      -26.4284751097        9.7795868953  W2        4541            0.0000000000
     12811      4271  TIP3      OH2            31.6561737182      -36.3246051097       12.5017568953  W2        4543            0.0000000000
     12812      4271  TIP3      H1             31.4409737182      -37.0902651097       13.0343568953  W2        4543            0.0000000000
     12813      4271  TIP3      H2             32.3119137182      -35.8521451097       13.0146068953  W2        4543            0.0000000000
     12814      4272  TIP3      OH2            20.5739837182      -34.9360751097       14.1466368953  W2        4544            0.0000000000
     12815      4272  TIP3      H1             21.1876137182      -34.3033151097       14.5198768953  W2        4544            0.0000000000
     12816      4272  TIP3      H2             21.0860537182      -35.4085751097       13.4903268953  W2        4544            0.0000000000
     12817      4273  TIP3      OH2            18.0779137182      -27.5175951097        8.0508668953  W2        4546            0.0000000000
     12818      4273  TIP3      H1             17.8060037182      -27.2884951097        7.1621568953  W2        4546            0.0000000000
     12819      4273  TIP3      H2             18.1234837182      -26.6797151097        8.5113968953  W2        4546            0.0000000000
     12820      4274  TIP3      OH2            31.7028837182      -25.8960051097       14.7637168953  W2        4547            0.0000000000
     12821      4274  TIP3      H1             30.7612537182      -25.8376151097       14.9254068953  W2        4547            0.0000000000
     12822      4274  TIP3      H2             31.9794937182      -24.9899551097       14.6266868953  W2        4547            0.0000000000
     12823      4275  TIP3      OH2            25.0067237182      -39.5227451097       13.6469068953  W2        4549            0.0000000000
     12824      4275  TIP3      H1             24.8891437182      -40.4711451097       13.5927368953  W2        4549            0.0000000000
     12825      4275  TIP3      H2             24.1517337182      -39.1901351097       13.9200168953  W2        4549            0.0000000000
     12826      4276  TIP3      OH2            29.9550037182      -24.1146551097       11.3888768953  W2        4550            0.0000000000
     12827      4276  TIP3      H1             30.3802337182      -24.8218651097       10.9038368953  W2        4550            0.0000000000
     12828      4276  TIP3      H2             30.2720037182      -23.3133851097       10.9720968953  W2        4550            0.0000000000
     12829      4277  TIP3      OH2            31.1146537182      -26.2138051097        9.8975368953  W2        4551            0.0000000000
     12830      4277  TIP3      H1             30.8571337182      -26.9037951097        9.2861268953  W2        4551            0.0000000000
     12831      4277  TIP3      H2             31.1857337182      -26.6566851097       10.7431268953  W2        4551            0.0000000000
     12832      4278  TIP3      OH2            27.2732137182      -30.6851851097        8.1474868953  W2        4553            0.0000000000
     12833      4278  TIP3      H1             26.5617637182      -30.1502151097        7.7955368953  W2        4553            0.0000000000
     12834      4278  TIP3      H2             27.9641737182      -30.6299751097        7.4873768953  W2        4553            0.0000000000
     12835      4279  TIP3      OH2            27.3271337182      -32.2277551097        5.1859868953  W2        4554            0.0000000000
     12836      4279  TIP3      H1             28.0281237182      -32.2050651097        5.8373868953  W2        4554            0.0000000000
     12837      4279  TIP3      H2             27.6294237182      -32.8557851097        4.5299168953  W2        4554            0.0000000000
     12838      4280  TIP3      OH2            30.6789837182      -30.4758551097        9.0990768953  W2        4556            0.0000000000
     12839      4280  TIP3      H1             29.9470837182      -30.2474851097        9.6721368953  W2        4556            0.0000000000
     12840      4280  TIP3      H2             31.1262037182      -31.1895851097        9.5538268953  W2        4556            0.0000000000
     12841      4281  TIP3      OH2            22.3243537182      -29.8452351097       10.9815768953  W2        4558            0.0000000000
     12842      4281  TIP3      H1             21.9938737182      -30.2158951097       10.1632768953  W2        4558            0.0000000000
     12843      4281  TIP3      H2             22.9127637182      -30.5158351097       11.3284068953  W2        4558            0.0000000000
     12844      4282  TIP3      OH2            23.6911037182      -26.4171751097       13.6627968953  W2        4559            0.0000000000
     12845      4282  TIP3      H1             23.5962337182      -26.9958651097       12.9062568953  W2        4559            0.0000000000
     12846      4282  TIP3      H2             24.4204637182      -26.7886051097       14.1590768953  W2        4559            0.0000000000
     12847      4283  TIP3      OH2            22.6909037182      -31.0766751097       14.6150768953  W2        4560            0.0000000000
     12848      4283  TIP3      H1             23.2561537182      -30.9552551097       13.8521968953  W2        4560            0.0000000000
     12849      4283  TIP3      H2             23.0097937182      -30.4391751097       15.2539268953  W2        4560            0.0000000000
     12850      4284  TIP3      OH2            29.5499337182      -31.3135651097        6.7841968953  W2        4563            0.0000000000
     12851      4284  TIP3      H1             30.1294837182      -31.1635351097        7.5310868953  W2        4563            0.0000000000
     12852      4284  TIP3      H2             29.9639337182      -30.8428251097        6.0608368953  W2        4563            0.0000000000
     12853      4285  TIP3      OH2            27.2764237182      -24.5767151097       10.2195068953  W2        4565            0.0000000000
     12854      4285  TIP3      H1             27.7501837182      -24.2810851097       10.9969268953  W2        4565            0.0000000000
     12855      4285  TIP3      H2             26.7133537182      -23.8385551097        9.9864668953  W2        4565            0.0000000000
     12856      4286  TIP3      OH2            33.2487737182      -39.5635251097        6.5971668953  W2        4567            0.0000000000
     12857      4286  TIP3      H1             32.3488437182      -39.4246251097        6.8922268953  W2        4567            0.0000000000
     12858      4286  TIP3      H2             33.5006137182      -38.7320651097        6.1953368953  W2        4567            0.0000000000
     12859      4287  TIP3      OH2            21.3146237182      -30.7758051097        8.5708568953  W2        4568            0.0000000000
     12860      4287  TIP3      H1             21.0227537182      -30.0076351097        8.0799868953  W2        4568            0.0000000000
     12861      4287  TIP3      H2             20.6401437182      -31.4351851097        8.4079968953  W2        4568            0.0000000000
     12862      4288  TIP3      OH2            34.4379137182      -25.1972851097        4.9735568953  W2        4569            0.0000000000
     12863      4288  TIP3      H1             34.5112637182      -24.2582651097        5.1440868953  W2        4569            0.0000000000
     12864      4288  TIP3      H2             35.3434237182      -25.5024251097        4.9172868953  W2        4569            0.0000000000
     12865      4289  TIP3      OH2            17.1579037182      -25.6325051097       14.2698568953  W2        4571            0.0000000000
     12866      4289  TIP3      H1             18.1039637182      -25.7768051097       14.2508068953  W2        4571            0.0000000000
     12867      4289  TIP3      H2             17.0455337182      -24.8482251097       14.8069768953  W2        4571            0.0000000000
     12868      4290  TIP3      OH2            26.7487337182      -21.6202451097        8.6344268953  W2        4574            0.0000000000
     12869      4290  TIP3      H1             26.6733337182      -21.7415251097        7.6879468953  W2        4574            0.0000000000
     12870      4290  TIP3      H2             26.7816037182      -20.6709751097        8.7528868953  W2        4574            0.0000000000
     12871      4291  TIP3      OH2            20.4021137182      -22.8315451097       10.4153268953  W2        4575            0.0000000000
     12872      4291  TIP3      H1             20.5541537182      -23.1795051097       11.2939768953  W2        4575            0.0000000000
     12873      4291  TIP3      H2             19.5511537182      -23.1878151097       10.1600468953  W2        4575            0.0000000000
     12874      4292  TIP3      OH2            29.8503337182      -22.4662251097        5.6366668953  W2        4576            0.0000000000
     12875      4292  TIP3      H1             30.2251737182      -23.2106151097        5.1659268953  W2        4576            0.0000000000
     12876      4292  TIP3      H2             29.8547037182      -22.7361651097        6.5549968953  W2        4576            0.0000000000
     12877      4293  TIP3      OH2            29.5191437182      -22.5405151097        8.3858868953  W2        4577            0.0000000000
     12878      4293  TIP3      H1             28.5841237182      -22.4403251097        8.5645868953  W2        4577            0.0000000000
     12879      4293  TIP3      H2             29.7993337182      -23.2499151097        8.9642068953  W2        4577            0.0000000000
     12880      4294  TIP3      OH2            22.2754837182      -38.6192951097       14.4245368953  W2        4580            0.0000000000
     12881      4294  TIP3      H1             21.4138537182      -38.7064751097       14.0168268953  W2        4580            0.0000000000
     12882      4294  TIP3      H2             22.2530537182      -37.7632851097       14.8522968953  W2        4580            0.0000000000
     12883      4295  TIP3      OH2            31.0272437182      -30.2807351097        4.4139868953  W2        4583            0.0000000000
     12884      4295  TIP3      H1             31.0693237182      -30.5033451097        3.4839868953  W2        4583            0.0000000000
     12885      4295  TIP3      H2             31.8764537182      -29.8820251097        4.6039768953  W2        4583            0.0000000000
     12886      4296  TIP3      OH2            26.5999937182      -36.4049151097        5.0843168953  W2        4584            0.0000000000
     12887      4296  TIP3      H1             26.3464737182      -36.3857551097        6.0071268953  W2        4584            0.0000000000
     12888      4296  TIP3      H2             26.3432037182      -37.2763751097        4.7829368953  W2        4584            0.0000000000
     12889      4297  TIP3      OH2            22.3634037182      -33.4328351097       10.4315568953  W2        4586            0.0000000000
     12890      4297  TIP3      H1             21.4706937182      -33.7732251097       10.3729368953  W2        4586            0.0000000000
     12891      4297  TIP3      H2             22.8140637182      -33.8097451097        9.6758768953  W2        4586            0.0000000000
     12892      4298  TIP3      OH2            27.8989537182      -33.0168051097        9.2486368953  W2        4587            0.0000000000
     12893      4298  TIP3      H1             27.4899837182      -32.2019451097        8.9571168953  W2        4587            0.0000000000
     12894      4298  TIP3      H2             28.6195737182      -33.1567951097        8.6343468953  W2        4587            0.0000000000
     12895      4299  TIP3      OH2            28.9037237182      -33.5707651097       12.0626068953  W2        4589            0.0000000000
     12896      4299  TIP3      H1             28.7081737182      -32.9650851097       11.3476668953  W2        4589            0.0000000000
     12897      4299  TIP3      H2             29.0849837182      -34.4042451097       11.6282368953  W2        4589            0.0000000000
     12898      4300  TIP3      OH2            23.4822837182      -35.9592651097        4.1853568953  W2        4591            0.0000000000
     12899      4300  TIP3      H1             23.0513537182      -36.4042551097        4.9150968953  W2        4591            0.0000000000
     12900      4300  TIP3      H2             22.7641537182      -35.5876351097        3.6731068953  W2        4591            0.0000000000
     12901      4301  TIP3      OH2            16.7246237182      -36.2173151097       11.2372268953  W2        4592            0.0000000000
     12902      4301  TIP3      H1             17.3553937182      -36.2461051097       11.9566168953  W2        4592            0.0000000000
     12903      4301  TIP3      H2             17.1740537182      -36.6424451097       10.5068168953  W2        4592            0.0000000000
     12904      4302  TIP3      OH2            17.9988337182      -35.4711151097        6.6612668953  W2        4593            0.0000000000
     12905      4302  TIP3      H1             18.4730037182      -34.8801251097        6.0763568953  W2        4593            0.0000000000
     12906      4302  TIP3      H2             17.2814737182      -34.9408251097        7.0082768953  W2        4593            0.0000000000
     12907      4303  TIP3      OH2            24.9449337182      -36.0050851097       11.5179668953  W2        4595            0.0000000000
     12908      4303  TIP3      H1             24.0340437182      -35.9484051097       11.8065668953  W2        4595            0.0000000000
     12909      4303  TIP3      H2             25.4502237182      -36.0655351097       12.3286868953  W2        4595            0.0000000000
     12910      4304  TIP3      OH2            19.7732737182      -34.3764551097       10.3447268953  W2        4596            0.0000000000
     12911      4304  TIP3      H1             18.8840737182      -34.2769051097       10.0046868953  W2        4596            0.0000000000
     12912      4304  TIP3      H2             20.0697637182      -35.2181551097        9.9985168953  W2        4596            0.0000000000
     12913      4305  TIP3      OH2            23.4264537182      -34.3761951097        8.0011868953  W2        4597            0.0000000000
     12914      4305  TIP3      H1             24.3580037182      -34.2471951097        8.1794968953  W2        4597            0.0000000000
     12915      4305  TIP3      H2             23.2114837182      -33.7067651097        7.3516568953  W2        4597            0.0000000000
     12916      4306  TIP3      OH2            29.3501237182      -36.7704551097       14.7821468953  W2        4598            0.0000000000
     12917      4306  TIP3      H1             28.6732837182      -36.6391451097       15.4461168953  W2        4598            0.0000000000
     12918      4306  TIP3      H2             28.8646137182      -36.9255051097       13.9719168953  W2        4598            0.0000000000
     12919      4307  TIP3      OH2            22.1004737182      -33.1819751097        5.5677968953  W2        4599            0.0000000000
     12920      4307  TIP3      H1             21.5579837182      -33.5615951097        4.8765568953  W2        4599            0.0000000000
     12921      4307  TIP3      H2             22.9339637182      -32.9875051097        5.1392068953  W2        4599            0.0000000000
     12922      4308  TIP3      OH2            26.2649037182      -33.2177851097       13.4049268953  W2        4602            0.0000000000
     12923      4308  TIP3      H1             26.8292437182      -33.7641251097       12.8578868953  W2        4602            0.0000000000
     12924      4308  TIP3      H2             26.1172437182      -33.7395951097       14.1936868953  W2        4602            0.0000000000
     12925      4309  TIP3      OH2            21.2668737182      -37.0811751097        9.8234068953  W2        4603            0.0000000000
     12926      4309  TIP3      H1             20.9498237182      -37.9836451097        9.7879468953  W2        4603            0.0000000000
     12927      4309  TIP3      H2             22.0482837182      -37.0794351097        9.2705668953  W2        4603            0.0000000000
     12928      4310  TIP3      OH2            25.4357537182      -28.6164051097        7.5036068953  W2        4605            0.0000000000
     12929      4310  TIP3      H1             24.6908537182      -29.1238751097        7.1813968953  W2        4605            0.0000000000
     12930      4310  TIP3      H2             25.3014737182      -28.5676051097        8.4500868953  W2        4605            0.0000000000
     12931      4311  TIP3      OH2            29.3334337182      -35.8024151097        5.7028668953  W2        4607            0.0000000000
     12932      4311  TIP3      H1             28.3948537182      -35.6908551097        5.5517468953  W2        4607            0.0000000000
     12933      4311  TIP3      H2             29.6306437182      -34.9457251097        6.0094368953  W2        4607            0.0000000000
     12934      4312  TIP3      OH2            30.0517837182      -33.9351451097        7.3636068953  W2        4609            0.0000000000
     12935      4312  TIP3      H1             30.9436837182      -34.0726451097        7.6827268953  W2        4609            0.0000000000
     12936      4312  TIP3      H2             30.1081437182      -33.1445351097        6.8269568953  W2        4609            0.0000000000
     12937      4313  TIP3      OH2            20.5605837182      -29.3214051097       13.2733968953  W2        4610            0.0000000000
     12938      4313  TIP3      H1             21.3053037182      -29.3238351097       12.6720468953  W2        4610            0.0000000000
     12939      4313  TIP3      H2             20.6382437182      -30.1450251097       13.7549068953  W2        4610            0.0000000000
     12940      4314  TIP3      OH2            27.5611637182      -27.1579751097        6.5290668953  W2        4611            0.0000000000
     12941      4314  TIP3      H1             27.2660037182      -26.3311851097        6.9105468953  W2        4611            0.0000000000
     12942      4314  TIP3      H2             26.8581637182      -27.7772851097        6.7252068953  W2        4611            0.0000000000
     12943      4315  TIP3      OH2            34.9366537182      -33.7257351097        7.0582768953  W2        4615            0.0000000000
     12944      4315  TIP3      H1             34.3822837182      -34.1219351097        6.3860268953  W2        4615            0.0000000000
     12945      4315  TIP3      H2             35.0370137182      -32.8152151097        6.7806068953  W2        4615            0.0000000000
     12946      4316  TIP3      OH2            33.2318237182      -24.9396951097        7.5234868953  W2        4617            0.0000000000
     12947      4316  TIP3      H1             32.8589337182      -25.7653151097        7.8325468953  W2        4617            0.0000000000
     12948      4316  TIP3      H2             33.5091737182      -25.1227551097        6.6258268953  W2        4617            0.0000000000
     12949      4317  TIP3      OH2            30.3922137182      -30.1317451097       14.5446768953  W2        4618            0.0000000000
     12950      4317  TIP3      H1             29.4639037182      -30.3635551097       14.5176068953  W2        4618            0.0000000000
     12951      4317  TIP3      H2             30.8433237182      -30.9087651097       14.2145568953  W2        4618            0.0000000000
     12952      4318  TIP3      OH2            22.9355237182      -25.8035851097       10.6775468953  W2        4619            0.0000000000
     12953      4318  TIP3      H1             23.4627437182      -25.0301451097       10.4774268953  W2        4619            0.0000000000
     12954      4318  TIP3      H2             22.0553737182      -25.5786651097       10.3759468953  W2        4619            0.0000000000
     12955      4319  TIP3      OH2            18.6902937182      -30.9411751097        5.2647868953  W2        4620            0.0000000000
     12956      4319  TIP3      H1             19.3062837182      -30.3144551097        5.6442668953  W2        4620            0.0000000000
     12957      4319  TIP3      H2             17.8285537182      -30.6251951097        5.5364368953  W2        4620            0.0000000000
     12958      4320  TIP3      OH2            24.3627537182      -28.1405951097       10.2539768953  W2        4621            0.0000000000
     12959      4320  TIP3      H1             24.1217537182      -27.2151551097       10.2955068953  W2        4621            0.0000000000
     12960      4320  TIP3      H2             23.6221137182      -28.5994651097       10.6503668953  W2        4621            0.0000000000
     12961      4321  TIP3      OH2            23.0458337182      -23.1188351097        9.7991968953  W2        4623            0.0000000000
     12962      4321  TIP3      H1             22.0958837182      -23.0130951097        9.8505268953  W2        4623            0.0000000000
     12963      4321  TIP3      H2             23.3976437182      -22.2980951097       10.1439468953  W2        4623            0.0000000000
     12964      4322  TIP3      OH2            30.6243837182      -26.9631151097        5.3435468953  W2        4625            0.0000000000
     12965      4322  TIP3      H1             30.9776937182      -27.3431351097        6.1478968953  W2        4625            0.0000000000
     12966      4322  TIP3      H2             29.6757337182      -27.0566351097        5.4304768953  W2        4625            0.0000000000
     12967      4323  TIP3      OH2            35.1278237182      -22.4838651097        5.5445668953  W2        4627            0.0000000000
     12968      4323  TIP3      H1             35.8716137182      -21.8978151097        5.4047268953  W2        4627            0.0000000000
     12969      4323  TIP3      H2             34.4336337182      -21.9152851097        5.8778068953  W2        4627            0.0000000000
     12970      4324  TIP3      OH2            31.4903137182      -28.2909151097        7.5703368953  W2        4629            0.0000000000
     12971      4324  TIP3      H1             31.2130737182      -29.0189851097        8.1264468953  W2        4629            0.0000000000
     12972      4324  TIP3      H2             32.4176137182      -28.1717151097        7.7755968953  W2        4629            0.0000000000
     12973      4325  TIP3      OH2            24.7151637182      -25.8515051097        3.7905468953  W2        4631            0.0000000000
     12974      4325  TIP3      H1             24.9541437182      -26.5996951097        3.2434368953  W2        4631            0.0000000000
     12975      4325  TIP3      H2             24.4462937182      -26.2393351097        4.6233268953  W2        4631            0.0000000000
     12976      4326  TIP3      OH2            23.6522237182      -26.2811251097        6.2468068953  W2        4632            0.0000000000
     12977      4326  TIP3      H1             23.7990237182      -26.8011451097        7.0368968953  W2        4632            0.0000000000
     12978      4326  TIP3      H2             23.6493937182      -25.3743651097        6.5533968953  W2        4632            0.0000000000
     12979      4327  TIP3      OH2            20.1053337182      -29.0287951097        6.7573468953  W2        4633            0.0000000000
     12980      4327  TIP3      H1             19.4192637182      -28.6765451097        7.3243168953  W2        4633            0.0000000000
     12981      4327  TIP3      H2             20.6281237182      -28.2658351097        6.5107768953  W2        4633            0.0000000000
     12982      4328  TIP3      OH2            28.7213337182      -36.7142451097        8.1334768953  W2        4635            0.0000000000
     12983      4328  TIP3      H1             28.9411637182      -36.2427051097        7.3300168953  W2        4635            0.0000000000
     12984      4328  TIP3      H2             29.2797337182      -36.3199851097        8.8035368953  W2        4635            0.0000000000
     12985      4329  TIP3      OH2            26.3899437182      -24.5837651097        6.9962268953  W2        4636            0.0000000000
     12986      4329  TIP3      H1             25.5735537182      -24.0867951097        7.0486568953  W2        4636            0.0000000000
     12987      4329  TIP3      H2             26.9195737182      -24.1084151097        6.3561068953  W2        4636            0.0000000000
     12988      4330  TIP3      OH2            25.9213237182      -34.9863651097        8.9683168953  W2        4637            0.0000000000
     12989      4330  TIP3      H1             26.7335837182      -34.4820451097        9.0144868953  W2        4637            0.0000000000
     12990      4330  TIP3      H2             25.6766237182      -35.1313951097        9.8822768953  W2        4637            0.0000000000
     12991      4331  TIP3      OH2            26.8049937182      -37.9050651097        9.9064268953  W2        4639            0.0000000000
     12992      4331  TIP3      H1             26.4583437182      -37.2880051097       10.5508568953  W2        4639            0.0000000000
     12993      4331  TIP3      H2             27.4636837182      -37.4044951097        9.4249768953  W2        4639            0.0000000000
     12994      4332  TIP3      OH2            23.7282537182      -23.5400451097        6.9779168953  W2        4640            0.0000000000
     12995      4332  TIP3      H1             23.8891237182      -22.7402951097        6.4771768953  W2        4640            0.0000000000
     12996      4332  TIP3      H2             23.5310337182      -23.2334451097        7.8629768953  W2        4640            0.0000000000
     12997      4333  TIP3      OH2            22.4626937182      -36.8421251097        6.5936768953  W2        4641            0.0000000000
     12998      4333  TIP3      H1             22.3791737182      -35.9538151097        6.9403168953  W2        4641            0.0000000000
     12999      4333  TIP3      H2             23.3527237182      -37.1074551097        6.8253568953  W2        4641            0.0000000000
     13000      4334  TIP3      OH2            31.2636437182      -32.3429651097       13.0836768953  W2        4643            0.0000000000
     13001      4334  TIP3      H1             30.4660837182      -32.7579451097       12.7551768953  W2        4643            0.0000000000
     13002      4334  TIP3      H2             31.7087537182      -33.0335951097       13.5747268953  W2        4643            0.0000000000
     13003      4335  TIP3      OH2            20.7212237182      -26.4149051097        5.6541268953  W2        4644            0.0000000000
     13004      4335  TIP3      H1             21.3133737182      -25.7154251097        5.9303668953  W2        4644            0.0000000000
     13005      4335  TIP3      H2             21.1805237182      -26.8479551097        4.9345868953  W2        4644            0.0000000000
     13006      4336  TIP3      OH2            19.0371437182      -33.7506051097        4.7700668953  W2        4645            0.0000000000
     13007      4336  TIP3      H1             18.9924037182      -32.8112951097        4.9487668953  W2        4645            0.0000000000
     13008      4336  TIP3      H2             18.1494637182      -33.9861151097        4.5002768953  W2        4645            0.0000000000
     13009      4337  TIP3      OH2            32.3501037182      -23.0867151097       14.7060268953  W2        4646            0.0000000000
     13010      4337  TIP3      H1             32.1945337182      -22.4082751097       14.0489568953  W2        4646            0.0000000000
     13011      4337  TIP3      H2             33.2827437182      -23.0147851097       14.9090868953  W2        4646            0.0000000000
     13012      4338  TIP3      OH2            19.8453437182      -38.9689451097       13.4431668953  W2        4647            0.0000000000
     13013      4338  TIP3      H1             19.6163237182      -38.9096951097       12.5156668953  W2        4647            0.0000000000
     13014      4338  TIP3      H2             19.4026837182      -39.7603951097       13.7495768953  W2        4647            0.0000000000
     13015      4339  TIP3      OH2            18.7756737182      -25.0282351097        9.6037468953  W2        4648            0.0000000000
     13016      4339  TIP3      H1             17.9435337182      -24.5559651097        9.6308868953  W2        4648            0.0000000000
     13017      4339  TIP3      H2             19.3215037182      -24.5184751097        9.0050568953  W2        4648            0.0000000000
     13018      4340  TIP3      OH2            26.7533437182      -23.9883651097        3.9291468953  W2        4651            0.0000000000
     13019      4340  TIP3      H1             26.1094437182      -24.6195051097        4.2505168953  W2        4651            0.0000000000
     13020      4340  TIP3      H2             27.5151737182      -24.5195651097        3.6974968953  W2        4651            0.0000000000
     13021      4341  TIP3      OH2            31.3576337182      -24.1713751097        4.1629468953  W2        4653            0.0000000000
     13022      4341  TIP3      H1             31.6406737182      -24.9658551097        4.6156368953  W2        4653            0.0000000000
     13023      4341  TIP3      H2             32.0974237182      -23.9382751097        3.6020568953  W2        4653            0.0000000000
     13024      4342  TIP3      OH2            22.3123637182      -28.2618851097        4.0204368953  W2        4655            0.0000000000
     13025      4342  TIP3      H1             22.3767737182      -29.0559251097        4.5510768953  W2        4655            0.0000000000
     13026      4342  TIP3      H2             22.9652837182      -28.3806051097        3.3306368953  W2        4655            0.0000000000
     13027      4343  TIP3      OH2            27.6647037182      -27.2147151097        3.7562368953  W2        4657            0.0000000000
     13028      4343  TIP3      H1             27.3961137182      -27.0345051097        4.6571268953  W2        4657            0.0000000000
     13029      4343  TIP3      H2             27.4582637182      -28.1400951097        3.6248168953  W2        4657            0.0000000000
     13030      4344  TIP3      OH2            23.4617437182      -30.2892651097        6.3262368953  W2        4660            0.0000000000
     13031      4344  TIP3      H1             23.0019437182      -30.7734351097        7.0120868953  W2        4660            0.0000000000
     13032      4344  TIP3      H2             23.7166137182      -30.9577251097        5.6902868953  W2        4660            0.0000000000
     13033      4345  TIP3      OH2            24.5327837182      -32.0460851097        4.5885568953  W2        4662            0.0000000000
     13034      4345  TIP3      H1             24.3522837182      -32.2009651097        3.6613868953  W2        4662            0.0000000000
     13035      4345  TIP3      H2             25.4828337182      -31.9382151097        4.6333468953  W2        4662            0.0000000000
     13036      4346  TIP3      OH2            33.9226137182      -29.6916651097        4.0343668953  W2        4664            0.0000000000
     13037      4346  TIP3      H1             33.6490937182      -30.1161151097        3.2211968953  W2        4664            0.0000000000
     13038      4346  TIP3      H2             33.9620237182      -28.7602151097        3.8174068953  W2        4664            0.0000000000
     13039      4347  TIP3      OH2            24.4299537182      -21.3557151097        5.5899168953  W2        4678            0.0000000000
     13040      4347  TIP3      H1             25.3630237182      -21.1978451097        5.7337568953  W2        4678            0.0000000000
     13041      4347  TIP3      H2             24.1658337182      -20.6804151097        4.9650668953  W2        4678            0.0000000000
     13042      4348  TIP3      OH2            17.9984437182      -26.7193351097        5.0727268953  W2        4679            0.0000000000
     13043      4348  TIP3      H1             18.9123637182      -26.6404451097        5.3461168953  W2        4679            0.0000000000
     13044      4348  TIP3      H2             18.0057537182      -27.4063751097        4.4062868953  W2        4679            0.0000000000
     13045      4349  TIP3      OH2            16.6475037182      -21.3264851097       10.1501168953  W2        4680            0.0000000000
     13046      4349  TIP3      H1             16.0002137182      -21.7883151097        9.6172368953  W2        4680            0.0000000000
     13047      4349  TIP3      H2             17.0019637182      -21.9981551097       10.7327368953  W2        4680            0.0000000000
     13048      4350  TIP3      OH2            17.5174237182      -23.2457851097       11.9547368953  W2        4681            0.0000000000
     13049      4350  TIP3      H1             17.1831037182      -24.1260551097       12.1267568953  W2        4681            0.0000000000
     13050      4350  TIP3      H2             17.7396637182      -22.9002851097       12.8192968953  W2        4681            0.0000000000
     13051      4351  TIP3      OH2            34.3808937182      -28.8228551097        8.0094068953  W2        4685            0.0000000000
     13052      4351  TIP3      H1             35.2310337182      -28.4017651097        8.1365668953  W2        4685            0.0000000000
     13053      4351  TIP3      H2             34.3864037182      -29.5628451097        8.6165468953  W2        4685            0.0000000000
     13054      4352  TIP3      OH2            34.7754537182      -30.7691151097        9.8329768953  W2        4686            0.0000000000
     13055      4352  TIP3      H1             34.0489137182      -31.2488551097       10.2307368953  W2        4686            0.0000000000
     13056      4352  TIP3      H2             35.3567837182      -30.5636451097       10.5651368953  W2        4686            0.0000000000
     13057      4353  TIP3      OH2            34.5345737182      -27.9843651097       14.7807368953  W2        4687            0.0000000000
     13058      4353  TIP3      H1             35.3679937182      -28.3623651097       14.5000968953  W2        4687            0.0000000000
     13059      4353  TIP3      H2             34.6466037182      -27.0412451097       14.6616468953  W2        4687            0.0000000000
     13060      4354  TIP3      OH2            35.0437637182      -30.8682651097        6.2241068953  W2        4689            0.0000000000
     13061      4354  TIP3      H1             34.5218737182      -30.5118551097        5.5051968953  W2        4689            0.0000000000
     13062      4354  TIP3      H2             35.0106837182      -30.1934851097        6.9021968953  W2        4689            0.0000000000
     13063      4355  TIP3      OH2            33.3926637182      -33.6287051097        4.7748168953  W2        4690            0.0000000000
     13064      4355  TIP3      H1             33.4891037182      -32.9620051097        4.0947868953  W2        4690            0.0000000000
     13065      4355  TIP3      H2             33.2526237182      -34.4440751097        4.2933668953  W2        4690            0.0000000000
     13066      4356  TIP3      OH2            32.5621337182      -32.2484651097       10.3958468953  W2        4691            0.0000000000
     13067      4356  TIP3      H1             32.4120137182      -33.1936051097       10.3756268953  W2        4691            0.0000000000
     13068      4356  TIP3      H2             32.2085837182      -31.9673251097       11.2397568953  W2        4691            0.0000000000
     13069      4357  TIP3      OH2            17.5973737182      -30.1702451097       14.4062268953  W2        4692            0.0000000000
     13070      4357  TIP3      H1             17.7816637182      -30.2520751097       13.4705168953  W2        4692            0.0000000000
     13071      4357  TIP3      H2             18.4466637182      -30.2945451097       14.8298668953  W2        4692            0.0000000000
     13072      4358  TIP3      OH2            32.6400437182      -36.2207251097        3.8923668953  W2        4695            0.0000000000
     13073      4358  TIP3      H1             33.2506237182      -36.5920451097        4.5291868953  W2        4695            0.0000000000
     13074      4358  TIP3      H2             31.8031937182      -36.6420351097        4.0883668953  W2        4695            0.0000000000
     13075      4359  TIP3      OH2            32.2726137182      -34.6658851097        8.8583568953  W2        4696            0.0000000000
     13076      4359  TIP3      H1             32.5523237182      -35.5728451097        8.9825268953  W2        4696            0.0000000000
     13077      4359  TIP3      H2             33.0317837182      -34.2317351097        8.4692768953  W2        4696            0.0000000000
     13078      4360  TIP3      OH2            32.8844437182      -34.0841451097       14.2942468953  W2        4697            0.0000000000
     13079      4360  TIP3      H1             33.8172437182      -33.8721551097       14.2598468953  W2        4697            0.0000000000
     13080      4360  TIP3      H2             32.6491937182      -33.9829351097       15.2165468953  W2        4697            0.0000000000
     13081      4361  TIP3      OH2            32.8860937182      -37.4029551097        8.9065568953  W2        4701            0.0000000000
     13082      4361  TIP3      H1             33.0685937182      -37.8518051097        9.7320568953  W2        4701            0.0000000000
     13083      4361  TIP3      H2             32.2863837182      -37.9875151097        8.4430168953  W2        4701            0.0000000000
     13084      4362  TIP3      OH2            18.4161037182      -36.5875851097       13.4383968953  W2        4702            0.0000000000
     13085      4362  TIP3      H1             18.8612637182      -37.3793351097       13.7403668953  W2        4702            0.0000000000
     13086      4362  TIP3      H2             18.8824037182      -35.8710651097       13.8689568953  W2        4702            0.0000000000
     13087      4363  TIP3      OH2            16.7201337182      -33.5882851097       14.5074168953  W2        4703            0.0000000000
     13088      4363  TIP3      H1             17.2121137182      -33.8092351097       13.7166168953  W2        4703            0.0000000000
     13089      4363  TIP3      H2             17.0822237182      -32.7479451097       14.7883668953  W2        4703            0.0000000000
     13090      4364  TIP3      OH2            34.7527137182      -37.3351451097        5.4345868953  W2        4705            0.0000000000
     13091      4364  TIP3      H1             35.1649737182      -38.0565751097        4.9593868953  W2        4705            0.0000000000
     13092      4364  TIP3      H2             35.4343637182      -36.6656851097        5.4930168953  W2        4705            0.0000000000
     13093      4365  TIP3      OH2            17.0337837182      -37.3303751097        8.5616568953  W2        4706            0.0000000000
     13094      4365  TIP3      H1             16.1086237182      -37.1217151097        8.4322068953  W2        4706            0.0000000000
     13095      4365  TIP3      H2             17.4877737182      -36.8462951097        7.8718868953  W2        4706            0.0000000000
     13096      4366  TIP3      OH2            31.8045037182      -22.3462051097       10.5073968953  W2        4707            0.0000000000
     13097      4366  TIP3      H1             32.4567937182      -22.6939951097        9.8993068953  W2        4707            0.0000000000
     13098      4366  TIP3      H2             32.3148837182      -21.8578851097       11.1533668953  W2        4707            0.0000000000
     13099      4367  TIP3      OH2            18.9600237182      -22.5633051097       14.2665968953  W2        4719            0.0000000000
     13100      4367  TIP3      H1             18.9416237182      -22.9887951097       15.1238268953  W2        4719            0.0000000000
     13101      4367  TIP3      H2             19.7648137182      -22.8818051097       13.8578168953  W2        4719            0.0000000000
     13102      4368  TIP3      OH2            21.1013337182      -23.8534351097       12.9215868953  W2        4720            0.0000000000
     13103      4368  TIP3      H1             20.8824037182      -24.7696951097       13.0911868953  W2        4720            0.0000000000
     13104      4368  TIP3      H2             21.9255537182      -23.7133951097       13.3877268953  W2        4720            0.0000000000
     13105      4369  TIP3      OH2            23.6385837182      -23.3835051097       13.7703868953  W2        4721            0.0000000000
     13106      4369  TIP3      H1             23.8511537182      -24.2716051097       13.4834768953  W2        4721            0.0000000000
     13107      4369  TIP3      H2             23.7030937182      -23.4177351097       14.7247868953  W2        4721            0.0000000000
     13108      4370  TIP3      OH2            27.1469537182      -37.7194451097       12.9147168953  W2        4722            0.0000000000
     13109      4370  TIP3      H1             26.4726337182      -38.3488851097       13.1702968953  W2        4722            0.0000000000
     13110      4370  TIP3      H2             27.7108737182      -38.2035551097       12.3115068953  W2        4722            0.0000000000
     13111      4371  TIP3      OH2            32.2896737182      -39.6120451097       13.0274268953  W2        4723            0.0000000000
     13112      4371  TIP3      H1             32.8934337182      -39.0645051097       12.5255268953  W2        4723            0.0000000000
     13113      4371  TIP3      H2             31.4198737182      -39.2930051097       12.7868368953  W2        4723            0.0000000000
     13114      4372  TIP3      OH2            34.0167137182      -38.4731751097       11.3605168953  W2        4724            0.0000000000
     13115      4372  TIP3      H1             34.6284637182      -38.9876051097       10.8338768953  W2        4724            0.0000000000
     13116      4372  TIP3      H2             34.3990537182      -37.5959651097       11.3839568953  W2        4724            0.0000000000
     13117      4373  TIP3      OH2            19.4737037182      -39.0854151097       10.7367068953  W2        4725            0.0000000000
     13118      4373  TIP3      H1             18.6966837182      -39.3199251097       10.2292968953  W2        4725            0.0000000000
     13119      4373  TIP3      H2             20.0040637182      -39.8822051097       10.7455068953  W2        4725            0.0000000000
     13120      4374  TIP3      OH2            18.3100437182      -39.2876051097        6.5403168953  W2        4726            0.0000000000
     13121      4374  TIP3      H1             18.7491137182      -38.6765551097        5.9486668953  W2        4726            0.0000000000
     13122      4374  TIP3      H2             17.6762837182      -38.7491951097        7.0143168953  W2        4726            0.0000000000
     13123      4375  TIP3      OH2            24.0529637182      -39.1587051097       10.5500168953  W2        4727            0.0000000000
     13124      4375  TIP3      H1             24.9273037182      -38.7702751097       10.5204468953  W2        4727            0.0000000000
     13125      4375  TIP3      H2             23.9170437182      -39.3739251097       11.4727368953  W2        4727            0.0000000000
     13126      4376  TIP3      OH2            29.6098037182      -39.1287251097       12.1991868953  W2        4728            0.0000000000
     13127      4376  TIP3      H1             29.6859637182      -39.0335651097       11.2497868953  W2        4728            0.0000000000
     13128      4376  TIP3      H2             29.3347237182      -40.0364351097       12.3280968953  W2        4728            0.0000000000
     13129      4377  TIP3      OH2            30.9630637182      -39.1029451097        7.8916868953  W2        4729            0.0000000000
     13130      4377  TIP3      H1             30.2601737182      -38.4880251097        7.6818268953  W2        4729            0.0000000000
     13131      4377  TIP3      H2             30.5182037182      -39.9402751097        8.0227768953  W2        4729            0.0000000000
     13132      4378  TIP3      OH2            18.2109937182      -23.3393851097        7.4378268953  W2        4730            0.0000000000
     13133      4378  TIP3      H1             17.5259837182      -23.3774951097        6.7703368953  W2        4730            0.0000000000
     13134      4378  TIP3      H2             18.2147137182      -22.4266251097        7.7260368953  W2        4730            0.0000000000
     13135      4379  TIP3      OH2            20.1709537182      -37.3714551097        4.9827268953  W2        4731            0.0000000000
     13136      4379  TIP3      H1             20.6622937182      -38.0012151097        4.4552768953  W2        4731            0.0000000000
     13137      4379  TIP3      H2             20.7945837182      -37.0755151097        5.6458468953  W2        4731            0.0000000000
     13138      4380  TIP3      OH2            25.1969637182      -37.0783051097        7.4397768953  W2        4732            0.0000000000
     13139      4380  TIP3      H1             25.3750937182      -37.7249851097        8.1226368953  W2        4732            0.0000000000
     13140      4380  TIP3      H2             25.1435837182      -36.2445351097        7.9068868953  W2        4732            0.0000000000
     13141      4381  TIP3      OH2            27.0753437182      -22.1298951097        5.8354468953  W2        4733            0.0000000000
     13142      4381  TIP3      H1             27.9413637182      -21.7631551097        5.6572668953  W2        4733            0.0000000000
     13143      4381  TIP3      H2             26.8286237182      -22.5690951097        5.0215268953  W2        4733            0.0000000000
     13144      4382  TIP3      OH2            33.7843037182      -22.5668651097        8.5145568953  W2        4734            0.0000000000
     13145      4382  TIP3      H1             33.5900137182      -23.3146551097        7.9495168953  W2        4734            0.0000000000
     13146      4382  TIP3      H2             33.7453137182      -21.8088551097        7.9313468953  W2        4734            0.0000000000
     13147      4383  TIP3      OH2            20.0291137182      -22.4193051097        4.4630368953  W2        4737            0.0000000000
     13148      4383  TIP3      H1             19.7615737182      -22.1330151097        5.3363468953  W2        4737            0.0000000000
     13149      4383  TIP3      H2             20.8003737182      -22.9653851097        4.6152868953  W2        4737            0.0000000000
     13150      4384  TIP3      OH2            39.6329037182      -26.6100151097       14.2421768953  W2        4741            0.0000000000
     13151      4384  TIP3      H1             39.2634237182      -27.4119651097       13.8726068953  W2        4741            0.0000000000
     13152      4384  TIP3      H2             40.5740137182      -26.7785251097       14.2885168953  W2        4741            0.0000000000
     13153      4385  TIP3      OH2            36.2429537182      -32.9497551097        9.6350568953  W2        4742            0.0000000000
     13154      4385  TIP3      H1             35.7952937182      -32.1038851097        9.6167068953  W2        4742            0.0000000000
     13155      4385  TIP3      H2             35.6820737182      -33.5293351097        9.1195668953  W2        4742            0.0000000000
     13156      4386  TIP3      OH2            36.9535637182      -30.7877951097       11.7608568953  W2        4743            0.0000000000
     13157      4386  TIP3      H1             37.1669137182      -31.5576351097       12.2881568953  W2        4743            0.0000000000
     13158      4386  TIP3      H2             37.6913237182      -30.6981251097       11.1576168953  W2        4743            0.0000000000
     13159      4387  TIP3      OH2            37.6462137182      -33.3495151097       12.8824768953  W2        4744            0.0000000000
     13160      4387  TIP3      H1             38.2998737182      -33.8993451097       13.3144868953  W2        4744            0.0000000000
     13161      4387  TIP3      H2             37.6701437182      -33.6236151097       11.9656768953  W2        4744            0.0000000000
     13162      4388  TIP3      OH2            39.4299837182      -34.9360751097       14.1466368953  W2        4745            0.0000000000
     13163      4388  TIP3      H1             40.0436137182      -34.3033151097       14.5198768953  W2        4745            0.0000000000
     13164      4388  TIP3      H2             39.9420537182      -35.4085751097       13.4903268953  W2        4745            0.0000000000
     13165      4389  TIP3      OH2            36.9339137182      -27.5175951097        8.0508668953  W2        4746            0.0000000000
     13166      4389  TIP3      H1             36.6620037182      -27.2884951097        7.1621568953  W2        4746            0.0000000000
     13167      4389  TIP3      H2             36.9794837182      -26.6797151097        8.5113968953  W2        4746            0.0000000000
     13168      4390  TIP3      OH2            36.0139037182      -25.6325051097       14.2698568953  W2        4749            0.0000000000
     13169      4390  TIP3      H1             36.9599637182      -25.7768051097       14.2508068953  W2        4749            0.0000000000
     13170      4390  TIP3      H2             35.9015337182      -24.8482251097       14.8069768953  W2        4749            0.0000000000
     13171      4391  TIP3      OH2            39.2581137182      -22.8315451097       10.4153268953  W2        4750            0.0000000000
     13172      4391  TIP3      H1             39.4101537182      -23.1795051097       11.2939768953  W2        4750            0.0000000000
     13173      4391  TIP3      H2             38.4071537182      -23.1878151097       10.1600468953  W2        4750            0.0000000000
     13174      4392  TIP3      OH2            35.5806237182      -36.2173151097       11.2372268953  W2        4753            0.0000000000
     13175      4392  TIP3      H1             36.2113937182      -36.2461051097       11.9566168953  W2        4753            0.0000000000
     13176      4392  TIP3      H2             36.0300537182      -36.6424451097       10.5068168953  W2        4753            0.0000000000
     13177      4393  TIP3      OH2            36.8548337182      -35.4711151097        6.6612668953  W2        4754            0.0000000000
     13178      4393  TIP3      H1             37.3290037182      -34.8801251097        6.0763568953  W2        4754            0.0000000000
     13179      4393  TIP3      H2             36.1374737182      -34.9408251097        7.0082768953  W2        4754            0.0000000000
     13180      4394  TIP3      OH2            38.6292737182      -34.3764551097       10.3447268953  W2        4755            0.0000000000
     13181      4394  TIP3      H1             37.7400737182      -34.2769051097       10.0046868953  W2        4755            0.0000000000
     13182      4394  TIP3      H2             38.9257637182      -35.2181551097        9.9985168953  W2        4755            0.0000000000
     13183      4395  TIP3      OH2            39.4165837182      -29.3214051097       13.2733968953  W2        4757            0.0000000000
     13184      4395  TIP3      H1             40.1613037182      -29.3238351097       12.6720468953  W2        4757            0.0000000000
     13185      4395  TIP3      H2             39.4942437182      -30.1450251097       13.7549068953  W2        4757            0.0000000000
     13186      4396  TIP3      OH2            37.5462937182      -30.9411751097        5.2647868953  W2        4759            0.0000000000
     13187      4396  TIP3      H1             38.1622837182      -30.3144551097        5.6442668953  W2        4759            0.0000000000
     13188      4396  TIP3      H2             36.6845537182      -30.6251951097        5.5364368953  W2        4759            0.0000000000
     13189      4397  TIP3      OH2            38.9613337182      -29.0287951097        6.7573468953  W2        4762            0.0000000000
     13190      4397  TIP3      H1             38.2752637182      -28.6765451097        7.3243168953  W2        4762            0.0000000000
     13191      4397  TIP3      H2             39.4841237182      -28.2658351097        6.5107768953  W2        4762            0.0000000000
     13192      4398  TIP3      OH2            39.5772237182      -26.4149051097        5.6541268953  W2        4763            0.0000000000
     13193      4398  TIP3      H1             40.1693737182      -25.7154251097        5.9303668953  W2        4763            0.0000000000
     13194      4398  TIP3      H2             40.0365237182      -26.8479551097        4.9345868953  W2        4763            0.0000000000
     13195      4399  TIP3      OH2            37.8931437182      -33.7506051097        4.7700668953  W2        4764            0.0000000000
     13196      4399  TIP3      H1             37.8484037182      -32.8112951097        4.9487668953  W2        4764            0.0000000000
     13197      4399  TIP3      H2             37.0054637182      -33.9861151097        4.5002768953  W2        4764            0.0000000000
     13198      4400  TIP3      OH2            38.7013437182      -38.9689451097       13.4431668953  W2        4765            0.0000000000
     13199      4400  TIP3      H1             38.4723237182      -38.9096951097       12.5156668953  W2        4765            0.0000000000
     13200      4400  TIP3      H2             38.2586837182      -39.7603951097       13.7495768953  W2        4765            0.0000000000
     13201      4401  TIP3      OH2            37.6316737182      -25.0282351097        9.6037468953  W2        4766            0.0000000000
     13202      4401  TIP3      H1             36.7995337182      -24.5559651097        9.6308868953  W2        4766            0.0000000000
     13203      4401  TIP3      H2             38.1775037182      -24.5184751097        9.0050568953  W2        4766            0.0000000000
     13204      4402  TIP3      OH2            36.8544437182      -26.7193351097        5.0727268953  W2        4771            0.0000000000
     13205      4402  TIP3      H1             37.7683637182      -26.6404451097        5.3461168953  W2        4771            0.0000000000
     13206      4402  TIP3      H2             36.8617537182      -27.4063751097        4.4062868953  W2        4771            0.0000000000
     13207      4403  TIP3      OH2            35.5035037182      -21.3264851097       10.1501168953  W2        4772            0.0000000000
     13208      4403  TIP3      H1             34.8562137182      -21.7883151097        9.6172368953  W2        4772            0.0000000000
     13209      4403  TIP3      H2             35.8579637182      -21.9981551097       10.7327368953  W2        4772            0.0000000000
     13210      4404  TIP3      OH2            36.3734237182      -23.2457851097       11.9547368953  W2        4773            0.0000000000
     13211      4404  TIP3      H1             36.0391037182      -24.1260551097       12.1267568953  W2        4773            0.0000000000
     13212      4404  TIP3      H2             36.5956637182      -22.9002851097       12.8192968953  W2        4773            0.0000000000
     13213      4405  TIP3      OH2            36.4533737182      -30.1702451097       14.4062268953  W2        4774            0.0000000000
     13214      4405  TIP3      H1             36.6376637182      -30.2520751097       13.4705168953  W2        4774            0.0000000000
     13215      4405  TIP3      H2             37.3026637182      -30.2945451097       14.8298668953  W2        4774            0.0000000000
     13216      4406  TIP3      OH2            37.2721037182      -36.5875851097       13.4383968953  W2        4776            0.0000000000
     13217      4406  TIP3      H1             37.7172637182      -37.3793351097       13.7403668953  W2        4776            0.0000000000
     13218      4406  TIP3      H2             37.7384037182      -35.8710651097       13.8689568953  W2        4776            0.0000000000
     13219      4407  TIP3      OH2            35.5761337182      -33.5882851097       14.5074168953  W2        4777            0.0000000000
     13220      4407  TIP3      H1             36.0681137182      -33.8092351097       13.7166168953  W2        4777            0.0000000000
     13221      4407  TIP3      H2             35.9382237182      -32.7479451097       14.7883668953  W2        4777            0.0000000000
     13222      4408  TIP3      OH2            35.8897837182      -37.3303751097        8.5616568953  W2        4778            0.0000000000
     13223      4408  TIP3      H1             34.9646237182      -37.1217151097        8.4322068953  W2        4778            0.0000000000
     13224      4408  TIP3      H2             36.3437737182      -36.8462951097        7.8718868953  W2        4778            0.0000000000
     13225      4409  TIP3      OH2            37.8160237182      -22.5633051097       14.2665968953  W2        4782            0.0000000000
     13226      4409  TIP3      H1             37.7976237182      -22.9887951097       15.1238268953  W2        4782            0.0000000000
     13227      4409  TIP3      H2             38.6208137182      -22.8818051097       13.8578168953  W2        4782            0.0000000000
     13228      4410  TIP3      OH2            38.3297037182      -39.0854151097       10.7367068953  W2        4783            0.0000000000
     13229      4410  TIP3      H1             37.5526837182      -39.3199251097       10.2292968953  W2        4783            0.0000000000
     13230      4410  TIP3      H2             38.8600637182      -39.8822051097       10.7455068953  W2        4783            0.0000000000
     13231      4411  TIP3      OH2            37.1660437182      -39.2876051097        6.5403168953  W2        4784            0.0000000000
     13232      4411  TIP3      H1             37.6051137182      -38.6765551097        5.9486668953  W2        4784            0.0000000000
     13233      4411  TIP3      H2             36.5322837182      -38.7491951097        7.0143168953  W2        4784            0.0000000000
     13234      4412  TIP3      OH2            37.0669937182      -23.3393851097        7.4378268953  W2        4785            0.0000000000
     13235      4412  TIP3      H1             36.3819837182      -23.3774951097        6.7703368953  W2        4785            0.0000000000
     13236      4412  TIP3      H2             37.0707137182      -22.4266251097        7.7260368953  W2        4785            0.0000000000
     13237      4413  TIP3      OH2            39.0269537182      -37.3714551097        4.9827268953  W2        4786            0.0000000000
     13238      4413  TIP3      H1             39.5182937182      -38.0012151097        4.4552768953  W2        4786            0.0000000000
     13239      4413  TIP3      H2             39.6505837182      -37.0755151097        5.6458468953  W2        4786            0.0000000000
     13240      4414  TIP3      OH2            38.8851137182      -22.4193051097        4.4630368953  W2        4788            0.0000000000
     13241      4414  TIP3      H1             38.6175737182      -22.1330151097        5.3363468953  W2        4788            0.0000000000
     13242      4414  TIP3      H2             39.6563737182      -22.9653851097        4.6152868953  W2        4788            0.0000000000
     13243      4415  TIP3      OH2           -28.0160362818      -11.0731851097       10.6954568953  W2        4789            0.0000000000
     13244      4415  TIP3      H1            -27.9269262818      -10.1293651097       10.5631668953  W2        4789            0.0000000000
     13245      4415  TIP3      H2            -28.6542762818      -11.3485451097       10.0373968953  W2        4789            0.0000000000
     13246      4416  TIP3      OH2           -29.0829062818      -11.8181151097       14.1142768953  W2        4790            0.0000000000
     13247      4416  TIP3      H1            -29.1211562818      -12.4644851097       14.8192368953  W2        4790            0.0000000000
     13248      4416  TIP3      H2            -29.4052562818      -12.2846751097       13.3431468953  W2        4790            0.0000000000
     13249      4417  TIP3      OH2           -25.3768862818       -8.8790751097       12.4157868953  W2        4792            0.0000000000
     13250      4417  TIP3      H1            -25.8176162818       -9.5994751097       12.8663468953  W2        4792            0.0000000000
     13251      4417  TIP3      H2            -25.3899162818       -8.1583551097       13.0455568953  W2        4792            0.0000000000
     13252      4418  TIP3      OH2           -35.7910962818       -7.7540151097       14.2421768953  W2        4793            0.0000000000
     13253      4418  TIP3      H1            -36.1605762818       -8.5559651097       13.8726068953  W2        4793            0.0000000000
     13254      4418  TIP3      H2            -34.8499862818       -7.9225251097       14.2885168953  W2        4793            0.0000000000
     13255      4419  TIP3      OH2           -39.1810462818      -14.0937551097        9.6350568953  W2        4794            0.0000000000
     13256      4419  TIP3      H1            -39.6287062818      -13.2478851097        9.6167068953  W2        4794            0.0000000000
     13257      4419  TIP3      H2            -39.7419262818      -14.6733351097        9.1195668953  W2        4794            0.0000000000
     13258      4420  TIP3      OH2           -38.4704362818      -11.9317951097       11.7608568953  W2        4795            0.0000000000
     13259      4420  TIP3      H1            -38.2570862818      -12.7016351097       12.2881568953  W2        4795            0.0000000000
     13260      4420  TIP3      H2            -37.7326762818      -11.8421251097       11.1576168953  W2        4795            0.0000000000
     13261      4421  TIP3      OH2           -28.2653362818       -3.7749051097       12.6278268953  W2        4796            0.0000000000
     13262      4421  TIP3      H1            -27.6456962818       -4.4514351097       12.3547468953  W2        4796            0.0000000000
     13263      4421  TIP3      H2            -28.4735962818       -3.9928251097       13.5363168953  W2        4796            0.0000000000
     13264      4422  TIP3      OH2           -30.6934662818       -9.3859751097       14.5203768953  W2        4797            0.0000000000
     13265      4422  TIP3      H1            -30.3896762818      -10.0718351097       13.9257868953  W2        4797            0.0000000000
     13266      4422  TIP3      H2            -29.9720662818       -9.2671051097       15.1381768953  W2        4797            0.0000000000
     13267      4423  TIP3      OH2           -27.5527662818      -14.9917351097       14.8478568953  W2        4799            0.0000000000
     13268      4423  TIP3      H1            -27.4101762818      -15.9380351097       14.8680168953  W2        4799            0.0000000000
     13269      4423  TIP3      H2            -27.6588662818      -14.7847551097       13.9193468953  W2        4799            0.0000000000
     13270      4424  TIP3      OH2           -34.3979362818      -16.8900951097       12.1203368953  W2        4800            0.0000000000
     13271      4424  TIP3      H1            -34.3548262818      -16.0302451097       11.7019668953  W2        4800            0.0000000000
     13272      4424  TIP3      H2            -34.8555262818      -17.4426251097       11.4866568953  W2        4800            0.0000000000
     13273      4425  TIP3      OH2           -26.6756662818      -16.7595351097       10.5211668953  W2        4801            0.0000000000
     13274      4425  TIP3      H1            -26.0292362818      -17.0882151097       11.1459268953  W2        4801            0.0000000000
     13275      4425  TIP3      H2            -26.1657262818      -16.2416351097        9.8983068953  W2        4801            0.0000000000
     13276      4426  TIP3      OH2           -37.7777862818      -14.4935151097       12.8824768953  W2        4802            0.0000000000
     13277      4426  TIP3      H1            -37.1241262818      -15.0433451097       13.3144868953  W2        4802            0.0000000000
     13278      4426  TIP3      H2            -37.7538562818      -14.7676151097       11.9656768953  W2        4802            0.0000000000
     13279      4427  TIP3      OH2           -32.6213362818      -12.9433851097       12.0976268953  W2        4803            0.0000000000
     13280      4427  TIP3      H1            -32.0052362818      -13.4698451097       12.6070268953  W2        4803            0.0000000000
     13281      4427  TIP3      H2            -33.2074562818      -13.5835151097       11.6939868953  W2        4803            0.0000000000
     13282      4428  TIP3      OH2           -28.2187662818       -8.4721451097        9.7383268953  W2        4806            0.0000000000
     13283      4428  TIP3      H1            -28.5142562818       -8.7949151097        8.8870168953  W2        4806            0.0000000000
     13284      4428  TIP3      H2            -28.5429862818       -7.5724751097        9.7795868953  W2        4806            0.0000000000
     13285      4429  TIP3      OH2           -24.9118262818      -17.4686051097       12.5017568953  W2        4808            0.0000000000
     13286      4429  TIP3      H1            -25.1270262818      -18.2342651097       13.0343568953  W2        4808            0.0000000000
     13287      4429  TIP3      H2            -24.2560862818      -16.9961451097       13.0146068953  W2        4808            0.0000000000
     13288      4430  TIP3      OH2           -35.9940162818      -16.0800751097       14.1466368953  W2        4809            0.0000000000
     13289      4430  TIP3      H1            -35.3803862818      -15.4473151097       14.5198768953  W2        4809            0.0000000000
     13290      4430  TIP3      H2            -35.4819462818      -16.5525751097       13.4903268953  W2        4809            0.0000000000
     13291      4431  TIP3      OH2           -38.4900862818       -8.6615951097        8.0508668953  W2        4811            0.0000000000
     13292      4431  TIP3      H1            -38.7619962818       -8.4324951097        7.1621568953  W2        4811            0.0000000000
     13293      4431  TIP3      H2            -38.4445162818       -7.8237151097        8.5113968953  W2        4811            0.0000000000
     13294      4432  TIP3      OH2           -24.8651162818       -7.0400051097       14.7637168953  W2        4812            0.0000000000
     13295      4432  TIP3      H1            -25.8067462818       -6.9816151097       14.9254068953  W2        4812            0.0000000000
     13296      4432  TIP3      H2            -24.5885062818       -6.1339551097       14.6266868953  W2        4812            0.0000000000
     13297      4433  TIP3      OH2           -31.5612762818      -20.6667451097       13.6469068953  W2        4814            0.0000000000
     13298      4433  TIP3      H1            -31.6788562818      -21.6151451097       13.5927368953  W2        4814            0.0000000000
     13299      4433  TIP3      H2            -32.4162662818      -20.3341351097       13.9200168953  W2        4814            0.0000000000
     13300      4434  TIP3      OH2           -26.6129962818       -5.2586551097       11.3888768953  W2        4815            0.0000000000
     13301      4434  TIP3      H1            -26.1877662818       -5.9658651097       10.9038368953  W2        4815            0.0000000000
     13302      4434  TIP3      H2            -26.2959962818       -4.4573851097       10.9720968953  W2        4815            0.0000000000
     13303      4435  TIP3      OH2           -25.4533462818       -7.3578051097        9.8975368953  W2        4816            0.0000000000
     13304      4435  TIP3      H1            -25.7108662818       -8.0477951097        9.2861268953  W2        4816            0.0000000000
     13305      4435  TIP3      H2            -25.3822662818       -7.8006851097       10.7431268953  W2        4816            0.0000000000
     13306      4436  TIP3      OH2           -29.2947862818      -11.8291851097        8.1474868953  W2        4818            0.0000000000
     13307      4436  TIP3      H1            -30.0062362818      -11.2942151097        7.7955368953  W2        4818            0.0000000000
     13308      4436  TIP3      H2            -28.6038262818      -11.7739751097        7.4873768953  W2        4818            0.0000000000
     13309      4437  TIP3      OH2           -29.2408662818      -13.3717551097        5.1859868953  W2        4819            0.0000000000
     13310      4437  TIP3      H1            -28.5398762818      -13.3490651097        5.8373868953  W2        4819            0.0000000000
     13311      4437  TIP3      H2            -28.9385762818      -13.9997851097        4.5299168953  W2        4819            0.0000000000
     13312      4438  TIP3      OH2           -25.8890162818      -11.6198551097        9.0990768953  W2        4821            0.0000000000
     13313      4438  TIP3      H1            -26.6209162818      -11.3914851097        9.6721368953  W2        4821            0.0000000000
     13314      4438  TIP3      H2            -25.4417962818      -12.3335851097        9.5538268953  W2        4821            0.0000000000
     13315      4439  TIP3      OH2           -34.2436462818      -10.9892351097       10.9815768953  W2        4823            0.0000000000
     13316      4439  TIP3      H1            -34.5741262818      -11.3598951097       10.1632768953  W2        4823            0.0000000000
     13317      4439  TIP3      H2            -33.6552362818      -11.6598351097       11.3284068953  W2        4823            0.0000000000
     13318      4440  TIP3      OH2           -32.8768962818       -7.5611751097       13.6627968953  W2        4824            0.0000000000
     13319      4440  TIP3      H1            -32.9717662818       -8.1398651097       12.9062568953  W2        4824            0.0000000000
     13320      4440  TIP3      H2            -32.1475362818       -7.9326051097       14.1590768953  W2        4824            0.0000000000
     13321      4441  TIP3      OH2           -33.8770962818      -12.2206751097       14.6150768953  W2        4825            0.0000000000
     13322      4441  TIP3      H1            -33.3118462818      -12.0992551097       13.8521968953  W2        4825            0.0000000000
     13323      4441  TIP3      H2            -33.5582062818      -11.5831751097       15.2539268953  W2        4825            0.0000000000
     13324      4442  TIP3      OH2           -27.0180662818      -12.4575651097        6.7841968953  W2        4828            0.0000000000
     13325      4442  TIP3      H1            -26.4385162818      -12.3075351097        7.5310868953  W2        4828            0.0000000000
     13326      4442  TIP3      H2            -26.6040662818      -11.9868251097        6.0608368953  W2        4828            0.0000000000
     13327      4443  TIP3      OH2           -29.2915762818       -5.7207151097       10.2195068953  W2        4830            0.0000000000
     13328      4443  TIP3      H1            -28.8178162818       -5.4250851097       10.9969268953  W2        4830            0.0000000000
     13329      4443  TIP3      H2            -29.8546462818       -4.9825551097        9.9864668953  W2        4830            0.0000000000
     13330      4444  TIP3      OH2           -23.3192262818      -20.7075251097        6.5971668953  W2        4832            0.0000000000
     13331      4444  TIP3      H1            -24.2191562818      -20.5686251097        6.8922268953  W2        4832            0.0000000000
     13332      4444  TIP3      H2            -23.0673862818      -19.8760651097        6.1953368953  W2        4832            0.0000000000
     13333      4445  TIP3      OH2           -35.2533762818      -11.9198051097        8.5708568953  W2        4833            0.0000000000
     13334      4445  TIP3      H1            -35.5452462818      -11.1516351097        8.0799868953  W2        4833            0.0000000000
     13335      4445  TIP3      H2            -35.9278562818      -12.5791851097        8.4079968953  W2        4833            0.0000000000
     13336      4446  TIP3      OH2           -22.1300862818       -6.3412851097        4.9735568953  W2        4834            0.0000000000
     13337      4446  TIP3      H1            -22.0567362818       -5.4022651097        5.1440868953  W2        4834            0.0000000000
     13338      4446  TIP3      H2            -21.2245762818       -6.6464251097        4.9172868953  W2        4834            0.0000000000
     13339      4447  TIP3      OH2           -39.4100962818       -6.7765051097       14.2698568953  W2        4836            0.0000000000
     13340      4447  TIP3      H1            -38.4640362818       -6.9208051097       14.2508068953  W2        4836            0.0000000000
     13341      4447  TIP3      H2            -39.5224662818       -5.9922251097       14.8069768953  W2        4836            0.0000000000
     13342      4448  TIP3      OH2           -29.8192662818       -2.7642451097        8.6344268953  W2        4839            0.0000000000
     13343      4448  TIP3      H1            -29.8946662818       -2.8855251097        7.6879468953  W2        4839            0.0000000000
     13344      4448  TIP3      H2            -29.7863962818       -1.8149751097        8.7528868953  W2        4839            0.0000000000
     13345      4449  TIP3      OH2           -36.1658862818       -3.9755451097       10.4153268953  W2        4840            0.0000000000
     13346      4449  TIP3      H1            -36.0138462818       -4.3235051097       11.2939768953  W2        4840            0.0000000000
     13347      4449  TIP3      H2            -37.0168462818       -4.3318151097       10.1600468953  W2        4840            0.0000000000
     13348      4450  TIP3      OH2           -26.7176662818       -3.6102251097        5.6366668953  W2        4841            0.0000000000
     13349      4450  TIP3      H1            -26.3428262818       -4.3546151097        5.1659268953  W2        4841            0.0000000000
     13350      4450  TIP3      H2            -26.7132962818       -3.8801651097        6.5549968953  W2        4841            0.0000000000
     13351      4451  TIP3      OH2           -27.0488562818       -3.6845151097        8.3858868953  W2        4842            0.0000000000
     13352      4451  TIP3      H1            -27.9838762818       -3.5843251097        8.5645868953  W2        4842            0.0000000000
     13353      4451  TIP3      H2            -26.7686662818       -4.3939151097        8.9642068953  W2        4842            0.0000000000
     13354      4452  TIP3      OH2           -34.2925162818      -19.7632951097       14.4245368953  W2        4845            0.0000000000
     13355      4452  TIP3      H1            -35.1541462818      -19.8504751097       14.0168268953  W2        4845            0.0000000000
     13356      4452  TIP3      H2            -34.3149462818      -18.9072851097       14.8522968953  W2        4845            0.0000000000
     13357      4453  TIP3      OH2           -25.5407562818      -11.4247351097        4.4139868953  W2        4848            0.0000000000
     13358      4453  TIP3      H1            -25.4986762818      -11.6473451097        3.4839868953  W2        4848            0.0000000000
     13359      4453  TIP3      H2            -24.6915462818      -11.0260251097        4.6039768953  W2        4848            0.0000000000
     13360      4454  TIP3      OH2           -29.9680062818      -17.5489151097        5.0843168953  W2        4849            0.0000000000
     13361      4454  TIP3      H1            -30.2215262818      -17.5297551097        6.0071268953  W2        4849            0.0000000000
     13362      4454  TIP3      H2            -30.2247962818      -18.4203751097        4.7829368953  W2        4849            0.0000000000
     13363      4455  TIP3      OH2           -34.2045962818      -14.5768351097       10.4315568953  W2        4851            0.0000000000
     13364      4455  TIP3      H1            -35.0973062818      -14.9172251097       10.3729368953  W2        4851            0.0000000000
     13365      4455  TIP3      H2            -33.7539362818      -14.9537451097        9.6758768953  W2        4851            0.0000000000
     13366      4456  TIP3      OH2           -28.6690462818      -14.1608051097        9.2486368953  W2        4852            0.0000000000
     13367      4456  TIP3      H1            -29.0780162818      -13.3459451097        8.9571168953  W2        4852            0.0000000000
     13368      4456  TIP3      H2            -27.9484262818      -14.3007951097        8.6343468953  W2        4852            0.0000000000
     13369      4457  TIP3      OH2           -27.6642762818      -14.7147651097       12.0626068953  W2        4854            0.0000000000
     13370      4457  TIP3      H1            -27.8598262818      -14.1090851097       11.3476668953  W2        4854            0.0000000000
     13371      4457  TIP3      H2            -27.4830162818      -15.5482451097       11.6282368953  W2        4854            0.0000000000
     13372      4458  TIP3      OH2           -33.0857162818      -17.1032651097        4.1853568953  W2        4856            0.0000000000
     13373      4458  TIP3      H1            -33.5166462818      -17.5482551097        4.9150968953  W2        4856            0.0000000000
     13374      4458  TIP3      H2            -33.8038462818      -16.7316351097        3.6731068953  W2        4856            0.0000000000
     13375      4459  TIP3      OH2           -39.8433762818      -17.3613151097       11.2372268953  W2        4857            0.0000000000
     13376      4459  TIP3      H1            -39.2126062818      -17.3901051097       11.9566168953  W2        4857            0.0000000000
     13377      4459  TIP3      H2            -39.3939462818      -17.7864451097       10.5068168953  W2        4857            0.0000000000
     13378      4460  TIP3      OH2           -38.5691662818      -16.6151151097        6.6612668953  W2        4858            0.0000000000
     13379      4460  TIP3      H1            -38.0949962818      -16.0241251097        6.0763568953  W2        4858            0.0000000000
     13380      4460  TIP3      H2            -39.2865262818      -16.0848251097        7.0082768953  W2        4858            0.0000000000
     13381      4461  TIP3      OH2           -31.6230662818      -17.1490851097       11.5179668953  W2        4860            0.0000000000
     13382      4461  TIP3      H1            -32.5339562818      -17.0924051097       11.8065668953  W2        4860            0.0000000000
     13383      4461  TIP3      H2            -31.1177762818      -17.2095351097       12.3286868953  W2        4860            0.0000000000
     13384      4462  TIP3      OH2           -36.7947262818      -15.5204551097       10.3447268953  W2        4861            0.0000000000
     13385      4462  TIP3      H1            -37.6839262818      -15.4209051097       10.0046868953  W2        4861            0.0000000000
     13386      4462  TIP3      H2            -36.4982362818      -16.3621551097        9.9985168953  W2        4861            0.0000000000
     13387      4463  TIP3      OH2           -33.1415462818      -15.5201951097        8.0011868953  W2        4862            0.0000000000
     13388      4463  TIP3      H1            -32.2099962818      -15.3911951097        8.1794968953  W2        4862            0.0000000000
     13389      4463  TIP3      H2            -33.3565162818      -14.8507651097        7.3516568953  W2        4862            0.0000000000
     13390      4464  TIP3      OH2           -27.2178762818      -17.9144551097       14.7821468953  W2        4863            0.0000000000
     13391      4464  TIP3      H1            -27.8947162818      -17.7831451097       15.4461168953  W2        4863            0.0000000000
     13392      4464  TIP3      H2            -27.7033862818      -18.0695051097       13.9719168953  W2        4863            0.0000000000
     13393      4465  TIP3      OH2           -34.4675262818      -14.3259751097        5.5677968953  W2        4864            0.0000000000
     13394      4465  TIP3      H1            -35.0100162818      -14.7055951097        4.8765568953  W2        4864            0.0000000000
     13395      4465  TIP3      H2            -33.6340362818      -14.1315051097        5.1392068953  W2        4864            0.0000000000
     13396      4466  TIP3      OH2           -30.3030962818      -14.3617851097       13.4049268953  W2        4867            0.0000000000
     13397      4466  TIP3      H1            -29.7387562818      -14.9081251097       12.8578868953  W2        4867            0.0000000000
     13398      4466  TIP3      H2            -30.4507562818      -14.8835951097       14.1936868953  W2        4867            0.0000000000
     13399      4467  TIP3      OH2           -35.3011262818      -18.2251751097        9.8234068953  W2        4868            0.0000000000
     13400      4467  TIP3      H1            -35.6181762818      -19.1276451097        9.7879468953  W2        4868            0.0000000000
     13401      4467  TIP3      H2            -34.5197162818      -18.2234351097        9.2705668953  W2        4868            0.0000000000
     13402      4468  TIP3      OH2           -31.1322462818       -9.7604051097        7.5036068953  W2        4870            0.0000000000
     13403      4468  TIP3      H1            -31.8771462818      -10.2678751097        7.1813968953  W2        4870            0.0000000000
     13404      4468  TIP3      H2            -31.2665262818       -9.7116051097        8.4500868953  W2        4870            0.0000000000
     13405      4469  TIP3      OH2           -27.2345662818      -16.9464151097        5.7028668953  W2        4872            0.0000000000
     13406      4469  TIP3      H1            -28.1731462818      -16.8348551097        5.5517468953  W2        4872            0.0000000000
     13407      4469  TIP3      H2            -26.9373562818      -16.0897251097        6.0094368953  W2        4872            0.0000000000
     13408      4470  TIP3      OH2           -26.5162162818      -15.0791451097        7.3636068953  W2        4874            0.0000000000
     13409      4470  TIP3      H1            -25.6243162818      -15.2166451097        7.6827268953  W2        4874            0.0000000000
     13410      4470  TIP3      H2            -26.4598562818      -14.2885351097        6.8269568953  W2        4874            0.0000000000
     13411      4471  TIP3      OH2           -36.0074162818      -10.4654051097       13.2733968953  W2        4875            0.0000000000
     13412      4471  TIP3      H1            -35.2626962818      -10.4678351097       12.6720468953  W2        4875            0.0000000000
     13413      4471  TIP3      H2            -35.9297562818      -11.2890251097       13.7549068953  W2        4875            0.0000000000
     13414      4472  TIP3      OH2           -29.0068362818       -8.3019751097        6.5290668953  W2        4876            0.0000000000
     13415      4472  TIP3      H1            -29.3019962818       -7.4751851097        6.9105468953  W2        4876            0.0000000000
     13416      4472  TIP3      H2            -29.7098362818       -8.9212851097        6.7252068953  W2        4876            0.0000000000
     13417      4473  TIP3      OH2           -21.6313462818      -14.8697351097        7.0582768953  W2        4880            0.0000000000
     13418      4473  TIP3      H1            -22.1857162818      -15.2659351097        6.3860268953  W2        4880            0.0000000000
     13419      4473  TIP3      H2            -21.5309862818      -13.9592151097        6.7806068953  W2        4880            0.0000000000
     13420      4474  TIP3      OH2           -23.3361762818       -6.0836951097        7.5234868953  W2        4882            0.0000000000
     13421      4474  TIP3      H1            -23.7090662818       -6.9093151097        7.8325468953  W2        4882            0.0000000000
     13422      4474  TIP3      H2            -23.0588262818       -6.2667551097        6.6258268953  W2        4882            0.0000000000
     13423      4475  TIP3      OH2           -26.1757862818      -11.2757451097       14.5446768953  W2        4883            0.0000000000
     13424      4475  TIP3      H1            -27.1040962818      -11.5075551097       14.5176068953  W2        4883            0.0000000000
     13425      4475  TIP3      H2            -25.7246762818      -12.0527651097       14.2145568953  W2        4883            0.0000000000
     13426      4476  TIP3      OH2           -33.6324762818       -6.9475851097       10.6775468953  W2        4884            0.0000000000
     13427      4476  TIP3      H1            -33.1052562818       -6.1741451097       10.4774268953  W2        4884            0.0000000000
     13428      4476  TIP3      H2            -34.5126262818       -6.7226651097       10.3759468953  W2        4884            0.0000000000
     13429      4477  TIP3      OH2           -37.8777062818      -12.0851751097        5.2647868953  W2        4885            0.0000000000
     13430      4477  TIP3      H1            -37.2617162818      -11.4584551097        5.6442668953  W2        4885            0.0000000000
     13431      4477  TIP3      H2            -38.7394462818      -11.7691951097        5.5364368953  W2        4885            0.0000000000
     13432      4478  TIP3      OH2           -32.2052462818       -9.2845951097       10.2539768953  W2        4886            0.0000000000
     13433      4478  TIP3      H1            -32.4462462818       -8.3591551097       10.2955068953  W2        4886            0.0000000000
     13434      4478  TIP3      H2            -32.9458862818       -9.7434651097       10.6503668953  W2        4886            0.0000000000
     13435      4479  TIP3      OH2           -33.5221662818       -4.2628351097        9.7991968953  W2        4888            0.0000000000
     13436      4479  TIP3      H1            -34.4721162818       -4.1570951097        9.8505268953  W2        4888            0.0000000000
     13437      4479  TIP3      H2            -33.1703562818       -3.4420951097       10.1439468953  W2        4888            0.0000000000
     13438      4480  TIP3      OH2           -25.9436162818       -8.1071151097        5.3435468953  W2        4890            0.0000000000
     13439      4480  TIP3      H1            -25.5903062818       -8.4871351097        6.1478968953  W2        4890            0.0000000000
     13440      4480  TIP3      H2            -26.8922662818       -8.2006351097        5.4304768953  W2        4890            0.0000000000
     13441      4481  TIP3      OH2           -21.4401762818       -3.6278651097        5.5445668953  W2        4892            0.0000000000
     13442      4481  TIP3      H1            -20.6963862818       -3.0418151097        5.4047268953  W2        4892            0.0000000000
     13443      4481  TIP3      H2            -22.1343662818       -3.0592851097        5.8778068953  W2        4892            0.0000000000
     13444      4482  TIP3      OH2           -25.0776862818       -9.4349151097        7.5703368953  W2        4894            0.0000000000
     13445      4482  TIP3      H1            -25.3549262818      -10.1629851097        8.1264468953  W2        4894            0.0000000000
     13446      4482  TIP3      H2            -24.1503862818       -9.3157151097        7.7755968953  W2        4894            0.0000000000
     13447      4483  TIP3      OH2           -31.8528362818       -6.9955051097        3.7905468953  W2        4896            0.0000000000
     13448      4483  TIP3      H1            -31.6138562818       -7.7436951097        3.2434368953  W2        4896            0.0000000000
     13449      4483  TIP3      H2            -32.1217062818       -7.3833351097        4.6233268953  W2        4896            0.0000000000
     13450      4484  TIP3      OH2           -32.9157762818       -7.4251251097        6.2468068953  W2        4897            0.0000000000
     13451      4484  TIP3      H1            -32.7689762818       -7.9451451097        7.0368968953  W2        4897            0.0000000000
     13452      4484  TIP3      H2            -32.9186062818       -6.5183651097        6.5533968953  W2        4897            0.0000000000
     13453      4485  TIP3      OH2           -36.4626662818      -10.1727951097        6.7573468953  W2        4898            0.0000000000
     13454      4485  TIP3      H1            -37.1487362818       -9.8205451097        7.3243168953  W2        4898            0.0000000000
     13455      4485  TIP3      H2            -35.9398762818       -9.4098351097        6.5107768953  W2        4898            0.0000000000
     13456      4486  TIP3      OH2           -27.8466662818      -17.8582451097        8.1334768953  W2        4900            0.0000000000
     13457      4486  TIP3      H1            -27.6268362818      -17.3867051097        7.3300168953  W2        4900            0.0000000000
     13458      4486  TIP3      H2            -27.2882662818      -17.4639851097        8.8035368953  W2        4900            0.0000000000
     13459      4487  TIP3      OH2           -30.1780562818       -5.7277651097        6.9962268953  W2        4901            0.0000000000
     13460      4487  TIP3      H1            -30.9944462818       -5.2307951097        7.0486568953  W2        4901            0.0000000000
     13461      4487  TIP3      H2            -29.6484262818       -5.2524151097        6.3561068953  W2        4901            0.0000000000
     13462      4488  TIP3      OH2           -30.6466762818      -16.1303651097        8.9683168953  W2        4902            0.0000000000
     13463      4488  TIP3      H1            -29.8344162818      -15.6260451097        9.0144868953  W2        4902            0.0000000000
     13464      4488  TIP3      H2            -30.8913762818      -16.2753951097        9.8822768953  W2        4902            0.0000000000
     13465      4489  TIP3      OH2           -29.7630062818      -19.0490651097        9.9064268953  W2        4904            0.0000000000
     13466      4489  TIP3      H1            -30.1096562818      -18.4320051097       10.5508568953  W2        4904            0.0000000000
     13467      4489  TIP3      H2            -29.1043162818      -18.5484951097        9.4249768953  W2        4904            0.0000000000
     13468      4490  TIP3      OH2           -32.8397462818       -4.6840451097        6.9779168953  W2        4905            0.0000000000
     13469      4490  TIP3      H1            -32.6788762818       -3.8842951097        6.4771768953  W2        4905            0.0000000000
     13470      4490  TIP3      H2            -33.0369662818       -4.3774451097        7.8629768953  W2        4905            0.0000000000
     13471      4491  TIP3      OH2           -34.1053062818      -17.9861251097        6.5936768953  W2        4906            0.0000000000
     13472      4491  TIP3      H1            -34.1888262818      -17.0978151097        6.9403168953  W2        4906            0.0000000000
     13473      4491  TIP3      H2            -33.2152762818      -18.2514551097        6.8253568953  W2        4906            0.0000000000
     13474      4492  TIP3      OH2           -25.3043562818      -13.4869651097       13.0836768953  W2        4908            0.0000000000
     13475      4492  TIP3      H1            -26.1019162818      -13.9019451097       12.7551768953  W2        4908            0.0000000000
     13476      4492  TIP3      H2            -24.8592462818      -14.1775951097       13.5747268953  W2        4908            0.0000000000
     13477      4493  TIP3      OH2           -35.8467762818       -7.5589051097        5.6541268953  W2        4909            0.0000000000
     13478      4493  TIP3      H1            -35.2546262818       -6.8594251097        5.9303668953  W2        4909            0.0000000000
     13479      4493  TIP3      H2            -35.3874762818       -7.9919551097        4.9345868953  W2        4909            0.0000000000
     13480      4494  TIP3      OH2           -37.5308562818      -14.8946051097        4.7700668953  W2        4910            0.0000000000
     13481      4494  TIP3      H1            -37.5755962818      -13.9552951097        4.9487668953  W2        4910            0.0000000000
     13482      4494  TIP3      H2            -38.4185362818      -15.1301151097        4.5002768953  W2        4910            0.0000000000
     13483      4495  TIP3      OH2           -24.2178962818       -4.2307151097       14.7060268953  W2        4911            0.0000000000
     13484      4495  TIP3      H1            -24.3734662818       -3.5522751097       14.0489568953  W2        4911            0.0000000000
     13485      4495  TIP3      H2            -23.2852562818       -4.1587851097       14.9090868953  W2        4911            0.0000000000
     13486      4496  TIP3      OH2           -36.7226562818      -20.1129451097       13.4431668953  W2        4912            0.0000000000
     13487      4496  TIP3      H1            -36.9516762818      -20.0536951097       12.5156668953  W2        4912            0.0000000000
     13488      4496  TIP3      H2            -37.1653162818      -20.9043951097       13.7495768953  W2        4912            0.0000000000
     13489      4497  TIP3      OH2           -37.7923262818       -6.1722351097        9.6037468953  W2        4913            0.0000000000
     13490      4497  TIP3      H1            -38.6244662818       -5.6999651097        9.6308868953  W2        4913            0.0000000000
     13491      4497  TIP3      H2            -37.2464962818       -5.6624751097        9.0050568953  W2        4913            0.0000000000
     13492      4498  TIP3      OH2           -29.8146562818       -5.1323651097        3.9291468953  W2        4916            0.0000000000
     13493      4498  TIP3      H1            -30.4585562818       -5.7635051097        4.2505168953  W2        4916            0.0000000000
     13494      4498  TIP3      H2            -29.0528262818       -5.6635651097        3.6974968953  W2        4916            0.0000000000
     13495      4499  TIP3      OH2           -25.2103662818       -5.3153751097        4.1629468953  W2        4918            0.0000000000
     13496      4499  TIP3      H1            -24.9273262818       -6.1098551097        4.6156368953  W2        4918            0.0000000000
     13497      4499  TIP3      H2            -24.4705762818       -5.0822751097        3.6020568953  W2        4918            0.0000000000
     13498      4500  TIP3      OH2           -34.2556362818       -9.4058851097        4.0204368953  W2        4920            0.0000000000
     13499      4500  TIP3      H1            -34.1912262818      -10.1999251097        4.5510768953  W2        4920            0.0000000000
     13500      4500  TIP3      H2            -33.6027162818       -9.5246051097        3.3306368953  W2        4920            0.0000000000
     13501      4501  TIP3      OH2           -28.9032962818       -8.3587151097        3.7562368953  W2        4922            0.0000000000
     13502      4501  TIP3      H1            -29.1718862818       -8.1785051097        4.6571268953  W2        4922            0.0000000000
     13503      4501  TIP3      H2            -29.1097362818       -9.2840951097        3.6248168953  W2        4922            0.0000000000
     13504      4502  TIP3      OH2           -33.1062562818      -11.4332651097        6.3262368953  W2        4925            0.0000000000
     13505      4502  TIP3      H1            -33.5660562818      -11.9174351097        7.0120868953  W2        4925            0.0000000000
     13506      4502  TIP3      H2            -32.8513862818      -12.1017251097        5.6902868953  W2        4925            0.0000000000
     13507      4503  TIP3      OH2           -32.0352162818      -13.1900851097        4.5885568953  W2        4927            0.0000000000
     13508      4503  TIP3      H1            -32.2157162818      -13.3449651097        3.6613868953  W2        4927            0.0000000000
     13509      4503  TIP3      H2            -31.0851662818      -13.0822151097        4.6333468953  W2        4927            0.0000000000
     13510      4504  TIP3      OH2           -22.6453862818      -10.8356651097        4.0343668953  W2        4929            0.0000000000
     13511      4504  TIP3      H1            -22.9189062818      -11.2601151097        3.2211968953  W2        4929            0.0000000000
     13512      4504  TIP3      H2            -22.6059762818       -9.9042151097        3.8174068953  W2        4929            0.0000000000
     13513      4505  TIP3      OH2           -32.1380462818       -2.4997151097        5.5899168953  W2        4943            0.0000000000
     13514      4505  TIP3      H1            -31.2049762818       -2.3418451097        5.7337568953  W2        4943            0.0000000000
     13515      4505  TIP3      H2            -32.4021662818       -1.8244151097        4.9650668953  W2        4943            0.0000000000
     13516      4506  TIP3      OH2           -38.5695562818       -7.8633351097        5.0727268953  W2        4944            0.0000000000
     13517      4506  TIP3      H1            -37.6556362818       -7.7844451097        5.3461168953  W2        4944            0.0000000000
     13518      4506  TIP3      H2            -38.5622462818       -8.5503751097        4.4062868953  W2        4944            0.0000000000
     13519      4507  TIP3      OH2           -39.9204962818       -2.4704851097       10.1501168953  W2        4945            0.0000000000
     13520      4507  TIP3      H1            -40.5677862818       -2.9323151097        9.6172368953  W2        4945            0.0000000000
     13521      4507  TIP3      H2            -39.5660362818       -3.1421551097       10.7327368953  W2        4945            0.0000000000
     13522      4508  TIP3      OH2           -39.0505762818       -4.3897851097       11.9547368953  W2        4946            0.0000000000
     13523      4508  TIP3      H1            -39.3848962818       -5.2700551097       12.1267568953  W2        4946            0.0000000000
     13524      4508  TIP3      H2            -38.8283362818       -4.0442851097       12.8192968953  W2        4946            0.0000000000
     13525      4509  TIP3      OH2           -22.1871062818       -9.9668551097        8.0094068953  W2        4950            0.0000000000
     13526      4509  TIP3      H1            -21.3369662818       -9.5457651097        8.1365668953  W2        4950            0.0000000000
     13527      4509  TIP3      H2            -22.1815962818      -10.7068451097        8.6165468953  W2        4950            0.0000000000
     13528      4510  TIP3      OH2           -21.7925462818      -11.9131151097        9.8329768953  W2        4951            0.0000000000
     13529      4510  TIP3      H1            -22.5190862818      -12.3928551097       10.2307368953  W2        4951            0.0000000000
     13530      4510  TIP3      H2            -21.2112162818      -11.7076451097       10.5651368953  W2        4951            0.0000000000
     13531      4511  TIP3      OH2           -22.0334262818       -9.1283651097       14.7807368953  W2        4952            0.0000000000
     13532      4511  TIP3      H1            -21.2000062818       -9.5063651097       14.5000968953  W2        4952            0.0000000000
     13533      4511  TIP3      H2            -21.9213962818       -8.1852451097       14.6616468953  W2        4952            0.0000000000
     13534      4512  TIP3      OH2           -21.5242362818      -12.0122651097        6.2241068953  W2        4954            0.0000000000
     13535      4512  TIP3      H1            -22.0461262818      -11.6558551097        5.5051968953  W2        4954            0.0000000000
     13536      4512  TIP3      H2            -21.5573162818      -11.3374851097        6.9021968953  W2        4954            0.0000000000
     13537      4513  TIP3      OH2           -23.1753362818      -14.7727051097        4.7748168953  W2        4955            0.0000000000
     13538      4513  TIP3      H1            -23.0788962818      -14.1060051097        4.0947868953  W2        4955            0.0000000000
     13539      4513  TIP3      H2            -23.3153762818      -15.5880751097        4.2933668953  W2        4955            0.0000000000
     13540      4514  TIP3      OH2           -24.0058662818      -13.3924651097       10.3958468953  W2        4956            0.0000000000
     13541      4514  TIP3      H1            -24.1559862818      -14.3376051097       10.3756268953  W2        4956            0.0000000000
     13542      4514  TIP3      H2            -24.3594162818      -13.1113251097       11.2397568953  W2        4956            0.0000000000
     13543      4515  TIP3      OH2           -38.9706262818      -11.3142451097       14.4062268953  W2        4957            0.0000000000
     13544      4515  TIP3      H1            -38.7863362818      -11.3960751097       13.4705168953  W2        4957            0.0000000000
     13545      4515  TIP3      H2            -38.1213362818      -11.4385451097       14.8298668953  W2        4957            0.0000000000
     13546      4516  TIP3      OH2           -23.9279562818      -17.3647251097        3.8923668953  W2        4960            0.0000000000
     13547      4516  TIP3      H1            -23.3173762818      -17.7360451097        4.5291868953  W2        4960            0.0000000000
     13548      4516  TIP3      H2            -24.7648062818      -17.7860351097        4.0883668953  W2        4960            0.0000000000
     13549      4517  TIP3      OH2           -24.2953862818      -15.8098851097        8.8583568953  W2        4961            0.0000000000
     13550      4517  TIP3      H1            -24.0156762818      -16.7168451097        8.9825268953  W2        4961            0.0000000000
     13551      4517  TIP3      H2            -23.5362162818      -15.3757351097        8.4692768953  W2        4961            0.0000000000
     13552      4518  TIP3      OH2           -23.6835562818      -15.2281451097       14.2942468953  W2        4962            0.0000000000
     13553      4518  TIP3      H1            -22.7507562818      -15.0161551097       14.2598468953  W2        4962            0.0000000000
     13554      4518  TIP3      H2            -23.9188062818      -15.1269351097       15.2165468953  W2        4962            0.0000000000
     13555      4519  TIP3      OH2           -23.6819062818      -18.5469551097        8.9065568953  W2        4966            0.0000000000
     13556      4519  TIP3      H1            -23.4994062818      -18.9958051097        9.7320568953  W2        4966            0.0000000000
     13557      4519  TIP3      H2            -24.2816162818      -19.1315151097        8.4430168953  W2        4966            0.0000000000
     13558      4520  TIP3      OH2           -38.1518962818      -17.7315851097       13.4383968953  W2        4967            0.0000000000
     13559      4520  TIP3      H1            -37.7067362818      -18.5233351097       13.7403668953  W2        4967            0.0000000000
     13560      4520  TIP3      H2            -37.6855962818      -17.0150651097       13.8689568953  W2        4967            0.0000000000
     13561      4521  TIP3      OH2           -39.8478662818      -14.7322851097       14.5074168953  W2        4968            0.0000000000
     13562      4521  TIP3      H1            -39.3558862818      -14.9532351097       13.7166168953  W2        4968            0.0000000000
     13563      4521  TIP3      H2            -39.4857762818      -13.8919451097       14.7883668953  W2        4968            0.0000000000
     13564      4522  TIP3      OH2           -21.8152862818      -18.4791451097        5.4345868953  W2        4970            0.0000000000
     13565      4522  TIP3      H1            -21.4030262818      -19.2005751097        4.9593868953  W2        4970            0.0000000000
     13566      4522  TIP3      H2            -21.1336362818      -17.8096851097        5.4930168953  W2        4970            0.0000000000
     13567      4523  TIP3      OH2           -39.5342162818      -18.4743751097        8.5616568953  W2        4971            0.0000000000
     13568      4523  TIP3      H1            -40.4593762818      -18.2657151097        8.4322068953  W2        4971            0.0000000000
     13569      4523  TIP3      H2            -39.0802262818      -17.9902951097        7.8718868953  W2        4971            0.0000000000
     13570      4524  TIP3      OH2           -24.7634962818       -3.4902051097       10.5073968953  W2        4972            0.0000000000
     13571      4524  TIP3      H1            -24.1112062818       -3.8379951097        9.8993068953  W2        4972            0.0000000000
     13572      4524  TIP3      H2            -24.2531162818       -3.0018851097       11.1533668953  W2        4972            0.0000000000
     13573      4525  TIP3      OH2           -37.6079762818       -3.7073051097       14.2665968953  W2        4984            0.0000000000
     13574      4525  TIP3      H1            -37.6263762818       -4.1327951097       15.1238268953  W2        4984            0.0000000000
     13575      4525  TIP3      H2            -36.8031862818       -4.0258051097       13.8578168953  W2        4984            0.0000000000
     13576      4526  TIP3      OH2           -35.4666662818       -4.9974351097       12.9215868953  W2        4985            0.0000000000
     13577      4526  TIP3      H1            -35.6855962818       -5.9136951097       13.0911868953  W2        4985            0.0000000000
     13578      4526  TIP3      H2            -34.6424462818       -4.8573951097       13.3877268953  W2        4985            0.0000000000
     13579      4527  TIP3      OH2           -32.9294162818       -4.5275051097       13.7703868953  W2        4986            0.0000000000
     13580      4527  TIP3      H1            -32.7168462818       -5.4156051097       13.4834768953  W2        4986            0.0000000000
     13581      4527  TIP3      H2            -32.8649062818       -4.5617351097       14.7247868953  W2        4986            0.0000000000
     13582      4528  TIP3      OH2           -29.4210462818      -18.8634451097       12.9147168953  W2        4987            0.0000000000
     13583      4528  TIP3      H1            -30.0953662818      -19.4928851097       13.1702968953  W2        4987            0.0000000000
     13584      4528  TIP3      H2            -28.8571262818      -19.3475551097       12.3115068953  W2        4987            0.0000000000
     13585      4529  TIP3      OH2           -24.2783262818      -20.7560451097       13.0274268953  W2        4988            0.0000000000
     13586      4529  TIP3      H1            -23.6745662818      -20.2085051097       12.5255268953  W2        4988            0.0000000000
     13587      4529  TIP3      H2            -25.1481262818      -20.4370051097       12.7868368953  W2        4988            0.0000000000
     13588      4530  TIP3      OH2           -22.5512862818      -19.6171751097       11.3605168953  W2        4989            0.0000000000
     13589      4530  TIP3      H1            -21.9395362818      -20.1316051097       10.8338768953  W2        4989            0.0000000000
     13590      4530  TIP3      H2            -22.1689462818      -18.7399651097       11.3839568953  W2        4989            0.0000000000
     13591      4531  TIP3      OH2           -37.0942962818      -20.2294151097       10.7367068953  W2        4990            0.0000000000
     13592      4531  TIP3      H1            -37.8713162818      -20.4639251097       10.2292968953  W2        4990            0.0000000000
     13593      4531  TIP3      H2            -36.5639362818      -21.0262051097       10.7455068953  W2        4990            0.0000000000
     13594      4532  TIP3      OH2           -38.2579562818      -20.4316051097        6.5403168953  W2        4991            0.0000000000
     13595      4532  TIP3      H1            -37.8188862818      -19.8205551097        5.9486668953  W2        4991            0.0000000000
     13596      4532  TIP3      H2            -38.8917162818      -19.8931951097        7.0143168953  W2        4991            0.0000000000
     13597      4533  TIP3      OH2           -32.5150362818      -20.3027051097       10.5500168953  W2        4992            0.0000000000
     13598      4533  TIP3      H1            -31.6406962818      -19.9142751097       10.5204468953  W2        4992            0.0000000000
     13599      4533  TIP3      H2            -32.6509562818      -20.5179251097       11.4727368953  W2        4992            0.0000000000
     13600      4534  TIP3      OH2           -26.9581962818      -20.2727251097       12.1991868953  W2        4993            0.0000000000
     13601      4534  TIP3      H1            -26.8820362818      -20.1775651097       11.2497868953  W2        4993            0.0000000000
     13602      4534  TIP3      H2            -27.2332762818      -21.1804351097       12.3280968953  W2        4993            0.0000000000
     13603      4535  TIP3      OH2           -25.6049362818      -20.2469451097        7.8916868953  W2        4994            0.0000000000
     13604      4535  TIP3      H1            -26.3078262818      -19.6320251097        7.6818268953  W2        4994            0.0000000000
     13605      4535  TIP3      H2            -26.0497962818      -21.0842751097        8.0227768953  W2        4994            0.0000000000
     13606      4536  TIP3      OH2           -38.3570062818       -4.4833851097        7.4378268953  W2        4995            0.0000000000
     13607      4536  TIP3      H1            -39.0420162818       -4.5214951097        6.7703368953  W2        4995            0.0000000000
     13608      4536  TIP3      H2            -38.3532862818       -3.5706251097        7.7260368953  W2        4995            0.0000000000
     13609      4537  TIP3      OH2           -36.3970462818      -18.5154551097        4.9827268953  W2        4996            0.0000000000
     13610      4537  TIP3      H1            -35.9057062818      -19.1452151097        4.4552768953  W2        4996            0.0000000000
     13611      4537  TIP3      H2            -35.7734162818      -18.2195151097        5.6458468953  W2        4996            0.0000000000
     13612      4538  TIP3      OH2           -31.3710362818      -18.2223051097        7.4397768953  W2        4997            0.0000000000
     13613      4538  TIP3      H1            -31.1929062818      -18.8689851097        8.1226368953  W2        4997            0.0000000000
     13614      4538  TIP3      H2            -31.4244162818      -17.3885351097        7.9068868953  W2        4997            0.0000000000
     13615      4539  TIP3      OH2           -29.4926562818       -3.2738951097        5.8354468953  W2        4998            0.0000000000
     13616      4539  TIP3      H1            -28.6266362818       -2.9071551097        5.6572668953  W2        4998            0.0000000000
     13617      4539  TIP3      H2            -29.7393762818       -3.7130951097        5.0215268953  W2        4998            0.0000000000
     13618      4540  TIP3      OH2           -22.7836962818       -3.7108651097        8.5145568953  W2        4999            0.0000000000
     13619      4540  TIP3      H1            -22.9779862818       -4.4586551097        7.9495168953  W2        4999            0.0000000000
     13620      4540  TIP3      H2            -22.8226862818       -2.9528551097        7.9313468953  W2        4999            0.0000000000
     13621      4541  TIP3      OH2           -36.5388862818       -3.5633051097        4.4630368953  W2        5002            0.0000000000
     13622      4541  TIP3      H1            -36.8064262818       -3.2770151097        5.3363468953  W2        5002            0.0000000000
     13623      4541  TIP3      H2            -35.7676262818       -4.1093851097        4.6152868953  W2        5002            0.0000000000
     13624      4542  TIP3      OH2            -9.1600362818      -11.0731851097       10.6954568953  W2        5005            0.0000000000
     13625      4542  TIP3      H1             -9.0709262818      -10.1293651097       10.5631668953  W2        5005            0.0000000000
     13626      4542  TIP3      H2             -9.7982762818      -11.3485451097       10.0373968953  W2        5005            0.0000000000
     13627      4543  TIP3      OH2           -10.2269062818      -11.8181151097       14.1142768953  W2        5006            0.0000000000
     13628      4543  TIP3      H1            -10.2651562818      -12.4644851097       14.8192368953  W2        5006            0.0000000000
     13629      4543  TIP3      H2            -10.5492562818      -12.2846751097       13.3431468953  W2        5006            0.0000000000
     13630      4544  TIP3      OH2            -6.5208862818       -8.8790751097       12.4157868953  W2        5008            0.0000000000
     13631      4544  TIP3      H1             -6.9616162818       -9.5994751097       12.8663468953  W2        5008            0.0000000000
     13632      4544  TIP3      H2             -6.5339162818       -8.1583551097       13.0455568953  W2        5008            0.0000000000
     13633      4545  TIP3      OH2           -16.9350962818       -7.7540151097       14.2421768953  W2        5009            0.0000000000
     13634      4545  TIP3      H1            -17.3045762818       -8.5559651097       13.8726068953  W2        5009            0.0000000000
     13635      4545  TIP3      H2            -15.9939862818       -7.9225251097       14.2885168953  W2        5009            0.0000000000
     13636      4546  TIP3      OH2           -20.3250462818      -14.0937551097        9.6350568953  W2        5010            0.0000000000
     13637      4546  TIP3      H1            -20.7727062818      -13.2478851097        9.6167068953  W2        5010            0.0000000000
     13638      4546  TIP3      H2            -20.8859262818      -14.6733351097        9.1195668953  W2        5010            0.0000000000
     13639      4547  TIP3      OH2           -19.6144362818      -11.9317951097       11.7608568953  W2        5011            0.0000000000
     13640      4547  TIP3      H1            -19.4010862818      -12.7016351097       12.2881568953  W2        5011            0.0000000000
     13641      4547  TIP3      H2            -18.8766762818      -11.8421251097       11.1576168953  W2        5011            0.0000000000
     13642      4548  TIP3      OH2            -9.4093362818       -3.7749051097       12.6278268953  W2        5012            0.0000000000
     13643      4548  TIP3      H1             -8.7896962818       -4.4514351097       12.3547468953  W2        5012            0.0000000000
     13644      4548  TIP3      H2             -9.6175962818       -3.9928251097       13.5363168953  W2        5012            0.0000000000
     13645      4549  TIP3      OH2           -11.8374662818       -9.3859751097       14.5203768953  W2        5013            0.0000000000
     13646      4549  TIP3      H1            -11.5336762818      -10.0718351097       13.9257868953  W2        5013            0.0000000000
     13647      4549  TIP3      H2            -11.1160662818       -9.2671051097       15.1381768953  W2        5013            0.0000000000
     13648      4550  TIP3      OH2            -8.6967662818      -14.9917351097       14.8478568953  W2        5015            0.0000000000
     13649      4550  TIP3      H1             -8.5541762818      -15.9380351097       14.8680168953  W2        5015            0.0000000000
     13650      4550  TIP3      H2             -8.8028662818      -14.7847551097       13.9193468953  W2        5015            0.0000000000
     13651      4551  TIP3      OH2           -15.5419362818      -16.8900951097       12.1203368953  W2        5016            0.0000000000
     13652      4551  TIP3      H1            -15.4988262818      -16.0302451097       11.7019668953  W2        5016            0.0000000000
     13653      4551  TIP3      H2            -15.9995262818      -17.4426251097       11.4866568953  W2        5016            0.0000000000
     13654      4552  TIP3      OH2            -7.8196662818      -16.7595351097       10.5211668953  W2        5017            0.0000000000
     13655      4552  TIP3      H1             -7.1732362818      -17.0882151097       11.1459268953  W2        5017            0.0000000000
     13656      4552  TIP3      H2             -7.3097262818      -16.2416351097        9.8983068953  W2        5017            0.0000000000
     13657      4553  TIP3      OH2           -18.9217862818      -14.4935151097       12.8824768953  W2        5018            0.0000000000
     13658      4553  TIP3      H1            -18.2681262818      -15.0433451097       13.3144868953  W2        5018            0.0000000000
     13659      4553  TIP3      H2            -18.8978562818      -14.7676151097       11.9656768953  W2        5018            0.0000000000
     13660      4554  TIP3      OH2           -13.7653362818      -12.9433851097       12.0976268953  W2        5019            0.0000000000
     13661      4554  TIP3      H1            -13.1492362818      -13.4698451097       12.6070268953  W2        5019            0.0000000000
     13662      4554  TIP3      H2            -14.3514562818      -13.5835151097       11.6939868953  W2        5019            0.0000000000
     13663      4555  TIP3      OH2            -9.3627662818       -8.4721451097        9.7383268953  W2        5022            0.0000000000
     13664      4555  TIP3      H1             -9.6582562818       -8.7949151097        8.8870168953  W2        5022            0.0000000000
     13665      4555  TIP3      H2             -9.6869862818       -7.5724751097        9.7795868953  W2        5022            0.0000000000
     13666      4556  TIP3      OH2            -6.0558262818      -17.4686051097       12.5017568953  W2        5024            0.0000000000
     13667      4556  TIP3      H1             -6.2710262818      -18.2342651097       13.0343568953  W2        5024            0.0000000000
     13668      4556  TIP3      H2             -5.4000862818      -16.9961451097       13.0146068953  W2        5024            0.0000000000
     13669      4557  TIP3      OH2           -17.1380162818      -16.0800751097       14.1466368953  W2        5025            0.0000000000
     13670      4557  TIP3      H1            -16.5243862818      -15.4473151097       14.5198768953  W2        5025            0.0000000000
     13671      4557  TIP3      H2            -16.6259462818      -16.5525751097       13.4903268953  W2        5025            0.0000000000
     13672      4558  TIP3      OH2           -19.6340862818       -8.6615951097        8.0508668953  W2        5027            0.0000000000
     13673      4558  TIP3      H1            -19.9059962818       -8.4324951097        7.1621568953  W2        5027            0.0000000000
     13674      4558  TIP3      H2            -19.5885162818       -7.8237151097        8.5113968953  W2        5027            0.0000000000
     13675      4559  TIP3      OH2            -6.0091162818       -7.0400051097       14.7637168953  W2        5028            0.0000000000
     13676      4559  TIP3      H1             -6.9507462818       -6.9816151097       14.9254068953  W2        5028            0.0000000000
     13677      4559  TIP3      H2             -5.7325062818       -6.1339551097       14.6266868953  W2        5028            0.0000000000
     13678      4560  TIP3      OH2           -12.7052762818      -20.6667451097       13.6469068953  W2        5030            0.0000000000
     13679      4560  TIP3      H1            -12.8228562818      -21.6151451097       13.5927368953  W2        5030            0.0000000000
     13680      4560  TIP3      H2            -13.5602662818      -20.3341351097       13.9200168953  W2        5030            0.0000000000
     13681      4561  TIP3      OH2            -7.7569962818       -5.2586551097       11.3888768953  W2        5031            0.0000000000
     13682      4561  TIP3      H1             -7.3317662818       -5.9658651097       10.9038368953  W2        5031            0.0000000000
     13683      4561  TIP3      H2             -7.4399962818       -4.4573851097       10.9720968953  W2        5031            0.0000000000
     13684      4562  TIP3      OH2            -6.5973462818       -7.3578051097        9.8975368953  W2        5032            0.0000000000
     13685      4562  TIP3      H1             -6.8548662818       -8.0477951097        9.2861268953  W2        5032            0.0000000000
     13686      4562  TIP3      H2             -6.5262662818       -7.8006851097       10.7431268953  W2        5032            0.0000000000
     13687      4563  TIP3      OH2           -10.4387862818      -11.8291851097        8.1474868953  W2        5034            0.0000000000
     13688      4563  TIP3      H1            -11.1502362818      -11.2942151097        7.7955368953  W2        5034            0.0000000000
     13689      4563  TIP3      H2             -9.7478262818      -11.7739751097        7.4873768953  W2        5034            0.0000000000
     13690      4564  TIP3      OH2           -10.3848662818      -13.3717551097        5.1859868953  W2        5035            0.0000000000
     13691      4564  TIP3      H1             -9.6838762818      -13.3490651097        5.8373868953  W2        5035            0.0000000000
     13692      4564  TIP3      H2            -10.0825762818      -13.9997851097        4.5299168953  W2        5035            0.0000000000
     13693      4565  TIP3      OH2            -7.0330162818      -11.6198551097        9.0990768953  W2        5037            0.0000000000
     13694      4565  TIP3      H1             -7.7649162818      -11.3914851097        9.6721368953  W2        5037            0.0000000000
     13695      4565  TIP3      H2             -6.5857962818      -12.3335851097        9.5538268953  W2        5037            0.0000000000
     13696      4566  TIP3      OH2           -15.3876462818      -10.9892351097       10.9815768953  W2        5039            0.0000000000
     13697      4566  TIP3      H1            -15.7181262818      -11.3598951097       10.1632768953  W2        5039            0.0000000000
     13698      4566  TIP3      H2            -14.7992362818      -11.6598351097       11.3284068953  W2        5039            0.0000000000
     13699      4567  TIP3      OH2           -14.0208962818       -7.5611751097       13.6627968953  W2        5040            0.0000000000
     13700      4567  TIP3      H1            -14.1157662818       -8.1398651097       12.9062568953  W2        5040            0.0000000000
     13701      4567  TIP3      H2            -13.2915362818       -7.9326051097       14.1590768953  W2        5040            0.0000000000
     13702      4568  TIP3      OH2           -15.0210962818      -12.2206751097       14.6150768953  W2        5041            0.0000000000
     13703      4568  TIP3      H1            -14.4558462818      -12.0992551097       13.8521968953  W2        5041            0.0000000000
     13704      4568  TIP3      H2            -14.7022062818      -11.5831751097       15.2539268953  W2        5041            0.0000000000
     13705      4569  TIP3      OH2            -8.1620662818      -12.4575651097        6.7841968953  W2        5044            0.0000000000
     13706      4569  TIP3      H1             -7.5825162818      -12.3075351097        7.5310868953  W2        5044            0.0000000000
     13707      4569  TIP3      H2             -7.7480662818      -11.9868251097        6.0608368953  W2        5044            0.0000000000
     13708      4570  TIP3      OH2           -10.4355762818       -5.7207151097       10.2195068953  W2        5046            0.0000000000
     13709      4570  TIP3      H1             -9.9618162818       -5.4250851097       10.9969268953  W2        5046            0.0000000000
     13710      4570  TIP3      H2            -10.9986462818       -4.9825551097        9.9864668953  W2        5046            0.0000000000
     13711      4571  TIP3      OH2            -4.4632262818      -20.7075251097        6.5971668953  W2        5048            0.0000000000
     13712      4571  TIP3      H1             -5.3631562818      -20.5686251097        6.8922268953  W2        5048            0.0000000000
     13713      4571  TIP3      H2             -4.2113862818      -19.8760651097        6.1953368953  W2        5048            0.0000000000
     13714      4572  TIP3      OH2           -16.3973762818      -11.9198051097        8.5708568953  W2        5049            0.0000000000
     13715      4572  TIP3      H1            -16.6892462818      -11.1516351097        8.0799868953  W2        5049            0.0000000000
     13716      4572  TIP3      H2            -17.0718562818      -12.5791851097        8.4079968953  W2        5049            0.0000000000
     13717      4573  TIP3      OH2            -3.2740862818       -6.3412851097        4.9735568953  W2        5050            0.0000000000
     13718      4573  TIP3      H1             -3.2007362818       -5.4022651097        5.1440868953  W2        5050            0.0000000000
     13719      4573  TIP3      H2             -2.3685762818       -6.6464251097        4.9172868953  W2        5050            0.0000000000
     13720      4574  TIP3      OH2           -20.5540962818       -6.7765051097       14.2698568953  W2        5052            0.0000000000
     13721      4574  TIP3      H1            -19.6080362818       -6.9208051097       14.2508068953  W2        5052            0.0000000000
     13722      4574  TIP3      H2            -20.6664662818       -5.9922251097       14.8069768953  W2        5052            0.0000000000
     13723      4575  TIP3      OH2           -10.9632662818       -2.7642451097        8.6344268953  W2        5055            0.0000000000
     13724      4575  TIP3      H1            -11.0386662818       -2.8855251097        7.6879468953  W2        5055            0.0000000000
     13725      4575  TIP3      H2            -10.9303962818       -1.8149751097        8.7528868953  W2        5055            0.0000000000
     13726      4576  TIP3      OH2           -17.3098862818       -3.9755451097       10.4153268953  W2        5056            0.0000000000
     13727      4576  TIP3      H1            -17.1578462818       -4.3235051097       11.2939768953  W2        5056            0.0000000000
     13728      4576  TIP3      H2            -18.1608462818       -4.3318151097       10.1600468953  W2        5056            0.0000000000
     13729      4577  TIP3      OH2            -7.8616662818       -3.6102251097        5.6366668953  W2        5057            0.0000000000
     13730      4577  TIP3      H1             -7.4868262818       -4.3546151097        5.1659268953  W2        5057            0.0000000000
     13731      4577  TIP3      H2             -7.8572962818       -3.8801651097        6.5549968953  W2        5057            0.0000000000
     13732      4578  TIP3      OH2            -8.1928562818       -3.6845151097        8.3858868953  W2        5058            0.0000000000
     13733      4578  TIP3      H1             -9.1278762818       -3.5843251097        8.5645868953  W2        5058            0.0000000000
     13734      4578  TIP3      H2             -7.9126662818       -4.3939151097        8.9642068953  W2        5058            0.0000000000
     13735      4579  TIP3      OH2           -15.4365162818      -19.7632951097       14.4245368953  W2        5061            0.0000000000
     13736      4579  TIP3      H1            -16.2981462818      -19.8504751097       14.0168268953  W2        5061            0.0000000000
     13737      4579  TIP3      H2            -15.4589462818      -18.9072851097       14.8522968953  W2        5061            0.0000000000
     13738      4580  TIP3      OH2            -6.6847562818      -11.4247351097        4.4139868953  W2        5064            0.0000000000
     13739      4580  TIP3      H1             -6.6426762818      -11.6473451097        3.4839868953  W2        5064            0.0000000000
     13740      4580  TIP3      H2             -5.8355462818      -11.0260251097        4.6039768953  W2        5064            0.0000000000
     13741      4581  TIP3      OH2           -11.1120062818      -17.5489151097        5.0843168953  W2        5065            0.0000000000
     13742      4581  TIP3      H1            -11.3655262818      -17.5297551097        6.0071268953  W2        5065            0.0000000000
     13743      4581  TIP3      H2            -11.3687962818      -18.4203751097        4.7829368953  W2        5065            0.0000000000
     13744      4582  TIP3      OH2           -15.3485962818      -14.5768351097       10.4315568953  W2        5067            0.0000000000
     13745      4582  TIP3      H1            -16.2413062818      -14.9172251097       10.3729368953  W2        5067            0.0000000000
     13746      4582  TIP3      H2            -14.8979362818      -14.9537451097        9.6758768953  W2        5067            0.0000000000
     13747      4583  TIP3      OH2            -9.8130462818      -14.1608051097        9.2486368953  W2        5068            0.0000000000
     13748      4583  TIP3      H1            -10.2220162818      -13.3459451097        8.9571168953  W2        5068            0.0000000000
     13749      4583  TIP3      H2             -9.0924262818      -14.3007951097        8.6343468953  W2        5068            0.0000000000
     13750      4584  TIP3      OH2            -8.8082762818      -14.7147651097       12.0626068953  W2        5070            0.0000000000
     13751      4584  TIP3      H1             -9.0038262818      -14.1090851097       11.3476668953  W2        5070            0.0000000000
     13752      4584  TIP3      H2             -8.6270162818      -15.5482451097       11.6282368953  W2        5070            0.0000000000
     13753      4585  TIP3      OH2           -14.2297162818      -17.1032651097        4.1853568953  W2        5072            0.0000000000
     13754      4585  TIP3      H1            -14.6606462818      -17.5482551097        4.9150968953  W2        5072            0.0000000000
     13755      4585  TIP3      H2            -14.9478462818      -16.7316351097        3.6731068953  W2        5072            0.0000000000
     13756      4586  TIP3      OH2           -20.9873762818      -17.3613151097       11.2372268953  W2        5073            0.0000000000
     13757      4586  TIP3      H1            -20.3566062818      -17.3901051097       11.9566168953  W2        5073            0.0000000000
     13758      4586  TIP3      H2            -20.5379462818      -17.7864451097       10.5068168953  W2        5073            0.0000000000
     13759      4587  TIP3      OH2           -19.7131662818      -16.6151151097        6.6612668953  W2        5074            0.0000000000
     13760      4587  TIP3      H1            -19.2389962818      -16.0241251097        6.0763568953  W2        5074            0.0000000000
     13761      4587  TIP3      H2            -20.4305262818      -16.0848251097        7.0082768953  W2        5074            0.0000000000
     13762      4588  TIP3      OH2           -12.7670662818      -17.1490851097       11.5179668953  W2        5076            0.0000000000
     13763      4588  TIP3      H1            -13.6779562818      -17.0924051097       11.8065668953  W2        5076            0.0000000000
     13764      4588  TIP3      H2            -12.2617762818      -17.2095351097       12.3286868953  W2        5076            0.0000000000
     13765      4589  TIP3      OH2           -17.9387262818      -15.5204551097       10.3447268953  W2        5077            0.0000000000
     13766      4589  TIP3      H1            -18.8279262818      -15.4209051097       10.0046868953  W2        5077            0.0000000000
     13767      4589  TIP3      H2            -17.6422362818      -16.3621551097        9.9985168953  W2        5077            0.0000000000
     13768      4590  TIP3      OH2           -14.2855462818      -15.5201951097        8.0011868953  W2        5078            0.0000000000
     13769      4590  TIP3      H1            -13.3539962818      -15.3911951097        8.1794968953  W2        5078            0.0000000000
     13770      4590  TIP3      H2            -14.5005162818      -14.8507651097        7.3516568953  W2        5078            0.0000000000
     13771      4591  TIP3      OH2            -8.3618762818      -17.9144551097       14.7821468953  W2        5079            0.0000000000
     13772      4591  TIP3      H1             -9.0387162818      -17.7831451097       15.4461168953  W2        5079            0.0000000000
     13773      4591  TIP3      H2             -8.8473862818      -18.0695051097       13.9719168953  W2        5079            0.0000000000
     13774      4592  TIP3      OH2           -15.6115262818      -14.3259751097        5.5677968953  W2        5080            0.0000000000
     13775      4592  TIP3      H1            -16.1540162818      -14.7055951097        4.8765568953  W2        5080            0.0000000000
     13776      4592  TIP3      H2            -14.7780362818      -14.1315051097        5.1392068953  W2        5080            0.0000000000
     13777      4593  TIP3      OH2           -11.4470962818      -14.3617851097       13.4049268953  W2        5083            0.0000000000
     13778      4593  TIP3      H1            -10.8827562818      -14.9081251097       12.8578868953  W2        5083            0.0000000000
     13779      4593  TIP3      H2            -11.5947562818      -14.8835951097       14.1936868953  W2        5083            0.0000000000
     13780      4594  TIP3      OH2           -16.4451262818      -18.2251751097        9.8234068953  W2        5084            0.0000000000
     13781      4594  TIP3      H1            -16.7621762818      -19.1276451097        9.7879468953  W2        5084            0.0000000000
     13782      4594  TIP3      H2            -15.6637162818      -18.2234351097        9.2705668953  W2        5084            0.0000000000
     13783      4595  TIP3      OH2           -12.2762462818       -9.7604051097        7.5036068953  W2        5086            0.0000000000
     13784      4595  TIP3      H1            -13.0211462818      -10.2678751097        7.1813968953  W2        5086            0.0000000000
     13785      4595  TIP3      H2            -12.4105262818       -9.7116051097        8.4500868953  W2        5086            0.0000000000
     13786      4596  TIP3      OH2            -8.3785662818      -16.9464151097        5.7028668953  W2        5088            0.0000000000
     13787      4596  TIP3      H1             -9.3171462818      -16.8348551097        5.5517468953  W2        5088            0.0000000000
     13788      4596  TIP3      H2             -8.0813562818      -16.0897251097        6.0094368953  W2        5088            0.0000000000
     13789      4597  TIP3      OH2            -7.6602162818      -15.0791451097        7.3636068953  W2        5090            0.0000000000
     13790      4597  TIP3      H1             -6.7683162818      -15.2166451097        7.6827268953  W2        5090            0.0000000000
     13791      4597  TIP3      H2             -7.6038562818      -14.2885351097        6.8269568953  W2        5090            0.0000000000
     13792      4598  TIP3      OH2           -17.1514162818      -10.4654051097       13.2733968953  W2        5091            0.0000000000
     13793      4598  TIP3      H1            -16.4066962818      -10.4678351097       12.6720468953  W2        5091            0.0000000000
     13794      4598  TIP3      H2            -17.0737562818      -11.2890251097       13.7549068953  W2        5091            0.0000000000
     13795      4599  TIP3      OH2           -10.1508362818       -8.3019751097        6.5290668953  W2        5092            0.0000000000
     13796      4599  TIP3      H1            -10.4459962818       -7.4751851097        6.9105468953  W2        5092            0.0000000000
     13797      4599  TIP3      H2            -10.8538362818       -8.9212851097        6.7252068953  W2        5092            0.0000000000
     13798      4600  TIP3      OH2            -2.7753462818      -14.8697351097        7.0582768953  W2        5096            0.0000000000
     13799      4600  TIP3      H1             -3.3297162818      -15.2659351097        6.3860268953  W2        5096            0.0000000000
     13800      4600  TIP3      H2             -2.6749862818      -13.9592151097        6.7806068953  W2        5096            0.0000000000
     13801      4601  TIP3      OH2            -4.4801762818       -6.0836951097        7.5234868953  W2        5098            0.0000000000
     13802      4601  TIP3      H1             -4.8530662818       -6.9093151097        7.8325468953  W2        5098            0.0000000000
     13803      4601  TIP3      H2             -4.2028262818       -6.2667551097        6.6258268953  W2        5098            0.0000000000
     13804      4602  TIP3      OH2            -7.3197862818      -11.2757451097       14.5446768953  W2        5099            0.0000000000
     13805      4602  TIP3      H1             -8.2480962818      -11.5075551097       14.5176068953  W2        5099            0.0000000000
     13806      4602  TIP3      H2             -6.8686762818      -12.0527651097       14.2145568953  W2        5099            0.0000000000
     13807      4603  TIP3      OH2           -14.7764762818       -6.9475851097       10.6775468953  W2        5100            0.0000000000
     13808      4603  TIP3      H1            -14.2492562818       -6.1741451097       10.4774268953  W2        5100            0.0000000000
     13809      4603  TIP3      H2            -15.6566262818       -6.7226651097       10.3759468953  W2        5100            0.0000000000
     13810      4604  TIP3      OH2           -19.0217062818      -12.0851751097        5.2647868953  W2        5101            0.0000000000
     13811      4604  TIP3      H1            -18.4057162818      -11.4584551097        5.6442668953  W2        5101            0.0000000000
     13812      4604  TIP3      H2            -19.8834462818      -11.7691951097        5.5364368953  W2        5101            0.0000000000
     13813      4605  TIP3      OH2           -13.3492462818       -9.2845951097       10.2539768953  W2        5102            0.0000000000
     13814      4605  TIP3      H1            -13.5902462818       -8.3591551097       10.2955068953  W2        5102            0.0000000000
     13815      4605  TIP3      H2            -14.0898862818       -9.7434651097       10.6503668953  W2        5102            0.0000000000
     13816      4606  TIP3      OH2           -14.6661662818       -4.2628351097        9.7991968953  W2        5104            0.0000000000
     13817      4606  TIP3      H1            -15.6161162818       -4.1570951097        9.8505268953  W2        5104            0.0000000000
     13818      4606  TIP3      H2            -14.3143562818       -3.4420951097       10.1439468953  W2        5104            0.0000000000
     13819      4607  TIP3      OH2            -7.0876162818       -8.1071151097        5.3435468953  W2        5106            0.0000000000
     13820      4607  TIP3      H1             -6.7343062818       -8.4871351097        6.1478968953  W2        5106            0.0000000000
     13821      4607  TIP3      H2             -8.0362662818       -8.2006351097        5.4304768953  W2        5106            0.0000000000
     13822      4608  TIP3      OH2            -2.5841762818       -3.6278651097        5.5445668953  W2        5108            0.0000000000
     13823      4608  TIP3      H1             -1.8403862818       -3.0418151097        5.4047268953  W2        5108            0.0000000000
     13824      4608  TIP3      H2             -3.2783662818       -3.0592851097        5.8778068953  W2        5108            0.0000000000
     13825      4609  TIP3      OH2            -6.2216862818       -9.4349151097        7.5703368953  W2        5110            0.0000000000
     13826      4609  TIP3      H1             -6.4989262818      -10.1629851097        8.1264468953  W2        5110            0.0000000000
     13827      4609  TIP3      H2             -5.2943862818       -9.3157151097        7.7755968953  W2        5110            0.0000000000
     13828      4610  TIP3      OH2           -12.9968362818       -6.9955051097        3.7905468953  W2        5112            0.0000000000
     13829      4610  TIP3      H1            -12.7578562818       -7.7436951097        3.2434368953  W2        5112            0.0000000000
     13830      4610  TIP3      H2            -13.2657062818       -7.3833351097        4.6233268953  W2        5112            0.0000000000
     13831      4611  TIP3      OH2           -14.0597762818       -7.4251251097        6.2468068953  W2        5113            0.0000000000
     13832      4611  TIP3      H1            -13.9129762818       -7.9451451097        7.0368968953  W2        5113            0.0000000000
     13833      4611  TIP3      H2            -14.0626062818       -6.5183651097        6.5533968953  W2        5113            0.0000000000
     13834      4612  TIP3      OH2           -17.6066662818      -10.1727951097        6.7573468953  W2        5114            0.0000000000
     13835      4612  TIP3      H1            -18.2927362818       -9.8205451097        7.3243168953  W2        5114            0.0000000000
     13836      4612  TIP3      H2            -17.0838762818       -9.4098351097        6.5107768953  W2        5114            0.0000000000
     13837      4613  TIP3      OH2            -8.9906662818      -17.8582451097        8.1334768953  W2        5116            0.0000000000
     13838      4613  TIP3      H1             -8.7708362818      -17.3867051097        7.3300168953  W2        5116            0.0000000000
     13839      4613  TIP3      H2             -8.4322662818      -17.4639851097        8.8035368953  W2        5116            0.0000000000
     13840      4614  TIP3      OH2           -11.3220562818       -5.7277651097        6.9962268953  W2        5117            0.0000000000
     13841      4614  TIP3      H1            -12.1384462818       -5.2307951097        7.0486568953  W2        5117            0.0000000000
     13842      4614  TIP3      H2            -10.7924262818       -5.2524151097        6.3561068953  W2        5117            0.0000000000
     13843      4615  TIP3      OH2           -11.7906762818      -16.1303651097        8.9683168953  W2        5118            0.0000000000
     13844      4615  TIP3      H1            -10.9784162818      -15.6260451097        9.0144868953  W2        5118            0.0000000000
     13845      4615  TIP3      H2            -12.0353762818      -16.2753951097        9.8822768953  W2        5118            0.0000000000
     13846      4616  TIP3      OH2           -10.9070062818      -19.0490651097        9.9064268953  W2        5120            0.0000000000
     13847      4616  TIP3      H1            -11.2536562818      -18.4320051097       10.5508568953  W2        5120            0.0000000000
     13848      4616  TIP3      H2            -10.2483162818      -18.5484951097        9.4249768953  W2        5120            0.0000000000
     13849      4617  TIP3      OH2           -13.9837462818       -4.6840451097        6.9779168953  W2        5121            0.0000000000
     13850      4617  TIP3      H1            -13.8228762818       -3.8842951097        6.4771768953  W2        5121            0.0000000000
     13851      4617  TIP3      H2            -14.1809662818       -4.3774451097        7.8629768953  W2        5121            0.0000000000
     13852      4618  TIP3      OH2           -15.2493062818      -17.9861251097        6.5936768953  W2        5122            0.0000000000
     13853      4618  TIP3      H1            -15.3328262818      -17.0978151097        6.9403168953  W2        5122            0.0000000000
     13854      4618  TIP3      H2            -14.3592762818      -18.2514551097        6.8253568953  W2        5122            0.0000000000
     13855      4619  TIP3      OH2            -6.4483562818      -13.4869651097       13.0836768953  W2        5124            0.0000000000
     13856      4619  TIP3      H1             -7.2459162818      -13.9019451097       12.7551768953  W2        5124            0.0000000000
     13857      4619  TIP3      H2             -6.0032462818      -14.1775951097       13.5747268953  W2        5124            0.0000000000
     13858      4620  TIP3      OH2           -16.9907762818       -7.5589051097        5.6541268953  W2        5125            0.0000000000
     13859      4620  TIP3      H1            -16.3986262818       -6.8594251097        5.9303668953  W2        5125            0.0000000000
     13860      4620  TIP3      H2            -16.5314762818       -7.9919551097        4.9345868953  W2        5125            0.0000000000
     13861      4621  TIP3      OH2           -18.6748562818      -14.8946051097        4.7700668953  W2        5126            0.0000000000
     13862      4621  TIP3      H1            -18.7195962818      -13.9552951097        4.9487668953  W2        5126            0.0000000000
     13863      4621  TIP3      H2            -19.5625362818      -15.1301151097        4.5002768953  W2        5126            0.0000000000
     13864      4622  TIP3      OH2            -5.3618962818       -4.2307151097       14.7060268953  W2        5127            0.0000000000
     13865      4622  TIP3      H1             -5.5174662818       -3.5522751097       14.0489568953  W2        5127            0.0000000000
     13866      4622  TIP3      H2             -4.4292562818       -4.1587851097       14.9090868953  W2        5127            0.0000000000
     13867      4623  TIP3      OH2           -17.8666562818      -20.1129451097       13.4431668953  W2        5128            0.0000000000
     13868      4623  TIP3      H1            -18.0956762818      -20.0536951097       12.5156668953  W2        5128            0.0000000000
     13869      4623  TIP3      H2            -18.3093162818      -20.9043951097       13.7495768953  W2        5128            0.0000000000
     13870      4624  TIP3      OH2           -18.9363262818       -6.1722351097        9.6037468953  W2        5129            0.0000000000
     13871      4624  TIP3      H1            -19.7684662818       -5.6999651097        9.6308868953  W2        5129            0.0000000000
     13872      4624  TIP3      H2            -18.3904962818       -5.6624751097        9.0050568953  W2        5129            0.0000000000
     13873      4625  TIP3      OH2           -10.9586562818       -5.1323651097        3.9291468953  W2        5132            0.0000000000
     13874      4625  TIP3      H1            -11.6025562818       -5.7635051097        4.2505168953  W2        5132            0.0000000000
     13875      4625  TIP3      H2            -10.1968262818       -5.6635651097        3.6974968953  W2        5132            0.0000000000
     13876      4626  TIP3      OH2            -6.3543662818       -5.3153751097        4.1629468953  W2        5134            0.0000000000
     13877      4626  TIP3      H1             -6.0713262818       -6.1098551097        4.6156368953  W2        5134            0.0000000000
     13878      4626  TIP3      H2             -5.6145762818       -5.0822751097        3.6020568953  W2        5134            0.0000000000
     13879      4627  TIP3      OH2           -15.3996362818       -9.4058851097        4.0204368953  W2        5136            0.0000000000
     13880      4627  TIP3      H1            -15.3352262818      -10.1999251097        4.5510768953  W2        5136            0.0000000000
     13881      4627  TIP3      H2            -14.7467162818       -9.5246051097        3.3306368953  W2        5136            0.0000000000
     13882      4628  TIP3      OH2           -10.0472962818       -8.3587151097        3.7562368953  W2        5138            0.0000000000
     13883      4628  TIP3      H1            -10.3158862818       -8.1785051097        4.6571268953  W2        5138            0.0000000000
     13884      4628  TIP3      H2            -10.2537362818       -9.2840951097        3.6248168953  W2        5138            0.0000000000
     13885      4629  TIP3      OH2           -14.2502562818      -11.4332651097        6.3262368953  W2        5141            0.0000000000
     13886      4629  TIP3      H1            -14.7100562818      -11.9174351097        7.0120868953  W2        5141            0.0000000000
     13887      4629  TIP3      H2            -13.9953862818      -12.1017251097        5.6902868953  W2        5141            0.0000000000
     13888      4630  TIP3      OH2           -13.1792162818      -13.1900851097        4.5885568953  W2        5143            0.0000000000
     13889      4630  TIP3      H1            -13.3597162818      -13.3449651097        3.6613868953  W2        5143            0.0000000000
     13890      4630  TIP3      H2            -12.2291662818      -13.0822151097        4.6333468953  W2        5143            0.0000000000
     13891      4631  TIP3      OH2            -3.7893862818      -10.8356651097        4.0343668953  W2        5145            0.0000000000
     13892      4631  TIP3      H1             -4.0629062818      -11.2601151097        3.2211968953  W2        5145            0.0000000000
     13893      4631  TIP3      H2             -3.7499762818       -9.9042151097        3.8174068953  W2        5145            0.0000000000
     13894      4632  TIP3      OH2           -13.2820462818       -2.4997151097        5.5899168953  W2        5159            0.0000000000
     13895      4632  TIP3      H1            -12.3489762818       -2.3418451097        5.7337568953  W2        5159            0.0000000000
     13896      4632  TIP3      H2            -13.5461662818       -1.8244151097        4.9650668953  W2        5159            0.0000000000
     13897      4633  TIP3      OH2           -19.7135562818       -7.8633351097        5.0727268953  W2        5160            0.0000000000
     13898      4633  TIP3      H1            -18.7996362818       -7.7844451097        5.3461168953  W2        5160            0.0000000000
     13899      4633  TIP3      H2            -19.7062462818       -8.5503751097        4.4062868953  W2        5160            0.0000000000
     13900      4634  TIP3      OH2           -21.0644962818       -2.4704851097       10.1501168953  W2        5161            0.0000000000
     13901      4634  TIP3      H1            -21.7117862818       -2.9323151097        9.6172368953  W2        5161            0.0000000000
     13902      4634  TIP3      H2            -20.7100362818       -3.1421551097       10.7327368953  W2        5161            0.0000000000
     13903      4635  TIP3      OH2           -20.1945762818       -4.3897851097       11.9547368953  W2        5162            0.0000000000
     13904      4635  TIP3      H1            -20.5288962818       -5.2700551097       12.1267568953  W2        5162            0.0000000000
     13905      4635  TIP3      H2            -19.9723362818       -4.0442851097       12.8192968953  W2        5162            0.0000000000
     13906      4636  TIP3      OH2            -3.3311062818       -9.9668551097        8.0094068953  W2        5166            0.0000000000
     13907      4636  TIP3      H1             -2.4809662818       -9.5457651097        8.1365668953  W2        5166            0.0000000000
     13908      4636  TIP3      H2             -3.3255962818      -10.7068451097        8.6165468953  W2        5166            0.0000000000
     13909      4637  TIP3      OH2            -2.9365462818      -11.9131151097        9.8329768953  W2        5167            0.0000000000
     13910      4637  TIP3      H1             -3.6630862818      -12.3928551097       10.2307368953  W2        5167            0.0000000000
     13911      4637  TIP3      H2             -2.3552162818      -11.7076451097       10.5651368953  W2        5167            0.0000000000
     13912      4638  TIP3      OH2            -3.1774262818       -9.1283651097       14.7807368953  W2        5168            0.0000000000
     13913      4638  TIP3      H1             -2.3440062818       -9.5063651097       14.5000968953  W2        5168            0.0000000000
     13914      4638  TIP3      H2             -3.0653962818       -8.1852451097       14.6616468953  W2        5168            0.0000000000
     13915      4639  TIP3      OH2            -2.6682362818      -12.0122651097        6.2241068953  W2        5170            0.0000000000
     13916      4639  TIP3      H1             -3.1901262818      -11.6558551097        5.5051968953  W2        5170            0.0000000000
     13917      4639  TIP3      H2             -2.7013162818      -11.3374851097        6.9021968953  W2        5170            0.0000000000
     13918      4640  TIP3      OH2            -4.3193362818      -14.7727051097        4.7748168953  W2        5171            0.0000000000
     13919      4640  TIP3      H1             -4.2228962818      -14.1060051097        4.0947868953  W2        5171            0.0000000000
     13920      4640  TIP3      H2             -4.4593762818      -15.5880751097        4.2933668953  W2        5171            0.0000000000
     13921      4641  TIP3      OH2            -5.1498662818      -13.3924651097       10.3958468953  W2        5172            0.0000000000
     13922      4641  TIP3      H1             -5.2999862818      -14.3376051097       10.3756268953  W2        5172            0.0000000000
     13923      4641  TIP3      H2             -5.5034162818      -13.1113251097       11.2397568953  W2        5172            0.0000000000
     13924      4642  TIP3      OH2           -20.1146262818      -11.3142451097       14.4062268953  W2        5173            0.0000000000
     13925      4642  TIP3      H1            -19.9303362818      -11.3960751097       13.4705168953  W2        5173            0.0000000000
     13926      4642  TIP3      H2            -19.2653362818      -11.4385451097       14.8298668953  W2        5173            0.0000000000
     13927      4643  TIP3      OH2            -5.0719562818      -17.3647251097        3.8923668953  W2        5176            0.0000000000
     13928      4643  TIP3      H1             -4.4613762818      -17.7360451097        4.5291868953  W2        5176            0.0000000000
     13929      4643  TIP3      H2             -5.9088062818      -17.7860351097        4.0883668953  W2        5176            0.0000000000
     13930      4644  TIP3      OH2            -5.4393862818      -15.8098851097        8.8583568953  W2        5177            0.0000000000
     13931      4644  TIP3      H1             -5.1596762818      -16.7168451097        8.9825268953  W2        5177            0.0000000000
     13932      4644  TIP3      H2             -4.6802162818      -15.3757351097        8.4692768953  W2        5177            0.0000000000
     13933      4645  TIP3      OH2            -4.8275562818      -15.2281451097       14.2942468953  W2        5178            0.0000000000
     13934      4645  TIP3      H1             -3.8947562818      -15.0161551097       14.2598468953  W2        5178            0.0000000000
     13935      4645  TIP3      H2             -5.0628062818      -15.1269351097       15.2165468953  W2        5178            0.0000000000
     13936      4646  TIP3      OH2            -4.8259062818      -18.5469551097        8.9065568953  W2        5182            0.0000000000
     13937      4646  TIP3      H1             -4.6434062818      -18.9958051097        9.7320568953  W2        5182            0.0000000000
     13938      4646  TIP3      H2             -5.4256162818      -19.1315151097        8.4430168953  W2        5182            0.0000000000
     13939      4647  TIP3      OH2           -19.2958962818      -17.7315851097       13.4383968953  W2        5183            0.0000000000
     13940      4647  TIP3      H1            -18.8507362818      -18.5233351097       13.7403668953  W2        5183            0.0000000000
     13941      4647  TIP3      H2            -18.8295962818      -17.0150651097       13.8689568953  W2        5183            0.0000000000
     13942      4648  TIP3      OH2           -20.9918662818      -14.7322851097       14.5074168953  W2        5184            0.0000000000
     13943      4648  TIP3      H1            -20.4998862818      -14.9532351097       13.7166168953  W2        5184            0.0000000000
     13944      4648  TIP3      H2            -20.6297762818      -13.8919451097       14.7883668953  W2        5184            0.0000000000
     13945      4649  TIP3      OH2            -2.9592862818      -18.4791451097        5.4345868953  W2        5186            0.0000000000
     13946      4649  TIP3      H1             -2.5470262818      -19.2005751097        4.9593868953  W2        5186            0.0000000000
     13947      4649  TIP3      H2             -2.2776362818      -17.8096851097        5.4930168953  W2        5186            0.0000000000
     13948      4650  TIP3      OH2           -20.6782162818      -18.4743751097        8.5616568953  W2        5187            0.0000000000
     13949      4650  TIP3      H1            -21.6033762818      -18.2657151097        8.4322068953  W2        5187            0.0000000000
     13950      4650  TIP3      H2            -20.2242262818      -17.9902951097        7.8718868953  W2        5187            0.0000000000
     13951      4651  TIP3      OH2            -5.9074962818       -3.4902051097       10.5073968953  W2        5188            0.0000000000
     13952      4651  TIP3      H1             -5.2552062818       -3.8379951097        9.8993068953  W2        5188            0.0000000000
     13953      4651  TIP3      H2             -5.3971162818       -3.0018851097       11.1533668953  W2        5188            0.0000000000
     13954      4652  TIP3      OH2           -18.7519762818       -3.7073051097       14.2665968953  W2        5200            0.0000000000
     13955      4652  TIP3      H1            -18.7703762818       -4.1327951097       15.1238268953  W2        5200            0.0000000000
     13956      4652  TIP3      H2            -17.9471862818       -4.0258051097       13.8578168953  W2        5200            0.0000000000
     13957      4653  TIP3      OH2           -16.6106662818       -4.9974351097       12.9215868953  W2        5201            0.0000000000
     13958      4653  TIP3      H1            -16.8295962818       -5.9136951097       13.0911868953  W2        5201            0.0000000000
     13959      4653  TIP3      H2            -15.7864462818       -4.8573951097       13.3877268953  W2        5201            0.0000000000
     13960      4654  TIP3      OH2           -14.0734162818       -4.5275051097       13.7703868953  W2        5202            0.0000000000
     13961      4654  TIP3      H1            -13.8608462818       -5.4156051097       13.4834768953  W2        5202            0.0000000000
     13962      4654  TIP3      H2            -14.0089062818       -4.5617351097       14.7247868953  W2        5202            0.0000000000
     13963      4655  TIP3      OH2           -10.5650462818      -18.8634451097       12.9147168953  W2        5203            0.0000000000
     13964      4655  TIP3      H1            -11.2393662818      -19.4928851097       13.1702968953  W2        5203            0.0000000000
     13965      4655  TIP3      H2            -10.0011262818      -19.3475551097       12.3115068953  W2        5203            0.0000000000
     13966      4656  TIP3      OH2            -5.4223262818      -20.7560451097       13.0274268953  W2        5204            0.0000000000
     13967      4656  TIP3      H1             -4.8185662818      -20.2085051097       12.5255268953  W2        5204            0.0000000000
     13968      4656  TIP3      H2             -6.2921262818      -20.4370051097       12.7868368953  W2        5204            0.0000000000
     13969      4657  TIP3      OH2            -3.6952862818      -19.6171751097       11.3605168953  W2        5205            0.0000000000
     13970      4657  TIP3      H1             -3.0835362818      -20.1316051097       10.8338768953  W2        5205            0.0000000000
     13971      4657  TIP3      H2             -3.3129462818      -18.7399651097       11.3839568953  W2        5205            0.0000000000
     13972      4658  TIP3      OH2           -18.2382962818      -20.2294151097       10.7367068953  W2        5206            0.0000000000
     13973      4658  TIP3      H1            -19.0153162818      -20.4639251097       10.2292968953  W2        5206            0.0000000000
     13974      4658  TIP3      H2            -17.7079362818      -21.0262051097       10.7455068953  W2        5206            0.0000000000
     13975      4659  TIP3      OH2           -19.4019562818      -20.4316051097        6.5403168953  W2        5207            0.0000000000
     13976      4659  TIP3      H1            -18.9628862818      -19.8205551097        5.9486668953  W2        5207            0.0000000000
     13977      4659  TIP3      H2            -20.0357162818      -19.8931951097        7.0143168953  W2        5207            0.0000000000
     13978      4660  TIP3      OH2           -13.6590362818      -20.3027051097       10.5500168953  W2        5208            0.0000000000
     13979      4660  TIP3      H1            -12.7846962818      -19.9142751097       10.5204468953  W2        5208            0.0000000000
     13980      4660  TIP3      H2            -13.7949562818      -20.5179251097       11.4727368953  W2        5208            0.0000000000
     13981      4661  TIP3      OH2            -8.1021962818      -20.2727251097       12.1991868953  W2        5209            0.0000000000
     13982      4661  TIP3      H1             -8.0260362818      -20.1775651097       11.2497868953  W2        5209            0.0000000000
     13983      4661  TIP3      H2             -8.3772762818      -21.1804351097       12.3280968953  W2        5209            0.0000000000
     13984      4662  TIP3      OH2            -6.7489362818      -20.2469451097        7.8916868953  W2        5210            0.0000000000
     13985      4662  TIP3      H1             -7.4518262818      -19.6320251097        7.6818268953  W2        5210            0.0000000000
     13986      4662  TIP3      H2             -7.1937962818      -21.0842751097        8.0227768953  W2        5210            0.0000000000
     13987      4663  TIP3      OH2           -19.5010062818       -4.4833851097        7.4378268953  W2        5211            0.0000000000
     13988      4663  TIP3      H1            -20.1860162818       -4.5214951097        6.7703368953  W2        5211            0.0000000000
     13989      4663  TIP3      H2            -19.4972862818       -3.5706251097        7.7260368953  W2        5211            0.0000000000
     13990      4664  TIP3      OH2           -17.5410462818      -18.5154551097        4.9827268953  W2        5212            0.0000000000
     13991      4664  TIP3      H1            -17.0497062818      -19.1452151097        4.4552768953  W2        5212            0.0000000000
     13992      4664  TIP3      H2            -16.9174162818      -18.2195151097        5.6458468953  W2        5212            0.0000000000
     13993      4665  TIP3      OH2           -12.5150362818      -18.2223051097        7.4397768953  W2        5213            0.0000000000
     13994      4665  TIP3      H1            -12.3369062818      -18.8689851097        8.1226368953  W2        5213            0.0000000000
     13995      4665  TIP3      H2            -12.5684162818      -17.3885351097        7.9068868953  W2        5213            0.0000000000
     13996      4666  TIP3      OH2           -10.6366562818       -3.2738951097        5.8354468953  W2        5214            0.0000000000
     13997      4666  TIP3      H1             -9.7706362818       -2.9071551097        5.6572668953  W2        5214            0.0000000000
     13998      4666  TIP3      H2            -10.8833762818       -3.7130951097        5.0215268953  W2        5214            0.0000000000
     13999      4667  TIP3      OH2            -3.9276962818       -3.7108651097        8.5145568953  W2        5215            0.0000000000
     14000      4667  TIP3      H1             -4.1219862818       -4.4586551097        7.9495168953  W2        5215            0.0000000000
     14001      4667  TIP3      H2             -3.9666862818       -2.9528551097        7.9313468953  W2        5215            0.0000000000
     14002      4668  TIP3      OH2           -17.6828862818       -3.5633051097        4.4630368953  W2        5218            0.0000000000
     14003      4668  TIP3      H1            -17.9504262818       -3.2770151097        5.3363468953  W2        5218            0.0000000000
     14004      4668  TIP3      H2            -16.9116262818       -4.1093851097        4.6152868953  W2        5218            0.0000000000
     14005      4669  TIP3      OH2             9.6959637182      -11.0731851097       10.6954568953  W2        5221            0.0000000000
     14006      4669  TIP3      H1              9.7850737182      -10.1293651097       10.5631668953  W2        5221            0.0000000000
     14007      4669  TIP3      H2              9.0577237182      -11.3485451097       10.0373968953  W2        5221            0.0000000000
     14008      4670  TIP3      OH2             8.6290937182      -11.8181151097       14.1142768953  W2        5222            0.0000000000
     14009      4670  TIP3      H1              8.5908437182      -12.4644851097       14.8192368953  W2        5222            0.0000000000
     14010      4670  TIP3      H2              8.3067437182      -12.2846751097       13.3431468953  W2        5222            0.0000000000
     14011      4671  TIP3      OH2            12.3351137182       -8.8790751097       12.4157868953  W2        5224            0.0000000000
     14012      4671  TIP3      H1             11.8943837182       -9.5994751097       12.8663468953  W2        5224            0.0000000000
     14013      4671  TIP3      H2             12.3220837182       -8.1583551097       13.0455568953  W2        5224            0.0000000000
     14014      4672  TIP3      OH2             1.9209037182       -7.7540151097       14.2421768953  W2        5225            0.0000000000
     14015      4672  TIP3      H1              1.5514237182       -8.5559651097       13.8726068953  W2        5225            0.0000000000
     14016      4672  TIP3      H2              2.8620137182       -7.9225251097       14.2885168953  W2        5225            0.0000000000
     14017      4673  TIP3      OH2            -1.4690462818      -14.0937551097        9.6350568953  W2        5226            0.0000000000
     14018      4673  TIP3      H1             -1.9167062818      -13.2478851097        9.6167068953  W2        5226            0.0000000000
     14019      4673  TIP3      H2             -2.0299262818      -14.6733351097        9.1195668953  W2        5226            0.0000000000
     14020      4674  TIP3      OH2            -0.7584362818      -11.9317951097       11.7608568953  W2        5227            0.0000000000
     14021      4674  TIP3      H1             -0.5450862818      -12.7016351097       12.2881568953  W2        5227            0.0000000000
     14022      4674  TIP3      H2             -0.0206762818      -11.8421251097       11.1576168953  W2        5227            0.0000000000
     14023      4675  TIP3      OH2             9.4466637182       -3.7749051097       12.6278268953  W2        5228            0.0000000000
     14024      4675  TIP3      H1             10.0663037182       -4.4514351097       12.3547468953  W2        5228            0.0000000000
     14025      4675  TIP3      H2              9.2384037182       -3.9928251097       13.5363168953  W2        5228            0.0000000000
     14026      4676  TIP3      OH2             7.0185337182       -9.3859751097       14.5203768953  W2        5229            0.0000000000
     14027      4676  TIP3      H1              7.3223237182      -10.0718351097       13.9257868953  W2        5229            0.0000000000
     14028      4676  TIP3      H2              7.7399337182       -9.2671051097       15.1381768953  W2        5229            0.0000000000
     14029      4677  TIP3      OH2            10.1592337182      -14.9917351097       14.8478568953  W2        5231            0.0000000000
     14030      4677  TIP3      H1             10.3018237182      -15.9380351097       14.8680168953  W2        5231            0.0000000000
     14031      4677  TIP3      H2             10.0531337182      -14.7847551097       13.9193468953  W2        5231            0.0000000000
     14032      4678  TIP3      OH2             3.3140637182      -16.8900951097       12.1203368953  W2        5232            0.0000000000
     14033      4678  TIP3      H1              3.3571737182      -16.0302451097       11.7019668953  W2        5232            0.0000000000
     14034      4678  TIP3      H2              2.8564737182      -17.4426251097       11.4866568953  W2        5232            0.0000000000
     14035      4679  TIP3      OH2            11.0363337182      -16.7595351097       10.5211668953  W2        5233            0.0000000000
     14036      4679  TIP3      H1             11.6827637182      -17.0882151097       11.1459268953  W2        5233            0.0000000000
     14037      4679  TIP3      H2             11.5462737182      -16.2416351097        9.8983068953  W2        5233            0.0000000000
     14038      4680  TIP3      OH2            -0.0657862818      -14.4935151097       12.8824768953  W2        5234            0.0000000000
     14039      4680  TIP3      H1              0.5878737182      -15.0433451097       13.3144868953  W2        5234            0.0000000000
     14040      4680  TIP3      H2             -0.0418562818      -14.7676151097       11.9656768953  W2        5234            0.0000000000
     14041      4681  TIP3      OH2             5.0906637182      -12.9433851097       12.0976268953  W2        5235            0.0000000000
     14042      4681  TIP3      H1              5.7067637182      -13.4698451097       12.6070268953  W2        5235            0.0000000000
     14043      4681  TIP3      H2              4.5045437182      -13.5835151097       11.6939868953  W2        5235            0.0000000000
     14044      4682  TIP3      OH2             9.4932337182       -8.4721451097        9.7383268953  W2        5238            0.0000000000
     14045      4682  TIP3      H1              9.1977437182       -8.7949151097        8.8870168953  W2        5238            0.0000000000
     14046      4682  TIP3      H2              9.1690137182       -7.5724751097        9.7795868953  W2        5238            0.0000000000
     14047      4683  TIP3      OH2            12.8001737182      -17.4686051097       12.5017568953  W2        5240            0.0000000000
     14048      4683  TIP3      H1             12.5849737182      -18.2342651097       13.0343568953  W2        5240            0.0000000000
     14049      4683  TIP3      H2             13.4559137182      -16.9961451097       13.0146068953  W2        5240            0.0000000000
     14050      4684  TIP3      OH2             1.7179837182      -16.0800751097       14.1466368953  W2        5241            0.0000000000
     14051      4684  TIP3      H1              2.3316137182      -15.4473151097       14.5198768953  W2        5241            0.0000000000
     14052      4684  TIP3      H2              2.2300537182      -16.5525751097       13.4903268953  W2        5241            0.0000000000
     14053      4685  TIP3      OH2            -0.7780862818       -8.6615951097        8.0508668953  W2        5243            0.0000000000
     14054      4685  TIP3      H1             -1.0499962818       -8.4324951097        7.1621568953  W2        5243            0.0000000000
     14055      4685  TIP3      H2             -0.7325162818       -7.8237151097        8.5113968953  W2        5243            0.0000000000
     14056      4686  TIP3      OH2            12.8468837182       -7.0400051097       14.7637168953  W2        5244            0.0000000000
     14057      4686  TIP3      H1             11.9052537182       -6.9816151097       14.9254068953  W2        5244            0.0000000000
     14058      4686  TIP3      H2             13.1234937182       -6.1339551097       14.6266868953  W2        5244            0.0000000000
     14059      4687  TIP3      OH2             6.1507237182      -20.6667451097       13.6469068953  W2        5246            0.0000000000
     14060      4687  TIP3      H1              6.0331437182      -21.6151451097       13.5927368953  W2        5246            0.0000000000
     14061      4687  TIP3      H2              5.2957337182      -20.3341351097       13.9200168953  W2        5246            0.0000000000
     14062      4688  TIP3      OH2            11.0990037182       -5.2586551097       11.3888768953  W2        5247            0.0000000000
     14063      4688  TIP3      H1             11.5242337182       -5.9658651097       10.9038368953  W2        5247            0.0000000000
     14064      4688  TIP3      H2             11.4160037182       -4.4573851097       10.9720968953  W2        5247            0.0000000000
     14065      4689  TIP3      OH2            12.2586537182       -7.3578051097        9.8975368953  W2        5248            0.0000000000
     14066      4689  TIP3      H1             12.0011337182       -8.0477951097        9.2861268953  W2        5248            0.0000000000
     14067      4689  TIP3      H2             12.3297337182       -7.8006851097       10.7431268953  W2        5248            0.0000000000
     14068      4690  TIP3      OH2             8.4172137182      -11.8291851097        8.1474868953  W2        5250            0.0000000000
     14069      4690  TIP3      H1              7.7057637182      -11.2942151097        7.7955368953  W2        5250            0.0000000000
     14070      4690  TIP3      H2              9.1081737182      -11.7739751097        7.4873768953  W2        5250            0.0000000000
     14071      4691  TIP3      OH2             8.4711337182      -13.3717551097        5.1859868953  W2        5251            0.0000000000
     14072      4691  TIP3      H1              9.1721237182      -13.3490651097        5.8373868953  W2        5251            0.0000000000
     14073      4691  TIP3      H2              8.7734237182      -13.9997851097        4.5299168953  W2        5251            0.0000000000
     14074      4692  TIP3      OH2            11.8229837182      -11.6198551097        9.0990768953  W2        5253            0.0000000000
     14075      4692  TIP3      H1             11.0910837182      -11.3914851097        9.6721368953  W2        5253            0.0000000000
     14076      4692  TIP3      H2             12.2702037182      -12.3335851097        9.5538268953  W2        5253            0.0000000000
     14077      4693  TIP3      OH2             3.4683537182      -10.9892351097       10.9815768953  W2        5255            0.0000000000
     14078      4693  TIP3      H1              3.1378737182      -11.3598951097       10.1632768953  W2        5255            0.0000000000
     14079      4693  TIP3      H2              4.0567637182      -11.6598351097       11.3284068953  W2        5255            0.0000000000
     14080      4694  TIP3      OH2             4.8351037182       -7.5611751097       13.6627968953  W2        5256            0.0000000000
     14081      4694  TIP3      H1              4.7402337182       -8.1398651097       12.9062568953  W2        5256            0.0000000000
     14082      4694  TIP3      H2              5.5644637182       -7.9326051097       14.1590768953  W2        5256            0.0000000000
     14083      4695  TIP3      OH2             3.8349037182      -12.2206751097       14.6150768953  W2        5257            0.0000000000
     14084      4695  TIP3      H1              4.4001537182      -12.0992551097       13.8521968953  W2        5257            0.0000000000
     14085      4695  TIP3      H2              4.1537937182      -11.5831751097       15.2539268953  W2        5257            0.0000000000
     14086      4696  TIP3      OH2            10.6939337182      -12.4575651097        6.7841968953  W2        5260            0.0000000000
     14087      4696  TIP3      H1             11.2734837182      -12.3075351097        7.5310868953  W2        5260            0.0000000000
     14088      4696  TIP3      H2             11.1079337182      -11.9868251097        6.0608368953  W2        5260            0.0000000000
     14089      4697  TIP3      OH2             8.4204237182       -5.7207151097       10.2195068953  W2        5262            0.0000000000
     14090      4697  TIP3      H1              8.8941837182       -5.4250851097       10.9969268953  W2        5262            0.0000000000
     14091      4697  TIP3      H2              7.8573537182       -4.9825551097        9.9864668953  W2        5262            0.0000000000
     14092      4698  TIP3      OH2            14.3927737182      -20.7075251097        6.5971668953  W2        5264            0.0000000000
     14093      4698  TIP3      H1             13.4928437182      -20.5686251097        6.8922268953  W2        5264            0.0000000000
     14094      4698  TIP3      H2             14.6446137182      -19.8760651097        6.1953368953  W2        5264            0.0000000000
     14095      4699  TIP3      OH2             2.4586237182      -11.9198051097        8.5708568953  W2        5265            0.0000000000
     14096      4699  TIP3      H1              2.1667537182      -11.1516351097        8.0799868953  W2        5265            0.0000000000
     14097      4699  TIP3      H2              1.7841437182      -12.5791851097        8.4079968953  W2        5265            0.0000000000
     14098      4700  TIP3      OH2            15.5819137182       -6.3412851097        4.9735568953  W2        5266            0.0000000000
     14099      4700  TIP3      H1             15.6552637182       -5.4022651097        5.1440868953  W2        5266            0.0000000000
     14100      4700  TIP3      H2             16.4874237182       -6.6464251097        4.9172868953  W2        5266            0.0000000000
     14101      4701  TIP3      OH2            -1.6980962818       -6.7765051097       14.2698568953  W2        5268            0.0000000000
     14102      4701  TIP3      H1             -0.7520362818       -6.9208051097       14.2508068953  W2        5268            0.0000000000
     14103      4701  TIP3      H2             -1.8104662818       -5.9922251097       14.8069768953  W2        5268            0.0000000000
     14104      4702  TIP3      OH2             7.8927337182       -2.7642451097        8.6344268953  W2        5271            0.0000000000
     14105      4702  TIP3      H1              7.8173337182       -2.8855251097        7.6879468953  W2        5271            0.0000000000
     14106      4702  TIP3      H2              7.9256037182       -1.8149751097        8.7528868953  W2        5271            0.0000000000
     14107      4703  TIP3      OH2             1.5461137182       -3.9755451097       10.4153268953  W2        5272            0.0000000000
     14108      4703  TIP3      H1              1.6981537182       -4.3235051097       11.2939768953  W2        5272            0.0000000000
     14109      4703  TIP3      H2              0.6951537182       -4.3318151097       10.1600468953  W2        5272            0.0000000000
     14110      4704  TIP3      OH2            10.9943337182       -3.6102251097        5.6366668953  W2        5273            0.0000000000
     14111      4704  TIP3      H1             11.3691737182       -4.3546151097        5.1659268953  W2        5273            0.0000000000
     14112      4704  TIP3      H2             10.9987037182       -3.8801651097        6.5549968953  W2        5273            0.0000000000
     14113      4705  TIP3      OH2            10.6631437182       -3.6845151097        8.3858868953  W2        5274            0.0000000000
     14114      4705  TIP3      H1              9.7281237182       -3.5843251097        8.5645868953  W2        5274            0.0000000000
     14115      4705  TIP3      H2             10.9433337182       -4.3939151097        8.9642068953  W2        5274            0.0000000000
     14116      4706  TIP3      OH2             3.4194837182      -19.7632951097       14.4245368953  W2        5277            0.0000000000
     14117      4706  TIP3      H1              2.5578537182      -19.8504751097       14.0168268953  W2        5277            0.0000000000
     14118      4706  TIP3      H2              3.3970537182      -18.9072851097       14.8522968953  W2        5277            0.0000000000
     14119      4707  TIP3      OH2            12.1712437182      -11.4247351097        4.4139868953  W2        5280            0.0000000000
     14120      4707  TIP3      H1             12.2133237182      -11.6473451097        3.4839868953  W2        5280            0.0000000000
     14121      4707  TIP3      H2             13.0204537182      -11.0260251097        4.6039768953  W2        5280            0.0000000000
     14122      4708  TIP3      OH2             7.7439937182      -17.5489151097        5.0843168953  W2        5281            0.0000000000
     14123      4708  TIP3      H1              7.4904737182      -17.5297551097        6.0071268953  W2        5281            0.0000000000
     14124      4708  TIP3      H2              7.4872037182      -18.4203751097        4.7829368953  W2        5281            0.0000000000
     14125      4709  TIP3      OH2             3.5074037182      -14.5768351097       10.4315568953  W2        5283            0.0000000000
     14126      4709  TIP3      H1              2.6146937182      -14.9172251097       10.3729368953  W2        5283            0.0000000000
     14127      4709  TIP3      H2              3.9580637182      -14.9537451097        9.6758768953  W2        5283            0.0000000000
     14128      4710  TIP3      OH2             9.0429537182      -14.1608051097        9.2486368953  W2        5284            0.0000000000
     14129      4710  TIP3      H1              8.6339837182      -13.3459451097        8.9571168953  W2        5284            0.0000000000
     14130      4710  TIP3      H2              9.7635737182      -14.3007951097        8.6343468953  W2        5284            0.0000000000
     14131      4711  TIP3      OH2            10.0477237182      -14.7147651097       12.0626068953  W2        5286            0.0000000000
     14132      4711  TIP3      H1              9.8521737182      -14.1090851097       11.3476668953  W2        5286            0.0000000000
     14133      4711  TIP3      H2             10.2289837182      -15.5482451097       11.6282368953  W2        5286            0.0000000000
     14134      4712  TIP3      OH2             4.6262837182      -17.1032651097        4.1853568953  W2        5288            0.0000000000
     14135      4712  TIP3      H1              4.1953537182      -17.5482551097        4.9150968953  W2        5288            0.0000000000
     14136      4712  TIP3      H2              3.9081537182      -16.7316351097        3.6731068953  W2        5288            0.0000000000
     14137      4713  TIP3      OH2            -2.1313762818      -17.3613151097       11.2372268953  W2        5289            0.0000000000
     14138      4713  TIP3      H1             -1.5006062818      -17.3901051097       11.9566168953  W2        5289            0.0000000000
     14139      4713  TIP3      H2             -1.6819462818      -17.7864451097       10.5068168953  W2        5289            0.0000000000
     14140      4714  TIP3      OH2            -0.8571662818      -16.6151151097        6.6612668953  W2        5290            0.0000000000
     14141      4714  TIP3      H1             -0.3829962818      -16.0241251097        6.0763568953  W2        5290            0.0000000000
     14142      4714  TIP3      H2             -1.5745262818      -16.0848251097        7.0082768953  W2        5290            0.0000000000
     14143      4715  TIP3      OH2             6.0889337182      -17.1490851097       11.5179668953  W2        5292            0.0000000000
     14144      4715  TIP3      H1              5.1780437182      -17.0924051097       11.8065668953  W2        5292            0.0000000000
     14145      4715  TIP3      H2              6.5942237182      -17.2095351097       12.3286868953  W2        5292            0.0000000000
     14146      4716  TIP3      OH2             0.9172737182      -15.5204551097       10.3447268953  W2        5293            0.0000000000
     14147      4716  TIP3      H1              0.0280737182      -15.4209051097       10.0046868953  W2        5293            0.0000000000
     14148      4716  TIP3      H2              1.2137637182      -16.3621551097        9.9985168953  W2        5293            0.0000000000
     14149      4717  TIP3      OH2             4.5704537182      -15.5201951097        8.0011868953  W2        5294            0.0000000000
     14150      4717  TIP3      H1              5.5020037182      -15.3911951097        8.1794968953  W2        5294            0.0000000000
     14151      4717  TIP3      H2              4.3554837182      -14.8507651097        7.3516568953  W2        5294            0.0000000000
     14152      4718  TIP3      OH2            10.4941237182      -17.9144551097       14.7821468953  W2        5295            0.0000000000
     14153      4718  TIP3      H1              9.8172837182      -17.7831451097       15.4461168953  W2        5295            0.0000000000
     14154      4718  TIP3      H2             10.0086137182      -18.0695051097       13.9719168953  W2        5295            0.0000000000
     14155      4719  TIP3      OH2             3.2444737182      -14.3259751097        5.5677968953  W2        5296            0.0000000000
     14156      4719  TIP3      H1              2.7019837182      -14.7055951097        4.8765568953  W2        5296            0.0000000000
     14157      4719  TIP3      H2              4.0779637182      -14.1315051097        5.1392068953  W2        5296            0.0000000000
     14158      4720  TIP3      OH2             7.4089037182      -14.3617851097       13.4049268953  W2        5299            0.0000000000
     14159      4720  TIP3      H1              7.9732437182      -14.9081251097       12.8578868953  W2        5299            0.0000000000
     14160      4720  TIP3      H2              7.2612437182      -14.8835951097       14.1936868953  W2        5299            0.0000000000
     14161      4721  TIP3      OH2             2.4108737182      -18.2251751097        9.8234068953  W2        5300            0.0000000000
     14162      4721  TIP3      H1              2.0938237182      -19.1276451097        9.7879468953  W2        5300            0.0000000000
     14163      4721  TIP3      H2              3.1922837182      -18.2234351097        9.2705668953  W2        5300            0.0000000000
     14164      4722  TIP3      OH2             6.5797537182       -9.7604051097        7.5036068953  W2        5302            0.0000000000
     14165      4722  TIP3      H1              5.8348537182      -10.2678751097        7.1813968953  W2        5302            0.0000000000
     14166      4722  TIP3      H2              6.4454737182       -9.7116051097        8.4500868953  W2        5302            0.0000000000
     14167      4723  TIP3      OH2            10.4774337182      -16.9464151097        5.7028668953  W2        5304            0.0000000000
     14168      4723  TIP3      H1              9.5388537182      -16.8348551097        5.5517468953  W2        5304            0.0000000000
     14169      4723  TIP3      H2             10.7746437182      -16.0897251097        6.0094368953  W2        5304            0.0000000000
     14170      4724  TIP3      OH2            11.1957837182      -15.0791451097        7.3636068953  W2        5306            0.0000000000
     14171      4724  TIP3      H1             12.0876837182      -15.2166451097        7.6827268953  W2        5306            0.0000000000
     14172      4724  TIP3      H2             11.2521437182      -14.2885351097        6.8269568953  W2        5306            0.0000000000
     14173      4725  TIP3      OH2             1.7045837182      -10.4654051097       13.2733968953  W2        5307            0.0000000000
     14174      4725  TIP3      H1              2.4493037182      -10.4678351097       12.6720468953  W2        5307            0.0000000000
     14175      4725  TIP3      H2              1.7822437182      -11.2890251097       13.7549068953  W2        5307            0.0000000000
     14176      4726  TIP3      OH2             8.7051637182       -8.3019751097        6.5290668953  W2        5308            0.0000000000
     14177      4726  TIP3      H1              8.4100037182       -7.4751851097        6.9105468953  W2        5308            0.0000000000
     14178      4726  TIP3      H2              8.0021637182       -8.9212851097        6.7252068953  W2        5308            0.0000000000
     14179      4727  TIP3      OH2            16.0806537182      -14.8697351097        7.0582768953  W2        5312            0.0000000000
     14180      4727  TIP3      H1             15.5262837182      -15.2659351097        6.3860268953  W2        5312            0.0000000000
     14181      4727  TIP3      H2             16.1810137182      -13.9592151097        6.7806068953  W2        5312            0.0000000000
     14182      4728  TIP3      OH2            14.3758237182       -6.0836951097        7.5234868953  W2        5314            0.0000000000
     14183      4728  TIP3      H1             14.0029337182       -6.9093151097        7.8325468953  W2        5314            0.0000000000
     14184      4728  TIP3      H2             14.6531737182       -6.2667551097        6.6258268953  W2        5314            0.0000000000
     14185      4729  TIP3      OH2            11.5362137182      -11.2757451097       14.5446768953  W2        5315            0.0000000000
     14186      4729  TIP3      H1             10.6079037182      -11.5075551097       14.5176068953  W2        5315            0.0000000000
     14187      4729  TIP3      H2             11.9873237182      -12.0527651097       14.2145568953  W2        5315            0.0000000000
     14188      4730  TIP3      OH2             4.0795237182       -6.9475851097       10.6775468953  W2        5316            0.0000000000
     14189      4730  TIP3      H1              4.6067437182       -6.1741451097       10.4774268953  W2        5316            0.0000000000
     14190      4730  TIP3      H2              3.1993737182       -6.7226651097       10.3759468953  W2        5316            0.0000000000
     14191      4731  TIP3      OH2            -0.1657062818      -12.0851751097        5.2647868953  W2        5317            0.0000000000
     14192      4731  TIP3      H1              0.4502837182      -11.4584551097        5.6442668953  W2        5317            0.0000000000
     14193      4731  TIP3      H2             -1.0274462818      -11.7691951097        5.5364368953  W2        5317            0.0000000000
     14194      4732  TIP3      OH2             5.5067537182       -9.2845951097       10.2539768953  W2        5318            0.0000000000
     14195      4732  TIP3      H1              5.2657537182       -8.3591551097       10.2955068953  W2        5318            0.0000000000
     14196      4732  TIP3      H2              4.7661137182       -9.7434651097       10.6503668953  W2        5318            0.0000000000
     14197      4733  TIP3      OH2             4.1898337182       -4.2628351097        9.7991968953  W2        5320            0.0000000000
     14198      4733  TIP3      H1              3.2398837182       -4.1570951097        9.8505268953  W2        5320            0.0000000000
     14199      4733  TIP3      H2              4.5416437182       -3.4420951097       10.1439468953  W2        5320            0.0000000000
     14200      4734  TIP3      OH2            11.7683837182       -8.1071151097        5.3435468953  W2        5322            0.0000000000
     14201      4734  TIP3      H1             12.1216937182       -8.4871351097        6.1478968953  W2        5322            0.0000000000
     14202      4734  TIP3      H2             10.8197337182       -8.2006351097        5.4304768953  W2        5322            0.0000000000
     14203      4735  TIP3      OH2            16.2718237182       -3.6278651097        5.5445668953  W2        5324            0.0000000000
     14204      4735  TIP3      H1             17.0156137182       -3.0418151097        5.4047268953  W2        5324            0.0000000000
     14205      4735  TIP3      H2             15.5776337182       -3.0592851097        5.8778068953  W2        5324            0.0000000000
     14206      4736  TIP3      OH2            12.6343137182       -9.4349151097        7.5703368953  W2        5326            0.0000000000
     14207      4736  TIP3      H1             12.3570737182      -10.1629851097        8.1264468953  W2        5326            0.0000000000
     14208      4736  TIP3      H2             13.5616137182       -9.3157151097        7.7755968953  W2        5326            0.0000000000
     14209      4737  TIP3      OH2             5.8591637182       -6.9955051097        3.7905468953  W2        5328            0.0000000000
     14210      4737  TIP3      H1              6.0981437182       -7.7436951097        3.2434368953  W2        5328            0.0000000000
     14211      4737  TIP3      H2              5.5902937182       -7.3833351097        4.6233268953  W2        5328            0.0000000000
     14212      4738  TIP3      OH2             4.7962237182       -7.4251251097        6.2468068953  W2        5329            0.0000000000
     14213      4738  TIP3      H1              4.9430237182       -7.9451451097        7.0368968953  W2        5329            0.0000000000
     14214      4738  TIP3      H2              4.7933937182       -6.5183651097        6.5533968953  W2        5329            0.0000000000
     14215      4739  TIP3      OH2             1.2493337182      -10.1727951097        6.7573468953  W2        5330            0.0000000000
     14216      4739  TIP3      H1              0.5632637182       -9.8205451097        7.3243168953  W2        5330            0.0000000000
     14217      4739  TIP3      H2              1.7721237182       -9.4098351097        6.5107768953  W2        5330            0.0000000000
     14218      4740  TIP3      OH2             9.8653337182      -17.8582451097        8.1334768953  W2        5332            0.0000000000
     14219      4740  TIP3      H1             10.0851637182      -17.3867051097        7.3300168953  W2        5332            0.0000000000
     14220      4740  TIP3      H2             10.4237337182      -17.4639851097        8.8035368953  W2        5332            0.0000000000
     14221      4741  TIP3      OH2             7.5339437182       -5.7277651097        6.9962268953  W2        5333            0.0000000000
     14222      4741  TIP3      H1              6.7175537182       -5.2307951097        7.0486568953  W2        5333            0.0000000000
     14223      4741  TIP3      H2              8.0635737182       -5.2524151097        6.3561068953  W2        5333            0.0000000000
     14224      4742  TIP3      OH2             7.0653237182      -16.1303651097        8.9683168953  W2        5334            0.0000000000
     14225      4742  TIP3      H1              7.8775837182      -15.6260451097        9.0144868953  W2        5334            0.0000000000
     14226      4742  TIP3      H2              6.8206237182      -16.2753951097        9.8822768953  W2        5334            0.0000000000
     14227      4743  TIP3      OH2             7.9489937182      -19.0490651097        9.9064268953  W2        5336            0.0000000000
     14228      4743  TIP3      H1              7.6023437182      -18.4320051097       10.5508568953  W2        5336            0.0000000000
     14229      4743  TIP3      H2              8.6076837182      -18.5484951097        9.4249768953  W2        5336            0.0000000000
     14230      4744  TIP3      OH2             4.8722537182       -4.6840451097        6.9779168953  W2        5337            0.0000000000
     14231      4744  TIP3      H1              5.0331237182       -3.8842951097        6.4771768953  W2        5337            0.0000000000
     14232      4744  TIP3      H2              4.6750337182       -4.3774451097        7.8629768953  W2        5337            0.0000000000
     14233      4745  TIP3      OH2             3.6066937182      -17.9861251097        6.5936768953  W2        5338            0.0000000000
     14234      4745  TIP3      H1              3.5231737182      -17.0978151097        6.9403168953  W2        5338            0.0000000000
     14235      4745  TIP3      H2              4.4967237182      -18.2514551097        6.8253568953  W2        5338            0.0000000000
     14236      4746  TIP3      OH2            12.4076437182      -13.4869651097       13.0836768953  W2        5340            0.0000000000
     14237      4746  TIP3      H1             11.6100837182      -13.9019451097       12.7551768953  W2        5340            0.0000000000
     14238      4746  TIP3      H2             12.8527537182      -14.1775951097       13.5747268953  W2        5340            0.0000000000
     14239      4747  TIP3      OH2             1.8652237182       -7.5589051097        5.6541268953  W2        5341            0.0000000000
     14240      4747  TIP3      H1              2.4573737182       -6.8594251097        5.9303668953  W2        5341            0.0000000000
     14241      4747  TIP3      H2              2.3245237182       -7.9919551097        4.9345868953  W2        5341            0.0000000000
     14242      4748  TIP3      OH2             0.1811437182      -14.8946051097        4.7700668953  W2        5342            0.0000000000
     14243      4748  TIP3      H1              0.1364037182      -13.9552951097        4.9487668953  W2        5342            0.0000000000
     14244      4748  TIP3      H2             -0.7065362818      -15.1301151097        4.5002768953  W2        5342            0.0000000000
     14245      4749  TIP3      OH2            13.4941037182       -4.2307151097       14.7060268953  W2        5343            0.0000000000
     14246      4749  TIP3      H1             13.3385337182       -3.5522751097       14.0489568953  W2        5343            0.0000000000
     14247      4749  TIP3      H2             14.4267437182       -4.1587851097       14.9090868953  W2        5343            0.0000000000
     14248      4750  TIP3      OH2             0.9893437182      -20.1129451097       13.4431668953  W2        5344            0.0000000000
     14249      4750  TIP3      H1              0.7603237182      -20.0536951097       12.5156668953  W2        5344            0.0000000000
     14250      4750  TIP3      H2              0.5466837182      -20.9043951097       13.7495768953  W2        5344            0.0000000000
     14251      4751  TIP3      OH2            -0.0803262818       -6.1722351097        9.6037468953  W2        5345            0.0000000000
     14252      4751  TIP3      H1             -0.9124662818       -5.6999651097        9.6308868953  W2        5345            0.0000000000
     14253      4751  TIP3      H2              0.4655037182       -5.6624751097        9.0050568953  W2        5345            0.0000000000
     14254      4752  TIP3      OH2             7.8973437182       -5.1323651097        3.9291468953  W2        5348            0.0000000000
     14255      4752  TIP3      H1              7.2534437182       -5.7635051097        4.2505168953  W2        5348            0.0000000000
     14256      4752  TIP3      H2              8.6591737182       -5.6635651097        3.6974968953  W2        5348            0.0000000000
     14257      4753  TIP3      OH2            12.5016337182       -5.3153751097        4.1629468953  W2        5350            0.0000000000
     14258      4753  TIP3      H1             12.7846737182       -6.1098551097        4.6156368953  W2        5350            0.0000000000
     14259      4753  TIP3      H2             13.2414237182       -5.0822751097        3.6020568953  W2        5350            0.0000000000
     14260      4754  TIP3      OH2             3.4563637182       -9.4058851097        4.0204368953  W2        5352            0.0000000000
     14261      4754  TIP3      H1              3.5207737182      -10.1999251097        4.5510768953  W2        5352            0.0000000000
     14262      4754  TIP3      H2              4.1092837182       -9.5246051097        3.3306368953  W2        5352            0.0000000000
     14263      4755  TIP3      OH2             8.8087037182       -8.3587151097        3.7562368953  W2        5354            0.0000000000
     14264      4755  TIP3      H1              8.5401137182       -8.1785051097        4.6571268953  W2        5354            0.0000000000
     14265      4755  TIP3      H2              8.6022637182       -9.2840951097        3.6248168953  W2        5354            0.0000000000
     14266      4756  TIP3      OH2             4.6057437182      -11.4332651097        6.3262368953  W2        5357            0.0000000000
     14267      4756  TIP3      H1              4.1459437182      -11.9174351097        7.0120868953  W2        5357            0.0000000000
     14268      4756  TIP3      H2              4.8606137182      -12.1017251097        5.6902868953  W2        5357            0.0000000000
     14269      4757  TIP3      OH2             5.6767837182      -13.1900851097        4.5885568953  W2        5359            0.0000000000
     14270      4757  TIP3      H1              5.4962837182      -13.3449651097        3.6613868953  W2        5359            0.0000000000
     14271      4757  TIP3      H2              6.6268337182      -13.0822151097        4.6333468953  W2        5359            0.0000000000
     14272      4758  TIP3      OH2            15.0666137182      -10.8356651097        4.0343668953  W2        5361            0.0000000000
     14273      4758  TIP3      H1             14.7930937182      -11.2601151097        3.2211968953  W2        5361            0.0000000000
     14274      4758  TIP3      H2             15.1060237182       -9.9042151097        3.8174068953  W2        5361            0.0000000000
     14275      4759  TIP3      OH2             5.5739537182       -2.4997151097        5.5899168953  W2        5375            0.0000000000
     14276      4759  TIP3      H1              6.5070237182       -2.3418451097        5.7337568953  W2        5375            0.0000000000
     14277      4759  TIP3      H2              5.3098337182       -1.8244151097        4.9650668953  W2        5375            0.0000000000
     14278      4760  TIP3      OH2            -0.8575562818       -7.8633351097        5.0727268953  W2        5376            0.0000000000
     14279      4760  TIP3      H1              0.0563637182       -7.7844451097        5.3461168953  W2        5376            0.0000000000
     14280      4760  TIP3      H2             -0.8502462818       -8.5503751097        4.4062868953  W2        5376            0.0000000000
     14281      4761  TIP3      OH2            -2.2084962818       -2.4704851097       10.1501168953  W2        5377            0.0000000000
     14282      4761  TIP3      H1             -2.8557862818       -2.9323151097        9.6172368953  W2        5377            0.0000000000
     14283      4761  TIP3      H2             -1.8540362818       -3.1421551097       10.7327368953  W2        5377            0.0000000000
     14284      4762  TIP3      OH2            -1.3385762818       -4.3897851097       11.9547368953  W2        5378            0.0000000000
     14285      4762  TIP3      H1             -1.6728962818       -5.2700551097       12.1267568953  W2        5378            0.0000000000
     14286      4762  TIP3      H2             -1.1163362818       -4.0442851097       12.8192968953  W2        5378            0.0000000000
     14287      4763  TIP3      OH2            15.5248937182       -9.9668551097        8.0094068953  W2        5382            0.0000000000
     14288      4763  TIP3      H1             16.3750337182       -9.5457651097        8.1365668953  W2        5382            0.0000000000
     14289      4763  TIP3      H2             15.5304037182      -10.7068451097        8.6165468953  W2        5382            0.0000000000
     14290      4764  TIP3      OH2            15.9194537182      -11.9131151097        9.8329768953  W2        5383            0.0000000000
     14291      4764  TIP3      H1             15.1929137182      -12.3928551097       10.2307368953  W2        5383            0.0000000000
     14292      4764  TIP3      H2             16.5007837182      -11.7076451097       10.5651368953  W2        5383            0.0000000000
     14293      4765  TIP3      OH2            15.6785737182       -9.1283651097       14.7807368953  W2        5384            0.0000000000
     14294      4765  TIP3      H1             16.5119937182       -9.5063651097       14.5000968953  W2        5384            0.0000000000
     14295      4765  TIP3      H2             15.7906037182       -8.1852451097       14.6616468953  W2        5384            0.0000000000
     14296      4766  TIP3      OH2            16.1877637182      -12.0122651097        6.2241068953  W2        5386            0.0000000000
     14297      4766  TIP3      H1             15.6658737182      -11.6558551097        5.5051968953  W2        5386            0.0000000000
     14298      4766  TIP3      H2             16.1546837182      -11.3374851097        6.9021968953  W2        5386            0.0000000000
     14299      4767  TIP3      OH2            14.5366637182      -14.7727051097        4.7748168953  W2        5387            0.0000000000
     14300      4767  TIP3      H1             14.6331037182      -14.1060051097        4.0947868953  W2        5387            0.0000000000
     14301      4767  TIP3      H2             14.3966237182      -15.5880751097        4.2933668953  W2        5387            0.0000000000
     14302      4768  TIP3      OH2            13.7061337182      -13.3924651097       10.3958468953  W2        5388            0.0000000000
     14303      4768  TIP3      H1             13.5560137182      -14.3376051097       10.3756268953  W2        5388            0.0000000000
     14304      4768  TIP3      H2             13.3525837182      -13.1113251097       11.2397568953  W2        5388            0.0000000000
     14305      4769  TIP3      OH2            -1.2586262818      -11.3142451097       14.4062268953  W2        5389            0.0000000000
     14306      4769  TIP3      H1             -1.0743362818      -11.3960751097       13.4705168953  W2        5389            0.0000000000
     14307      4769  TIP3      H2             -0.4093362818      -11.4385451097       14.8298668953  W2        5389            0.0000000000
     14308      4770  TIP3      OH2            13.7840437182      -17.3647251097        3.8923668953  W2        5392            0.0000000000
     14309      4770  TIP3      H1             14.3946237182      -17.7360451097        4.5291868953  W2        5392            0.0000000000
     14310      4770  TIP3      H2             12.9471937182      -17.7860351097        4.0883668953  W2        5392            0.0000000000
     14311      4771  TIP3      OH2            13.4166137182      -15.8098851097        8.8583568953  W2        5393            0.0000000000
     14312      4771  TIP3      H1             13.6963237182      -16.7168451097        8.9825268953  W2        5393            0.0000000000
     14313      4771  TIP3      H2             14.1757837182      -15.3757351097        8.4692768953  W2        5393            0.0000000000
     14314      4772  TIP3      OH2            14.0284437182      -15.2281451097       14.2942468953  W2        5394            0.0000000000
     14315      4772  TIP3      H1             14.9612437182      -15.0161551097       14.2598468953  W2        5394            0.0000000000
     14316      4772  TIP3      H2             13.7931937182      -15.1269351097       15.2165468953  W2        5394            0.0000000000
     14317      4773  TIP3      OH2            14.0300937182      -18.5469551097        8.9065568953  W2        5398            0.0000000000
     14318      4773  TIP3      H1             14.2125937182      -18.9958051097        9.7320568953  W2        5398            0.0000000000
     14319      4773  TIP3      H2             13.4303837182      -19.1315151097        8.4430168953  W2        5398            0.0000000000
     14320      4774  TIP3      OH2            -0.4398962818      -17.7315851097       13.4383968953  W2        5399            0.0000000000
     14321      4774  TIP3      H1              0.0052637182      -18.5233351097       13.7403668953  W2        5399            0.0000000000
     14322      4774  TIP3      H2              0.0264037182      -17.0150651097       13.8689568953  W2        5399            0.0000000000
     14323      4775  TIP3      OH2            -2.1358662818      -14.7322851097       14.5074168953  W2        5400            0.0000000000
     14324      4775  TIP3      H1             -1.6438862818      -14.9532351097       13.7166168953  W2        5400            0.0000000000
     14325      4775  TIP3      H2             -1.7737762818      -13.8919451097       14.7883668953  W2        5400            0.0000000000
     14326      4776  TIP3      OH2            15.8967137182      -18.4791451097        5.4345868953  W2        5402            0.0000000000
     14327      4776  TIP3      H1             16.3089737182      -19.2005751097        4.9593868953  W2        5402            0.0000000000
     14328      4776  TIP3      H2             16.5783637182      -17.8096851097        5.4930168953  W2        5402            0.0000000000
     14329      4777  TIP3      OH2            -1.8222162818      -18.4743751097        8.5616568953  W2        5403            0.0000000000
     14330      4777  TIP3      H1             -2.7473762818      -18.2657151097        8.4322068953  W2        5403            0.0000000000
     14331      4777  TIP3      H2             -1.3682262818      -17.9902951097        7.8718868953  W2        5403            0.0000000000
     14332      4778  TIP3      OH2            12.9485037182       -3.4902051097       10.5073968953  W2        5404            0.0000000000
     14333      4778  TIP3      H1             13.6007937182       -3.8379951097        9.8993068953  W2        5404            0.0000000000
     14334      4778  TIP3      H2             13.4588837182       -3.0018851097       11.1533668953  W2        5404            0.0000000000
     14335      4779  TIP3      OH2             0.1040237182       -3.7073051097       14.2665968953  W2        5416            0.0000000000
     14336      4779  TIP3      H1              0.0856237182       -4.1327951097       15.1238268953  W2        5416            0.0000000000
     14337      4779  TIP3      H2              0.9088137182       -4.0258051097       13.8578168953  W2        5416            0.0000000000
     14338      4780  TIP3      OH2             2.2453337182       -4.9974351097       12.9215868953  W2        5417            0.0000000000
     14339      4780  TIP3      H1              2.0264037182       -5.9136951097       13.0911868953  W2        5417            0.0000000000
     14340      4780  TIP3      H2              3.0695537182       -4.8573951097       13.3877268953  W2        5417            0.0000000000
     14341      4781  TIP3      OH2             4.7825837182       -4.5275051097       13.7703868953  W2        5418            0.0000000000
     14342      4781  TIP3      H1              4.9951537182       -5.4156051097       13.4834768953  W2        5418            0.0000000000
     14343      4781  TIP3      H2              4.8470937182       -4.5617351097       14.7247868953  W2        5418            0.0000000000
     14344      4782  TIP3      OH2             8.2909537182      -18.8634451097       12.9147168953  W2        5419            0.0000000000
     14345      4782  TIP3      H1              7.6166337182      -19.4928851097       13.1702968953  W2        5419            0.0000000000
     14346      4782  TIP3      H2              8.8548737182      -19.3475551097       12.3115068953  W2        5419            0.0000000000
     14347      4783  TIP3      OH2            13.4336737182      -20.7560451097       13.0274268953  W2        5420            0.0000000000
     14348      4783  TIP3      H1             14.0374337182      -20.2085051097       12.5255268953  W2        5420            0.0000000000
     14349      4783  TIP3      H2             12.5638737182      -20.4370051097       12.7868368953  W2        5420            0.0000000000
     14350      4784  TIP3      OH2            15.1607137182      -19.6171751097       11.3605168953  W2        5421            0.0000000000
     14351      4784  TIP3      H1             15.7724637182      -20.1316051097       10.8338768953  W2        5421            0.0000000000
     14352      4784  TIP3      H2             15.5430537182      -18.7399651097       11.3839568953  W2        5421            0.0000000000
     14353      4785  TIP3      OH2             0.6177037182      -20.2294151097       10.7367068953  W2        5422            0.0000000000
     14354      4785  TIP3      H1             -0.1593162818      -20.4639251097       10.2292968953  W2        5422            0.0000000000
     14355      4785  TIP3      H2              1.1480637182      -21.0262051097       10.7455068953  W2        5422            0.0000000000
     14356      4786  TIP3      OH2            -0.5459562818      -20.4316051097        6.5403168953  W2        5423            0.0000000000
     14357      4786  TIP3      H1             -0.1068862818      -19.8205551097        5.9486668953  W2        5423            0.0000000000
     14358      4786  TIP3      H2             -1.1797162818      -19.8931951097        7.0143168953  W2        5423            0.0000000000
     14359      4787  TIP3      OH2             5.1969637182      -20.3027051097       10.5500168953  W2        5424            0.0000000000
     14360      4787  TIP3      H1              6.0713037182      -19.9142751097       10.5204468953  W2        5424            0.0000000000
     14361      4787  TIP3      H2              5.0610437182      -20.5179251097       11.4727368953  W2        5424            0.0000000000
     14362      4788  TIP3      OH2            10.7538037182      -20.2727251097       12.1991868953  W2        5425            0.0000000000
     14363      4788  TIP3      H1             10.8299637182      -20.1775651097       11.2497868953  W2        5425            0.0000000000
     14364      4788  TIP3      H2             10.4787237182      -21.1804351097       12.3280968953  W2        5425            0.0000000000
     14365      4789  TIP3      OH2            12.1070637182      -20.2469451097        7.8916868953  W2        5426            0.0000000000
     14366      4789  TIP3      H1             11.4041737182      -19.6320251097        7.6818268953  W2        5426            0.0000000000
     14367      4789  TIP3      H2             11.6622037182      -21.0842751097        8.0227768953  W2        5426            0.0000000000
     14368      4790  TIP3      OH2            -0.6450062818       -4.4833851097        7.4378268953  W2        5427            0.0000000000
     14369      4790  TIP3      H1             -1.3300162818       -4.5214951097        6.7703368953  W2        5427            0.0000000000
     14370      4790  TIP3      H2             -0.6412862818       -3.5706251097        7.7260368953  W2        5427            0.0000000000
     14371      4791  TIP3      OH2             1.3149537182      -18.5154551097        4.9827268953  W2        5428            0.0000000000
     14372      4791  TIP3      H1              1.8062937182      -19.1452151097        4.4552768953  W2        5428            0.0000000000
     14373      4791  TIP3      H2              1.9385837182      -18.2195151097        5.6458468953  W2        5428            0.0000000000
     14374      4792  TIP3      OH2             6.3409637182      -18.2223051097        7.4397768953  W2        5429            0.0000000000
     14375      4792  TIP3      H1              6.5190937182      -18.8689851097        8.1226368953  W2        5429            0.0000000000
     14376      4792  TIP3      H2              6.2875837182      -17.3885351097        7.9068868953  W2        5429            0.0000000000
     14377      4793  TIP3      OH2             8.2193437182       -3.2738951097        5.8354468953  W2        5430            0.0000000000
     14378      4793  TIP3      H1              9.0853637182       -2.9071551097        5.6572668953  W2        5430            0.0000000000
     14379      4793  TIP3      H2              7.9726237182       -3.7130951097        5.0215268953  W2        5430            0.0000000000
     14380      4794  TIP3      OH2            14.9283037182       -3.7108651097        8.5145568953  W2        5431            0.0000000000
     14381      4794  TIP3      H1             14.7340137182       -4.4586551097        7.9495168953  W2        5431            0.0000000000
     14382      4794  TIP3      H2             14.8893137182       -2.9528551097        7.9313468953  W2        5431            0.0000000000
     14383      4795  TIP3      OH2             1.1731137182       -3.5633051097        4.4630368953  W2        5434            0.0000000000
     14384      4795  TIP3      H1              0.9055737182       -3.2770151097        5.3363468953  W2        5434            0.0000000000
     14385      4795  TIP3      H2              1.9443737182       -4.1093851097        4.6152868953  W2        5434            0.0000000000
     14386      4796  TIP3      OH2            28.5519637182      -11.0731851097       10.6954568953  W2        5437            0.0000000000
     14387      4796  TIP3      H1             28.6410737182      -10.1293651097       10.5631668953  W2        5437            0.0000000000
     14388      4796  TIP3      H2             27.9137237182      -11.3485451097       10.0373968953  W2        5437            0.0000000000
     14389      4797  TIP3      OH2            27.4850937182      -11.8181151097       14.1142768953  W2        5438            0.0000000000
     14390      4797  TIP3      H1             27.4468437182      -12.4644851097       14.8192368953  W2        5438            0.0000000000
     14391      4797  TIP3      H2             27.1627437182      -12.2846751097       13.3431468953  W2        5438            0.0000000000
     14392      4798  TIP3      OH2            31.1911137182       -8.8790751097       12.4157868953  W2        5440            0.0000000000
     14393      4798  TIP3      H1             30.7503837182       -9.5994751097       12.8663468953  W2        5440            0.0000000000
     14394      4798  TIP3      H2             31.1780837182       -8.1583551097       13.0455568953  W2        5440            0.0000000000
     14395      4799  TIP3      OH2            20.7769037182       -7.7540151097       14.2421768953  W2        5441            0.0000000000
     14396      4799  TIP3      H1             20.4074237182       -8.5559651097       13.8726068953  W2        5441            0.0000000000
     14397      4799  TIP3      H2             21.7180137182       -7.9225251097       14.2885168953  W2        5441            0.0000000000
     14398      4800  TIP3      OH2            17.3869537182      -14.0937551097        9.6350568953  W2        5442            0.0000000000
     14399      4800  TIP3      H1             16.9392937182      -13.2478851097        9.6167068953  W2        5442            0.0000000000
     14400      4800  TIP3      H2             16.8260737182      -14.6733351097        9.1195668953  W2        5442            0.0000000000
     14401      4801  TIP3      OH2            18.0975637182      -11.9317951097       11.7608568953  W2        5443            0.0000000000
     14402      4801  TIP3      H1             18.3109137182      -12.7016351097       12.2881568953  W2        5443            0.0000000000
     14403      4801  TIP3      H2             18.8353237182      -11.8421251097       11.1576168953  W2        5443            0.0000000000
     14404      4802  TIP3      OH2            28.3026637182       -3.7749051097       12.6278268953  W2        5444            0.0000000000
     14405      4802  TIP3      H1             28.9223037182       -4.4514351097       12.3547468953  W2        5444            0.0000000000
     14406      4802  TIP3      H2             28.0944037182       -3.9928251097       13.5363168953  W2        5444            0.0000000000
     14407      4803  TIP3      OH2            25.8745337182       -9.3859751097       14.5203768953  W2        5445            0.0000000000
     14408      4803  TIP3      H1             26.1783237182      -10.0718351097       13.9257868953  W2        5445            0.0000000000
     14409      4803  TIP3      H2             26.5959337182       -9.2671051097       15.1381768953  W2        5445            0.0000000000
     14410      4804  TIP3      OH2            29.0152337182      -14.9917351097       14.8478568953  W2        5447            0.0000000000
     14411      4804  TIP3      H1             29.1578237182      -15.9380351097       14.8680168953  W2        5447            0.0000000000
     14412      4804  TIP3      H2             28.9091337182      -14.7847551097       13.9193468953  W2        5447            0.0000000000
     14413      4805  TIP3      OH2            22.1700637182      -16.8900951097       12.1203368953  W2        5448            0.0000000000
     14414      4805  TIP3      H1             22.2131737182      -16.0302451097       11.7019668953  W2        5448            0.0000000000
     14415      4805  TIP3      H2             21.7124737182      -17.4426251097       11.4866568953  W2        5448            0.0000000000
     14416      4806  TIP3      OH2            29.8923337182      -16.7595351097       10.5211668953  W2        5449            0.0000000000
     14417      4806  TIP3      H1             30.5387637182      -17.0882151097       11.1459268953  W2        5449            0.0000000000
     14418      4806  TIP3      H2             30.4022737182      -16.2416351097        9.8983068953  W2        5449            0.0000000000
     14419      4807  TIP3      OH2            18.7902137182      -14.4935151097       12.8824768953  W2        5450            0.0000000000
     14420      4807  TIP3      H1             19.4438737182      -15.0433451097       13.3144868953  W2        5450            0.0000000000
     14421      4807  TIP3      H2             18.8141437182      -14.7676151097       11.9656768953  W2        5450            0.0000000000
     14422      4808  TIP3      OH2            23.9466637182      -12.9433851097       12.0976268953  W2        5451            0.0000000000
     14423      4808  TIP3      H1             24.5627637182      -13.4698451097       12.6070268953  W2        5451            0.0000000000
     14424      4808  TIP3      H2             23.3605437182      -13.5835151097       11.6939868953  W2        5451            0.0000000000
     14425      4809  TIP3      OH2            28.3492337182       -8.4721451097        9.7383268953  W2        5454            0.0000000000
     14426      4809  TIP3      H1             28.0537437182       -8.7949151097        8.8870168953  W2        5454            0.0000000000
     14427      4809  TIP3      H2             28.0250137182       -7.5724751097        9.7795868953  W2        5454            0.0000000000
     14428      4810  TIP3      OH2            31.6561737182      -17.4686051097       12.5017568953  W2        5456            0.0000000000
     14429      4810  TIP3      H1             31.4409737182      -18.2342651097       13.0343568953  W2        5456            0.0000000000
     14430      4810  TIP3      H2             32.3119137182      -16.9961451097       13.0146068953  W2        5456            0.0000000000
     14431      4811  TIP3      OH2            20.5739837182      -16.0800751097       14.1466368953  W2        5457            0.0000000000
     14432      4811  TIP3      H1             21.1876137182      -15.4473151097       14.5198768953  W2        5457            0.0000000000
     14433      4811  TIP3      H2             21.0860537182      -16.5525751097       13.4903268953  W2        5457            0.0000000000
     14434      4812  TIP3      OH2            18.0779137182       -8.6615951097        8.0508668953  W2        5459            0.0000000000
     14435      4812  TIP3      H1             17.8060037182       -8.4324951097        7.1621568953  W2        5459            0.0000000000
     14436      4812  TIP3      H2             18.1234837182       -7.8237151097        8.5113968953  W2        5459            0.0000000000
     14437      4813  TIP3      OH2            31.7028837182       -7.0400051097       14.7637168953  W2        5460            0.0000000000
     14438      4813  TIP3      H1             30.7612537182       -6.9816151097       14.9254068953  W2        5460            0.0000000000
     14439      4813  TIP3      H2             31.9794937182       -6.1339551097       14.6266868953  W2        5460            0.0000000000
     14440      4814  TIP3      OH2            25.0067237182      -20.6667451097       13.6469068953  W2        5462            0.0000000000
     14441      4814  TIP3      H1             24.8891437182      -21.6151451097       13.5927368953  W2        5462            0.0000000000
     14442      4814  TIP3      H2             24.1517337182      -20.3341351097       13.9200168953  W2        5462            0.0000000000
     14443      4815  TIP3      OH2            29.9550037182       -5.2586551097       11.3888768953  W2        5463            0.0000000000
     14444      4815  TIP3      H1             30.3802337182       -5.9658651097       10.9038368953  W2        5463            0.0000000000
     14445      4815  TIP3      H2             30.2720037182       -4.4573851097       10.9720968953  W2        5463            0.0000000000
     14446      4816  TIP3      OH2            31.1146537182       -7.3578051097        9.8975368953  W2        5464            0.0000000000
     14447      4816  TIP3      H1             30.8571337182       -8.0477951097        9.2861268953  W2        5464            0.0000000000
     14448      4816  TIP3      H2             31.1857337182       -7.8006851097       10.7431268953  W2        5464            0.0000000000
     14449      4817  TIP3      OH2            27.2732137182      -11.8291851097        8.1474868953  W2        5466            0.0000000000
     14450      4817  TIP3      H1             26.5617637182      -11.2942151097        7.7955368953  W2        5466            0.0000000000
     14451      4817  TIP3      H2             27.9641737182      -11.7739751097        7.4873768953  W2        5466            0.0000000000
     14452      4818  TIP3      OH2            27.3271337182      -13.3717551097        5.1859868953  W2        5467            0.0000000000
     14453      4818  TIP3      H1             28.0281237182      -13.3490651097        5.8373868953  W2        5467            0.0000000000
     14454      4818  TIP3      H2             27.6294237182      -13.9997851097        4.5299168953  W2        5467            0.0000000000
     14455      4819  TIP3      OH2            30.6789837182      -11.6198551097        9.0990768953  W2        5469            0.0000000000
     14456      4819  TIP3      H1             29.9470837182      -11.3914851097        9.6721368953  W2        5469            0.0000000000
     14457      4819  TIP3      H2             31.1262037182      -12.3335851097        9.5538268953  W2        5469            0.0000000000
     14458      4820  TIP3      OH2            22.3243537182      -10.9892351097       10.9815768953  W2        5471            0.0000000000
     14459      4820  TIP3      H1             21.9938737182      -11.3598951097       10.1632768953  W2        5471            0.0000000000
     14460      4820  TIP3      H2             22.9127637182      -11.6598351097       11.3284068953  W2        5471            0.0000000000
     14461      4821  TIP3      OH2            23.6911037182       -7.5611751097       13.6627968953  W2        5472            0.0000000000
     14462      4821  TIP3      H1             23.5962337182       -8.1398651097       12.9062568953  W2        5472            0.0000000000
     14463      4821  TIP3      H2             24.4204637182       -7.9326051097       14.1590768953  W2        5472            0.0000000000
     14464      4822  TIP3      OH2            22.6909037182      -12.2206751097       14.6150768953  W2        5473            0.0000000000
     14465      4822  TIP3      H1             23.2561537182      -12.0992551097       13.8521968953  W2        5473            0.0000000000
     14466      4822  TIP3      H2             23.0097937182      -11.5831751097       15.2539268953  W2        5473            0.0000000000
     14467      4823  TIP3      OH2            29.5499337182      -12.4575651097        6.7841968953  W2        5476            0.0000000000
     14468      4823  TIP3      H1             30.1294837182      -12.3075351097        7.5310868953  W2        5476            0.0000000000
     14469      4823  TIP3      H2             29.9639337182      -11.9868251097        6.0608368953  W2        5476            0.0000000000
     14470      4824  TIP3      OH2            27.2764237182       -5.7207151097       10.2195068953  W2        5478            0.0000000000
     14471      4824  TIP3      H1             27.7501837182       -5.4250851097       10.9969268953  W2        5478            0.0000000000
     14472      4824  TIP3      H2             26.7133537182       -4.9825551097        9.9864668953  W2        5478            0.0000000000
     14473      4825  TIP3      OH2            33.2487737182      -20.7075251097        6.5971668953  W2        5480            0.0000000000
     14474      4825  TIP3      H1             32.3488437182      -20.5686251097        6.8922268953  W2        5480            0.0000000000
     14475      4825  TIP3      H2             33.5006137182      -19.8760651097        6.1953368953  W2        5480            0.0000000000
     14476      4826  TIP3      OH2            21.3146237182      -11.9198051097        8.5708568953  W2        5481            0.0000000000
     14477      4826  TIP3      H1             21.0227537182      -11.1516351097        8.0799868953  W2        5481            0.0000000000
     14478      4826  TIP3      H2             20.6401437182      -12.5791851097        8.4079968953  W2        5481            0.0000000000
     14479      4827  TIP3      OH2            34.4379137182       -6.3412851097        4.9735568953  W2        5482            0.0000000000
     14480      4827  TIP3      H1             34.5112637182       -5.4022651097        5.1440868953  W2        5482            0.0000000000
     14481      4827  TIP3      H2             35.3434237182       -6.6464251097        4.9172868953  W2        5482            0.0000000000
     14482      4828  TIP3      OH2            17.1579037182       -6.7765051097       14.2698568953  W2        5484            0.0000000000
     14483      4828  TIP3      H1             18.1039637182       -6.9208051097       14.2508068953  W2        5484            0.0000000000
     14484      4828  TIP3      H2             17.0455337182       -5.9922251097       14.8069768953  W2        5484            0.0000000000
     14485      4829  TIP3      OH2            26.7487337182       -2.7642451097        8.6344268953  W2        5487            0.0000000000
     14486      4829  TIP3      H1             26.6733337182       -2.8855251097        7.6879468953  W2        5487            0.0000000000
     14487      4829  TIP3      H2             26.7816037182       -1.8149751097        8.7528868953  W2        5487            0.0000000000
     14488      4830  TIP3      OH2            20.4021137182       -3.9755451097       10.4153268953  W2        5488            0.0000000000
     14489      4830  TIP3      H1             20.5541537182       -4.3235051097       11.2939768953  W2        5488            0.0000000000
     14490      4830  TIP3      H2             19.5511537182       -4.3318151097       10.1600468953  W2        5488            0.0000000000
     14491      4831  TIP3      OH2            29.8503337182       -3.6102251097        5.6366668953  W2        5489            0.0000000000
     14492      4831  TIP3      H1             30.2251737182       -4.3546151097        5.1659268953  W2        5489            0.0000000000
     14493      4831  TIP3      H2             29.8547037182       -3.8801651097        6.5549968953  W2        5489            0.0000000000
     14494      4832  TIP3      OH2            29.5191437182       -3.6845151097        8.3858868953  W2        5490            0.0000000000
     14495      4832  TIP3      H1             28.5841237182       -3.5843251097        8.5645868953  W2        5490            0.0000000000
     14496      4832  TIP3      H2             29.7993337182       -4.3939151097        8.9642068953  W2        5490            0.0000000000
     14497      4833  TIP3      OH2            22.2754837182      -19.7632951097       14.4245368953  W2        5493            0.0000000000
     14498      4833  TIP3      H1             21.4138537182      -19.8504751097       14.0168268953  W2        5493            0.0000000000
     14499      4833  TIP3      H2             22.2530537182      -18.9072851097       14.8522968953  W2        5493            0.0000000000
     14500      4834  TIP3      OH2            31.0272437182      -11.4247351097        4.4139868953  W2        5496            0.0000000000
     14501      4834  TIP3      H1             31.0693237182      -11.6473451097        3.4839868953  W2        5496            0.0000000000
     14502      4834  TIP3      H2             31.8764537182      -11.0260251097        4.6039768953  W2        5496            0.0000000000
     14503      4835  TIP3      OH2            26.5999937182      -17.5489151097        5.0843168953  W2        5497            0.0000000000
     14504      4835  TIP3      H1             26.3464737182      -17.5297551097        6.0071268953  W2        5497            0.0000000000
     14505      4835  TIP3      H2             26.3432037182      -18.4203751097        4.7829368953  W2        5497            0.0000000000
     14506      4836  TIP3      OH2            22.3634037182      -14.5768351097       10.4315568953  W2        5499            0.0000000000
     14507      4836  TIP3      H1             21.4706937182      -14.9172251097       10.3729368953  W2        5499            0.0000000000
     14508      4836  TIP3      H2             22.8140637182      -14.9537451097        9.6758768953  W2        5499            0.0000000000
     14509      4837  TIP3      OH2            27.8989537182      -14.1608051097        9.2486368953  W2        5500            0.0000000000
     14510      4837  TIP3      H1             27.4899837182      -13.3459451097        8.9571168953  W2        5500            0.0000000000
     14511      4837  TIP3      H2             28.6195737182      -14.3007951097        8.6343468953  W2        5500            0.0000000000
     14512      4838  TIP3      OH2            28.9037237182      -14.7147651097       12.0626068953  W2        5502            0.0000000000
     14513      4838  TIP3      H1             28.7081737182      -14.1090851097       11.3476668953  W2        5502            0.0000000000
     14514      4838  TIP3      H2             29.0849837182      -15.5482451097       11.6282368953  W2        5502            0.0000000000
     14515      4839  TIP3      OH2            23.4822837182      -17.1032651097        4.1853568953  W2        5504            0.0000000000
     14516      4839  TIP3      H1             23.0513537182      -17.5482551097        4.9150968953  W2        5504            0.0000000000
     14517      4839  TIP3      H2             22.7641537182      -16.7316351097        3.6731068953  W2        5504            0.0000000000
     14518      4840  TIP3      OH2            16.7246237182      -17.3613151097       11.2372268953  W2        5505            0.0000000000
     14519      4840  TIP3      H1             17.3553937182      -17.3901051097       11.9566168953  W2        5505            0.0000000000
     14520      4840  TIP3      H2             17.1740537182      -17.7864451097       10.5068168953  W2        5505            0.0000000000
     14521      4841  TIP3      OH2            17.9988337182      -16.6151151097        6.6612668953  W2        5506            0.0000000000
     14522      4841  TIP3      H1             18.4730037182      -16.0241251097        6.0763568953  W2        5506            0.0000000000
     14523      4841  TIP3      H2             17.2814737182      -16.0848251097        7.0082768953  W2        5506            0.0000000000
     14524      4842  TIP3      OH2            24.9449337182      -17.1490851097       11.5179668953  W2        5508            0.0000000000
     14525      4842  TIP3      H1             24.0340437182      -17.0924051097       11.8065668953  W2        5508            0.0000000000
     14526      4842  TIP3      H2             25.4502237182      -17.2095351097       12.3286868953  W2        5508            0.0000000000
     14527      4843  TIP3      OH2            19.7732737182      -15.5204551097       10.3447268953  W2        5509            0.0000000000
     14528      4843  TIP3      H1             18.8840737182      -15.4209051097       10.0046868953  W2        5509            0.0000000000
     14529      4843  TIP3      H2             20.0697637182      -16.3621551097        9.9985168953  W2        5509            0.0000000000
     14530      4844  TIP3      OH2            23.4264537182      -15.5201951097        8.0011868953  W2        5510            0.0000000000
     14531      4844  TIP3      H1             24.3580037182      -15.3911951097        8.1794968953  W2        5510            0.0000000000
     14532      4844  TIP3      H2             23.2114837182      -14.8507651097        7.3516568953  W2        5510            0.0000000000
     14533      4845  TIP3      OH2            29.3501237182      -17.9144551097       14.7821468953  W2        5511            0.0000000000
     14534      4845  TIP3      H1             28.6732837182      -17.7831451097       15.4461168953  W2        5511            0.0000000000
     14535      4845  TIP3      H2             28.8646137182      -18.0695051097       13.9719168953  W2        5511            0.0000000000
     14536      4846  TIP3      OH2            22.1004737182      -14.3259751097        5.5677968953  W2        5512            0.0000000000
     14537      4846  TIP3      H1             21.5579837182      -14.7055951097        4.8765568953  W2        5512            0.0000000000
     14538      4846  TIP3      H2             22.9339637182      -14.1315051097        5.1392068953  W2        5512            0.0000000000
     14539      4847  TIP3      OH2            26.2649037182      -14.3617851097       13.4049268953  W2        5515            0.0000000000
     14540      4847  TIP3      H1             26.8292437182      -14.9081251097       12.8578868953  W2        5515            0.0000000000
     14541      4847  TIP3      H2             26.1172437182      -14.8835951097       14.1936868953  W2        5515            0.0000000000
     14542      4848  TIP3      OH2            21.2668737182      -18.2251751097        9.8234068953  W2        5516            0.0000000000
     14543      4848  TIP3      H1             20.9498237182      -19.1276451097        9.7879468953  W2        5516            0.0000000000
     14544      4848  TIP3      H2             22.0482837182      -18.2234351097        9.2705668953  W2        5516            0.0000000000
     14545      4849  TIP3      OH2            25.4357537182       -9.7604051097        7.5036068953  W2        5518            0.0000000000
     14546      4849  TIP3      H1             24.6908537182      -10.2678751097        7.1813968953  W2        5518            0.0000000000
     14547      4849  TIP3      H2             25.3014737182       -9.7116051097        8.4500868953  W2        5518            0.0000000000
     14548      4850  TIP3      OH2            29.3334337182      -16.9464151097        5.7028668953  W2        5520            0.0000000000
     14549      4850  TIP3      H1             28.3948537182      -16.8348551097        5.5517468953  W2        5520            0.0000000000
     14550      4850  TIP3      H2             29.6306437182      -16.0897251097        6.0094368953  W2        5520            0.0000000000
     14551      4851  TIP3      OH2            30.0517837182      -15.0791451097        7.3636068953  W2        5522            0.0000000000
     14552      4851  TIP3      H1             30.9436837182      -15.2166451097        7.6827268953  W2        5522            0.0000000000
     14553      4851  TIP3      H2             30.1081437182      -14.2885351097        6.8269568953  W2        5522            0.0000000000
     14554      4852  TIP3      OH2            20.5605837182      -10.4654051097       13.2733968953  W2        5523            0.0000000000
     14555      4852  TIP3      H1             21.3053037182      -10.4678351097       12.6720468953  W2        5523            0.0000000000
     14556      4852  TIP3      H2             20.6382437182      -11.2890251097       13.7549068953  W2        5523            0.0000000000
     14557      4853  TIP3      OH2            27.5611637182       -8.3019751097        6.5290668953  W2        5524            0.0000000000
     14558      4853  TIP3      H1             27.2660037182       -7.4751851097        6.9105468953  W2        5524            0.0000000000
     14559      4853  TIP3      H2             26.8581637182       -8.9212851097        6.7252068953  W2        5524            0.0000000000
     14560      4854  TIP3      OH2            34.9366537182      -14.8697351097        7.0582768953  W2        5528            0.0000000000
     14561      4854  TIP3      H1             34.3822837182      -15.2659351097        6.3860268953  W2        5528            0.0000000000
     14562      4854  TIP3      H2             35.0370137182      -13.9592151097        6.7806068953  W2        5528            0.0000000000
     14563      4855  TIP3      OH2            33.2318237182       -6.0836951097        7.5234868953  W2        5530            0.0000000000
     14564      4855  TIP3      H1             32.8589337182       -6.9093151097        7.8325468953  W2        5530            0.0000000000
     14565      4855  TIP3      H2             33.5091737182       -6.2667551097        6.6258268953  W2        5530            0.0000000000
     14566      4856  TIP3      OH2            30.3922137182      -11.2757451097       14.5446768953  W2        5531            0.0000000000
     14567      4856  TIP3      H1             29.4639037182      -11.5075551097       14.5176068953  W2        5531            0.0000000000
     14568      4856  TIP3      H2             30.8433237182      -12.0527651097       14.2145568953  W2        5531            0.0000000000
     14569      4857  TIP3      OH2            22.9355237182       -6.9475851097       10.6775468953  W2        5532            0.0000000000
     14570      4857  TIP3      H1             23.4627437182       -6.1741451097       10.4774268953  W2        5532            0.0000000000
     14571      4857  TIP3      H2             22.0553737182       -6.7226651097       10.3759468953  W2        5532            0.0000000000
     14572      4858  TIP3      OH2            18.6902937182      -12.0851751097        5.2647868953  W2        5533            0.0000000000
     14573      4858  TIP3      H1             19.3062837182      -11.4584551097        5.6442668953  W2        5533            0.0000000000
     14574      4858  TIP3      H2             17.8285537182      -11.7691951097        5.5364368953  W2        5533            0.0000000000
     14575      4859  TIP3      OH2            24.3627537182       -9.2845951097       10.2539768953  W2        5534            0.0000000000
     14576      4859  TIP3      H1             24.1217537182       -8.3591551097       10.2955068953  W2        5534            0.0000000000
     14577      4859  TIP3      H2             23.6221137182       -9.7434651097       10.6503668953  W2        5534            0.0000000000
     14578      4860  TIP3      OH2            23.0458337182       -4.2628351097        9.7991968953  W2        5536            0.0000000000
     14579      4860  TIP3      H1             22.0958837182       -4.1570951097        9.8505268953  W2        5536            0.0000000000
     14580      4860  TIP3      H2             23.3976437182       -3.4420951097       10.1439468953  W2        5536            0.0000000000
     14581      4861  TIP3      OH2            30.6243837182       -8.1071151097        5.3435468953  W2        5538            0.0000000000
     14582      4861  TIP3      H1             30.9776937182       -8.4871351097        6.1478968953  W2        5538            0.0000000000
     14583      4861  TIP3      H2             29.6757337182       -8.2006351097        5.4304768953  W2        5538            0.0000000000
     14584      4862  TIP3      OH2            35.1278237182       -3.6278651097        5.5445668953  W2        5540            0.0000000000
     14585      4862  TIP3      H1             35.8716137182       -3.0418151097        5.4047268953  W2        5540            0.0000000000
     14586      4862  TIP3      H2             34.4336337182       -3.0592851097        5.8778068953  W2        5540            0.0000000000
     14587      4863  TIP3      OH2            31.4903137182       -9.4349151097        7.5703368953  W2        5542            0.0000000000
     14588      4863  TIP3      H1             31.2130737182      -10.1629851097        8.1264468953  W2        5542            0.0000000000
     14589      4863  TIP3      H2             32.4176137182       -9.3157151097        7.7755968953  W2        5542            0.0000000000
     14590      4864  TIP3      OH2            24.7151637182       -6.9955051097        3.7905468953  W2        5544            0.0000000000
     14591      4864  TIP3      H1             24.9541437182       -7.7436951097        3.2434368953  W2        5544            0.0000000000
     14592      4864  TIP3      H2             24.4462937182       -7.3833351097        4.6233268953  W2        5544            0.0000000000
     14593      4865  TIP3      OH2            23.6522237182       -7.4251251097        6.2468068953  W2        5545            0.0000000000
     14594      4865  TIP3      H1             23.7990237182       -7.9451451097        7.0368968953  W2        5545            0.0000000000
     14595      4865  TIP3      H2             23.6493937182       -6.5183651097        6.5533968953  W2        5545            0.0000000000
     14596      4866  TIP3      OH2            20.1053337182      -10.1727951097        6.7573468953  W2        5546            0.0000000000
     14597      4866  TIP3      H1             19.4192637182       -9.8205451097        7.3243168953  W2        5546            0.0000000000
     14598      4866  TIP3      H2             20.6281237182       -9.4098351097        6.5107768953  W2        5546            0.0000000000
     14599      4867  TIP3      OH2            28.7213337182      -17.8582451097        8.1334768953  W2        5548            0.0000000000
     14600      4867  TIP3      H1             28.9411637182      -17.3867051097        7.3300168953  W2        5548            0.0000000000
     14601      4867  TIP3      H2             29.2797337182      -17.4639851097        8.8035368953  W2        5548            0.0000000000
     14602      4868  TIP3      OH2            26.3899437182       -5.7277651097        6.9962268953  W2        5549            0.0000000000
     14603      4868  TIP3      H1             25.5735537182       -5.2307951097        7.0486568953  W2        5549            0.0000000000
     14604      4868  TIP3      H2             26.9195737182       -5.2524151097        6.3561068953  W2        5549            0.0000000000
     14605      4869  TIP3      OH2            25.9213237182      -16.1303651097        8.9683168953  W2        5550            0.0000000000
     14606      4869  TIP3      H1             26.7335837182      -15.6260451097        9.0144868953  W2        5550            0.0000000000
     14607      4869  TIP3      H2             25.6766237182      -16.2753951097        9.8822768953  W2        5550            0.0000000000
     14608      4870  TIP3      OH2            26.8049937182      -19.0490651097        9.9064268953  W2        5552            0.0000000000
     14609      4870  TIP3      H1             26.4583437182      -18.4320051097       10.5508568953  W2        5552            0.0000000000
     14610      4870  TIP3      H2             27.4636837182      -18.5484951097        9.4249768953  W2        5552            0.0000000000
     14611      4871  TIP3      OH2            23.7282537182       -4.6840451097        6.9779168953  W2        5553            0.0000000000
     14612      4871  TIP3      H1             23.8891237182       -3.8842951097        6.4771768953  W2        5553            0.0000000000
     14613      4871  TIP3      H2             23.5310337182       -4.3774451097        7.8629768953  W2        5553            0.0000000000
     14614      4872  TIP3      OH2            22.4626937182      -17.9861251097        6.5936768953  W2        5554            0.0000000000
     14615      4872  TIP3      H1             22.3791737182      -17.0978151097        6.9403168953  W2        5554            0.0000000000
     14616      4872  TIP3      H2             23.3527237182      -18.2514551097        6.8253568953  W2        5554            0.0000000000
     14617      4873  TIP3      OH2            31.2636437182      -13.4869651097       13.0836768953  W2        5556            0.0000000000
     14618      4873  TIP3      H1             30.4660837182      -13.9019451097       12.7551768953  W2        5556            0.0000000000
     14619      4873  TIP3      H2             31.7087537182      -14.1775951097       13.5747268953  W2        5556            0.0000000000
     14620      4874  TIP3      OH2            20.7212237182       -7.5589051097        5.6541268953  W2        5557            0.0000000000
     14621      4874  TIP3      H1             21.3133737182       -6.8594251097        5.9303668953  W2        5557            0.0000000000
     14622      4874  TIP3      H2             21.1805237182       -7.9919551097        4.9345868953  W2        5557            0.0000000000
     14623      4875  TIP3      OH2            19.0371437182      -14.8946051097        4.7700668953  W2        5558            0.0000000000
     14624      4875  TIP3      H1             18.9924037182      -13.9552951097        4.9487668953  W2        5558            0.0000000000
     14625      4875  TIP3      H2             18.1494637182      -15.1301151097        4.5002768953  W2        5558            0.0000000000
     14626      4876  TIP3      OH2            32.3501037182       -4.2307151097       14.7060268953  W2        5559            0.0000000000
     14627      4876  TIP3      H1             32.1945337182       -3.5522751097       14.0489568953  W2        5559            0.0000000000
     14628      4876  TIP3      H2             33.2827437182       -4.1587851097       14.9090868953  W2        5559            0.0000000000
     14629      4877  TIP3      OH2            19.8453437182      -20.1129451097       13.4431668953  W2        5560            0.0000000000
     14630      4877  TIP3      H1             19.6163237182      -20.0536951097       12.5156668953  W2        5560            0.0000000000
     14631      4877  TIP3      H2             19.4026837182      -20.9043951097       13.7495768953  W2        5560            0.0000000000
     14632      4878  TIP3      OH2            18.7756737182       -6.1722351097        9.6037468953  W2        5561            0.0000000000
     14633      4878  TIP3      H1             17.9435337182       -5.6999651097        9.6308868953  W2        5561            0.0000000000
     14634      4878  TIP3      H2             19.3215037182       -5.6624751097        9.0050568953  W2        5561            0.0000000000
     14635      4879  TIP3      OH2            26.7533437182       -5.1323651097        3.9291468953  W2        5564            0.0000000000
     14636      4879  TIP3      H1             26.1094437182       -5.7635051097        4.2505168953  W2        5564            0.0000000000
     14637      4879  TIP3      H2             27.5151737182       -5.6635651097        3.6974968953  W2        5564            0.0000000000
     14638      4880  TIP3      OH2            31.3576337182       -5.3153751097        4.1629468953  W2        5566            0.0000000000
     14639      4880  TIP3      H1             31.6406737182       -6.1098551097        4.6156368953  W2        5566            0.0000000000
     14640      4880  TIP3      H2             32.0974237182       -5.0822751097        3.6020568953  W2        5566            0.0000000000
     14641      4881  TIP3      OH2            22.3123637182       -9.4058851097        4.0204368953  W2        5568            0.0000000000
     14642      4881  TIP3      H1             22.3767737182      -10.1999251097        4.5510768953  W2        5568            0.0000000000
     14643      4881  TIP3      H2             22.9652837182       -9.5246051097        3.3306368953  W2        5568            0.0000000000
     14644      4882  TIP3      OH2            27.6647037182       -8.3587151097        3.7562368953  W2        5570            0.0000000000
     14645      4882  TIP3      H1             27.3961137182       -8.1785051097        4.6571268953  W2        5570            0.0000000000
     14646      4882  TIP3      H2             27.4582637182       -9.2840951097        3.6248168953  W2        5570            0.0000000000
     14647      4883  TIP3      OH2            23.4617437182      -11.4332651097        6.3262368953  W2        5573            0.0000000000
     14648      4883  TIP3      H1             23.0019437182      -11.9174351097        7.0120868953  W2        5573            0.0000000000
     14649      4883  TIP3      H2             23.7166137182      -12.1017251097        5.6902868953  W2        5573            0.0000000000
     14650      4884  TIP3      OH2            24.5327837182      -13.1900851097        4.5885568953  W2        5575            0.0000000000
     14651      4884  TIP3      H1             24.3522837182      -13.3449651097        3.6613868953  W2        5575            0.0000000000
     14652      4884  TIP3      H2             25.4828337182      -13.0822151097        4.6333468953  W2        5575            0.0000000000
     14653      4885  TIP3      OH2            33.9226137182      -10.8356651097        4.0343668953  W2        5577            0.0000000000
     14654      4885  TIP3      H1             33.6490937182      -11.2601151097        3.2211968953  W2        5577            0.0000000000
     14655      4885  TIP3      H2             33.9620237182       -9.9042151097        3.8174068953  W2        5577            0.0000000000
     14656      4886  TIP3      OH2            24.4299537182       -2.4997151097        5.5899168953  W2        5591            0.0000000000
     14657      4886  TIP3      H1             25.3630237182       -2.3418451097        5.7337568953  W2        5591            0.0000000000
     14658      4886  TIP3      H2             24.1658337182       -1.8244151097        4.9650668953  W2        5591            0.0000000000
     14659      4887  TIP3      OH2            17.9984437182       -7.8633351097        5.0727268953  W2        5592            0.0000000000
     14660      4887  TIP3      H1             18.9123637182       -7.7844451097        5.3461168953  W2        5592            0.0000000000
     14661      4887  TIP3      H2             18.0057537182       -8.5503751097        4.4062868953  W2        5592            0.0000000000
     14662      4888  TIP3      OH2            16.6475037182       -2.4704851097       10.1501168953  W2        5593            0.0000000000
     14663      4888  TIP3      H1             16.0002137182       -2.9323151097        9.6172368953  W2        5593            0.0000000000
     14664      4888  TIP3      H2             17.0019637182       -3.1421551097       10.7327368953  W2        5593            0.0000000000
     14665      4889  TIP3      OH2            17.5174237182       -4.3897851097       11.9547368953  W2        5594            0.0000000000
     14666      4889  TIP3      H1             17.1831037182       -5.2700551097       12.1267568953  W2        5594            0.0000000000
     14667      4889  TIP3      H2             17.7396637182       -4.0442851097       12.8192968953  W2        5594            0.0000000000
     14668      4890  TIP3      OH2            34.3808937182       -9.9668551097        8.0094068953  W2        5598            0.0000000000
     14669      4890  TIP3      H1             35.2310337182       -9.5457651097        8.1365668953  W2        5598            0.0000000000
     14670      4890  TIP3      H2             34.3864037182      -10.7068451097        8.6165468953  W2        5598            0.0000000000
     14671      4891  TIP3      OH2            34.7754537182      -11.9131151097        9.8329768953  W2        5599            0.0000000000
     14672      4891  TIP3      H1             34.0489137182      -12.3928551097       10.2307368953  W2        5599            0.0000000000
     14673      4891  TIP3      H2             35.3567837182      -11.7076451097       10.5651368953  W2        5599            0.0000000000
     14674      4892  TIP3      OH2            34.5345737182       -9.1283651097       14.7807368953  W2        5600            0.0000000000
     14675      4892  TIP3      H1             35.3679937182       -9.5063651097       14.5000968953  W2        5600            0.0000000000
     14676      4892  TIP3      H2             34.6466037182       -8.1852451097       14.6616468953  W2        5600            0.0000000000
     14677      4893  TIP3      OH2            35.0437637182      -12.0122651097        6.2241068953  W2        5602            0.0000000000
     14678      4893  TIP3      H1             34.5218737182      -11.6558551097        5.5051968953  W2        5602            0.0000000000
     14679      4893  TIP3      H2             35.0106837182      -11.3374851097        6.9021968953  W2        5602            0.0000000000
     14680      4894  TIP3      OH2            33.3926637182      -14.7727051097        4.7748168953  W2        5603            0.0000000000
     14681      4894  TIP3      H1             33.4891037182      -14.1060051097        4.0947868953  W2        5603            0.0000000000
     14682      4894  TIP3      H2             33.2526237182      -15.5880751097        4.2933668953  W2        5603            0.0000000000
     14683      4895  TIP3      OH2            32.5621337182      -13.3924651097       10.3958468953  W2        5604            0.0000000000
     14684      4895  TIP3      H1             32.4120137182      -14.3376051097       10.3756268953  W2        5604            0.0000000000
     14685      4895  TIP3      H2             32.2085837182      -13.1113251097       11.2397568953  W2        5604            0.0000000000
     14686      4896  TIP3      OH2            17.5973737182      -11.3142451097       14.4062268953  W2        5605            0.0000000000
     14687      4896  TIP3      H1             17.7816637182      -11.3960751097       13.4705168953  W2        5605            0.0000000000
     14688      4896  TIP3      H2             18.4466637182      -11.4385451097       14.8298668953  W2        5605            0.0000000000
     14689      4897  TIP3      OH2            32.6400437182      -17.3647251097        3.8923668953  W2        5608            0.0000000000
     14690      4897  TIP3      H1             33.2506237182      -17.7360451097        4.5291868953  W2        5608            0.0000000000
     14691      4897  TIP3      H2             31.8031937182      -17.7860351097        4.0883668953  W2        5608            0.0000000000
     14692      4898  TIP3      OH2            32.2726137182      -15.8098851097        8.8583568953  W2        5609            0.0000000000
     14693      4898  TIP3      H1             32.5523237182      -16.7168451097        8.9825268953  W2        5609            0.0000000000
     14694      4898  TIP3      H2             33.0317837182      -15.3757351097        8.4692768953  W2        5609            0.0000000000
     14695      4899  TIP3      OH2            32.8844437182      -15.2281451097       14.2942468953  W2        5610            0.0000000000
     14696      4899  TIP3      H1             33.8172437182      -15.0161551097       14.2598468953  W2        5610            0.0000000000
     14697      4899  TIP3      H2             32.6491937182      -15.1269351097       15.2165468953  W2        5610            0.0000000000
     14698      4900  TIP3      OH2            32.8860937182      -18.5469551097        8.9065568953  W2        5614            0.0000000000
     14699      4900  TIP3      H1             33.0685937182      -18.9958051097        9.7320568953  W2        5614            0.0000000000
     14700      4900  TIP3      H2             32.2863837182      -19.1315151097        8.4430168953  W2        5614            0.0000000000
     14701      4901  TIP3      OH2            18.4161037182      -17.7315851097       13.4383968953  W2        5615            0.0000000000
     14702      4901  TIP3      H1             18.8612637182      -18.5233351097       13.7403668953  W2        5615            0.0000000000
     14703      4901  TIP3      H2             18.8824037182      -17.0150651097       13.8689568953  W2        5615            0.0000000000
     14704      4902  TIP3      OH2            16.7201337182      -14.7322851097       14.5074168953  W2        5616            0.0000000000
     14705      4902  TIP3      H1             17.2121137182      -14.9532351097       13.7166168953  W2        5616            0.0000000000
     14706      4902  TIP3      H2             17.0822237182      -13.8919451097       14.7883668953  W2        5616            0.0000000000
     14707      4903  TIP3      OH2            34.7527137182      -18.4791451097        5.4345868953  W2        5618            0.0000000000
     14708      4903  TIP3      H1             35.1649737182      -19.2005751097        4.9593868953  W2        5618            0.0000000000
     14709      4903  TIP3      H2             35.4343637182      -17.8096851097        5.4930168953  W2        5618            0.0000000000
     14710      4904  TIP3      OH2            17.0337837182      -18.4743751097        8.5616568953  W2        5619            0.0000000000
     14711      4904  TIP3      H1             16.1086237182      -18.2657151097        8.4322068953  W2        5619            0.0000000000
     14712      4904  TIP3      H2             17.4877737182      -17.9902951097        7.8718868953  W2        5619            0.0000000000
     14713      4905  TIP3      OH2            31.8045037182       -3.4902051097       10.5073968953  W2        5620            0.0000000000
     14714      4905  TIP3      H1             32.4567937182       -3.8379951097        9.8993068953  W2        5620            0.0000000000
     14715      4905  TIP3      H2             32.3148837182       -3.0018851097       11.1533668953  W2        5620            0.0000000000
     14716      4906  TIP3      OH2            18.9600237182       -3.7073051097       14.2665968953  W2        5632            0.0000000000
     14717      4906  TIP3      H1             18.9416237182       -4.1327951097       15.1238268953  W2        5632            0.0000000000
     14718      4906  TIP3      H2             19.7648137182       -4.0258051097       13.8578168953  W2        5632            0.0000000000
     14719      4907  TIP3      OH2            21.1013337182       -4.9974351097       12.9215868953  W2        5633            0.0000000000
     14720      4907  TIP3      H1             20.8824037182       -5.9136951097       13.0911868953  W2        5633            0.0000000000
     14721      4907  TIP3      H2             21.9255537182       -4.8573951097       13.3877268953  W2        5633            0.0000000000
     14722      4908  TIP3      OH2            23.6385837182       -4.5275051097       13.7703868953  W2        5634            0.0000000000
     14723      4908  TIP3      H1             23.8511537182       -5.4156051097       13.4834768953  W2        5634            0.0000000000
     14724      4908  TIP3      H2             23.7030937182       -4.5617351097       14.7247868953  W2        5634            0.0000000000
     14725      4909  TIP3      OH2            27.1469537182      -18.8634451097       12.9147168953  W2        5635            0.0000000000
     14726      4909  TIP3      H1             26.4726337182      -19.4928851097       13.1702968953  W2        5635            0.0000000000
     14727      4909  TIP3      H2             27.7108737182      -19.3475551097       12.3115068953  W2        5635            0.0000000000
     14728      4910  TIP3      OH2            32.2896737182      -20.7560451097       13.0274268953  W2        5636            0.0000000000
     14729      4910  TIP3      H1             32.8934337182      -20.2085051097       12.5255268953  W2        5636            0.0000000000
     14730      4910  TIP3      H2             31.4198737182      -20.4370051097       12.7868368953  W2        5636            0.0000000000
     14731      4911  TIP3      OH2            34.0167137182      -19.6171751097       11.3605168953  W2        5637            0.0000000000
     14732      4911  TIP3      H1             34.6284637182      -20.1316051097       10.8338768953  W2        5637            0.0000000000
     14733      4911  TIP3      H2             34.3990537182      -18.7399651097       11.3839568953  W2        5637            0.0000000000
     14734      4912  TIP3      OH2            19.4737037182      -20.2294151097       10.7367068953  W2        5638            0.0000000000
     14735      4912  TIP3      H1             18.6966837182      -20.4639251097       10.2292968953  W2        5638            0.0000000000
     14736      4912  TIP3      H2             20.0040637182      -21.0262051097       10.7455068953  W2        5638            0.0000000000
     14737      4913  TIP3      OH2            18.3100437182      -20.4316051097        6.5403168953  W2        5639            0.0000000000
     14738      4913  TIP3      H1             18.7491137182      -19.8205551097        5.9486668953  W2        5639            0.0000000000
     14739      4913  TIP3      H2             17.6762837182      -19.8931951097        7.0143168953  W2        5639            0.0000000000
     14740      4914  TIP3      OH2            24.0529637182      -20.3027051097       10.5500168953  W2        5640            0.0000000000
     14741      4914  TIP3      H1             24.9273037182      -19.9142751097       10.5204468953  W2        5640            0.0000000000
     14742      4914  TIP3      H2             23.9170437182      -20.5179251097       11.4727368953  W2        5640            0.0000000000
     14743      4915  TIP3      OH2            29.6098037182      -20.2727251097       12.1991868953  W2        5641            0.0000000000
     14744      4915  TIP3      H1             29.6859637182      -20.1775651097       11.2497868953  W2        5641            0.0000000000
     14745      4915  TIP3      H2             29.3347237182      -21.1804351097       12.3280968953  W2        5641            0.0000000000
     14746      4916  TIP3      OH2            30.9630637182      -20.2469451097        7.8916868953  W2        5642            0.0000000000
     14747      4916  TIP3      H1             30.2601737182      -19.6320251097        7.6818268953  W2        5642            0.0000000000
     14748      4916  TIP3      H2             30.5182037182      -21.0842751097        8.0227768953  W2        5642            0.0000000000
     14749      4917  TIP3      OH2            18.2109937182       -4.4833851097        7.4378268953  W2        5643            0.0000000000
     14750      4917  TIP3      H1             17.5259837182       -4.5214951097        6.7703368953  W2        5643            0.0000000000
     14751      4917  TIP3      H2             18.2147137182       -3.5706251097        7.7260368953  W2        5643            0.0000000000
     14752      4918  TIP3      OH2            20.1709537182      -18.5154551097        4.9827268953  W2        5644            0.0000000000
     14753      4918  TIP3      H1             20.6622937182      -19.1452151097        4.4552768953  W2        5644            0.0000000000
     14754      4918  TIP3      H2             20.7945837182      -18.2195151097        5.6458468953  W2        5644            0.0000000000
     14755      4919  TIP3      OH2            25.1969637182      -18.2223051097        7.4397768953  W2        5645            0.0000000000
     14756      4919  TIP3      H1             25.3750937182      -18.8689851097        8.1226368953  W2        5645            0.0000000000
     14757      4919  TIP3      H2             25.1435837182      -17.3885351097        7.9068868953  W2        5645            0.0000000000
     14758      4920  TIP3      OH2            27.0753437182       -3.2738951097        5.8354468953  W2        5646            0.0000000000
     14759      4920  TIP3      H1             27.9413637182       -2.9071551097        5.6572668953  W2        5646            0.0000000000
     14760      4920  TIP3      H2             26.8286237182       -3.7130951097        5.0215268953  W2        5646            0.0000000000
     14761      4921  TIP3      OH2            33.7843037182       -3.7108651097        8.5145568953  W2        5647            0.0000000000
     14762      4921  TIP3      H1             33.5900137182       -4.4586551097        7.9495168953  W2        5647            0.0000000000
     14763      4921  TIP3      H2             33.7453137182       -2.9528551097        7.9313468953  W2        5647            0.0000000000
     14764      4922  TIP3      OH2            20.0291137182       -3.5633051097        4.4630368953  W2        5650            0.0000000000
     14765      4922  TIP3      H1             19.7615737182       -3.2770151097        5.3363468953  W2        5650            0.0000000000
     14766      4922  TIP3      H2             20.8003737182       -4.1093851097        4.6152868953  W2        5650            0.0000000000
     14767      4923  TIP3      OH2            39.6329037182       -7.7540151097       14.2421768953  W2        5654            0.0000000000
     14768      4923  TIP3      H1             39.2634237182       -8.5559651097       13.8726068953  W2        5654            0.0000000000
     14769      4923  TIP3      H2             40.5740137182       -7.9225251097       14.2885168953  W2        5654            0.0000000000
     14770      4924  TIP3      OH2            36.2429537182      -14.0937551097        9.6350568953  W2        5655            0.0000000000
     14771      4924  TIP3      H1             35.7952937182      -13.2478851097        9.6167068953  W2        5655            0.0000000000
     14772      4924  TIP3      H2             35.6820737182      -14.6733351097        9.1195668953  W2        5655            0.0000000000
     14773      4925  TIP3      OH2            36.9535637182      -11.9317951097       11.7608568953  W2        5656            0.0000000000
     14774      4925  TIP3      H1             37.1669137182      -12.7016351097       12.2881568953  W2        5656            0.0000000000
     14775      4925  TIP3      H2             37.6913237182      -11.8421251097       11.1576168953  W2        5656            0.0000000000
     14776      4926  TIP3      OH2            37.6462137182      -14.4935151097       12.8824768953  W2        5657            0.0000000000
     14777      4926  TIP3      H1             38.2998737182      -15.0433451097       13.3144868953  W2        5657            0.0000000000
     14778      4926  TIP3      H2             37.6701437182      -14.7676151097       11.9656768953  W2        5657            0.0000000000
     14779      4927  TIP3      OH2            39.4299837182      -16.0800751097       14.1466368953  W2        5658            0.0000000000
     14780      4927  TIP3      H1             40.0436137182      -15.4473151097       14.5198768953  W2        5658            0.0000000000
     14781      4927  TIP3      H2             39.9420537182      -16.5525751097       13.4903268953  W2        5658            0.0000000000
     14782      4928  TIP3      OH2            36.9339137182       -8.6615951097        8.0508668953  W2        5659            0.0000000000
     14783      4928  TIP3      H1             36.6620037182       -8.4324951097        7.1621568953  W2        5659            0.0000000000
     14784      4928  TIP3      H2             36.9794837182       -7.8237151097        8.5113968953  W2        5659            0.0000000000
     14785      4929  TIP3      OH2            36.0139037182       -6.7765051097       14.2698568953  W2        5662            0.0000000000
     14786      4929  TIP3      H1             36.9599637182       -6.9208051097       14.2508068953  W2        5662            0.0000000000
     14787      4929  TIP3      H2             35.9015337182       -5.9922251097       14.8069768953  W2        5662            0.0000000000
     14788      4930  TIP3      OH2            39.2581137182       -3.9755451097       10.4153268953  W2        5663            0.0000000000
     14789      4930  TIP3      H1             39.4101537182       -4.3235051097       11.2939768953  W2        5663            0.0000000000
     14790      4930  TIP3      H2             38.4071537182       -4.3318151097       10.1600468953  W2        5663            0.0000000000
     14791      4931  TIP3      OH2            35.5806237182      -17.3613151097       11.2372268953  W2        5666            0.0000000000
     14792      4931  TIP3      H1             36.2113937182      -17.3901051097       11.9566168953  W2        5666            0.0000000000
     14793      4931  TIP3      H2             36.0300537182      -17.7864451097       10.5068168953  W2        5666            0.0000000000
     14794      4932  TIP3      OH2            36.8548337182      -16.6151151097        6.6612668953  W2        5667            0.0000000000
     14795      4932  TIP3      H1             37.3290037182      -16.0241251097        6.0763568953  W2        5667            0.0000000000
     14796      4932  TIP3      H2             36.1374737182      -16.0848251097        7.0082768953  W2        5667            0.0000000000
     14797      4933  TIP3      OH2            38.6292737182      -15.5204551097       10.3447268953  W2        5668            0.0000000000
     14798      4933  TIP3      H1             37.7400737182      -15.4209051097       10.0046868953  W2        5668            0.0000000000
     14799      4933  TIP3      H2             38.9257637182      -16.3621551097        9.9985168953  W2        5668            0.0000000000
     14800      4934  TIP3      OH2            39.4165837182      -10.4654051097       13.2733968953  W2        5670            0.0000000000
     14801      4934  TIP3      H1             40.1613037182      -10.4678351097       12.6720468953  W2        5670            0.0000000000
     14802      4934  TIP3      H2             39.4942437182      -11.2890251097       13.7549068953  W2        5670            0.0000000000
     14803      4935  TIP3      OH2            37.5462937182      -12.0851751097        5.2647868953  W2        5672            0.0000000000
     14804      4935  TIP3      H1             38.1622837182      -11.4584551097        5.6442668953  W2        5672            0.0000000000
     14805      4935  TIP3      H2             36.6845537182      -11.7691951097        5.5364368953  W2        5672            0.0000000000
     14806      4936  TIP3      OH2            38.9613337182      -10.1727951097        6.7573468953  W2        5675            0.0000000000
     14807      4936  TIP3      H1             38.2752637182       -9.8205451097        7.3243168953  W2        5675            0.0000000000
     14808      4936  TIP3      H2             39.4841237182       -9.4098351097        6.5107768953  W2        5675            0.0000000000
     14809      4937  TIP3      OH2            39.5772237182       -7.5589051097        5.6541268953  W2        5676            0.0000000000
     14810      4937  TIP3      H1             40.1693737182       -6.8594251097        5.9303668953  W2        5676            0.0000000000
     14811      4937  TIP3      H2             40.0365237182       -7.9919551097        4.9345868953  W2        5676            0.0000000000
     14812      4938  TIP3      OH2            37.8931437182      -14.8946051097        4.7700668953  W2        5677            0.0000000000
     14813      4938  TIP3      H1             37.8484037182      -13.9552951097        4.9487668953  W2        5677            0.0000000000
     14814      4938  TIP3      H2             37.0054637182      -15.1301151097        4.5002768953  W2        5677            0.0000000000
     14815      4939  TIP3      OH2            38.7013437182      -20.1129451097       13.4431668953  W2        5678            0.0000000000
     14816      4939  TIP3      H1             38.4723237182      -20.0536951097       12.5156668953  W2        5678            0.0000000000
     14817      4939  TIP3      H2             38.2586837182      -20.9043951097       13.7495768953  W2        5678            0.0000000000
     14818      4940  TIP3      OH2            37.6316737182       -6.1722351097        9.6037468953  W2        5679            0.0000000000
     14819      4940  TIP3      H1             36.7995337182       -5.6999651097        9.6308868953  W2        5679            0.0000000000
     14820      4940  TIP3      H2             38.1775037182       -5.6624751097        9.0050568953  W2        5679            0.0000000000
     14821      4941  TIP3      OH2            36.8544437182       -7.8633351097        5.0727268953  W2        5684            0.0000000000
     14822      4941  TIP3      H1             37.7683637182       -7.7844451097        5.3461168953  W2        5684            0.0000000000
     14823      4941  TIP3      H2             36.8617537182       -8.5503751097        4.4062868953  W2        5684            0.0000000000
     14824      4942  TIP3      OH2            35.5035037182       -2.4704851097       10.1501168953  W2        5685            0.0000000000
     14825      4942  TIP3      H1             34.8562137182       -2.9323151097        9.6172368953  W2        5685            0.0000000000
     14826      4942  TIP3      H2             35.8579637182       -3.1421551097       10.7327368953  W2        5685            0.0000000000
     14827      4943  TIP3      OH2            36.3734237182       -4.3897851097       11.9547368953  W2        5686            0.0000000000
     14828      4943  TIP3      H1             36.0391037182       -5.2700551097       12.1267568953  W2        5686            0.0000000000
     14829      4943  TIP3      H2             36.5956637182       -4.0442851097       12.8192968953  W2        5686            0.0000000000
     14830      4944  TIP3      OH2            36.4533737182      -11.3142451097       14.4062268953  W2        5687            0.0000000000
     14831      4944  TIP3      H1             36.6376637182      -11.3960751097       13.4705168953  W2        5687            0.0000000000
     14832      4944  TIP3      H2             37.3026637182      -11.4385451097       14.8298668953  W2        5687            0.0000000000
     14833      4945  TIP3      OH2            37.2721037182      -17.7315851097       13.4383968953  W2        5689            0.0000000000
     14834      4945  TIP3      H1             37.7172637182      -18.5233351097       13.7403668953  W2        5689            0.0000000000
     14835      4945  TIP3      H2             37.7384037182      -17.0150651097       13.8689568953  W2        5689            0.0000000000
     14836      4946  TIP3      OH2            35.5761337182      -14.7322851097       14.5074168953  W2        5690            0.0000000000
     14837      4946  TIP3      H1             36.0681137182      -14.9532351097       13.7166168953  W2        5690            0.0000000000
     14838      4946  TIP3      H2             35.9382237182      -13.8919451097       14.7883668953  W2        5690            0.0000000000
     14839      4947  TIP3      OH2            35.8897837182      -18.4743751097        8.5616568953  W2        5691            0.0000000000
     14840      4947  TIP3      H1             34.9646237182      -18.2657151097        8.4322068953  W2        5691            0.0000000000
     14841      4947  TIP3      H2             36.3437737182      -17.9902951097        7.8718868953  W2        5691            0.0000000000
     14842      4948  TIP3      OH2            37.8160237182       -3.7073051097       14.2665968953  W2        5695            0.0000000000
     14843      4948  TIP3      H1             37.7976237182       -4.1327951097       15.1238268953  W2        5695            0.0000000000
     14844      4948  TIP3      H2             38.6208137182       -4.0258051097       13.8578168953  W2        5695            0.0000000000
     14845      4949  TIP3      OH2            38.3297037182      -20.2294151097       10.7367068953  W2        5696            0.0000000000
     14846      4949  TIP3      H1             37.5526837182      -20.4639251097       10.2292968953  W2        5696            0.0000000000
     14847      4949  TIP3      H2             38.8600637182      -21.0262051097       10.7455068953  W2        5696            0.0000000000
     14848      4950  TIP3      OH2            37.1660437182      -20.4316051097        6.5403168953  W2        5697            0.0000000000
     14849      4950  TIP3      H1             37.6051137182      -19.8205551097        5.9486668953  W2        5697            0.0000000000
     14850      4950  TIP3      H2             36.5322837182      -19.8931951097        7.0143168953  W2        5697            0.0000000000
     14851      4951  TIP3      OH2            37.0669937182       -4.4833851097        7.4378268953  W2        5698            0.0000000000
     14852      4951  TIP3      H1             36.3819837182       -4.5214951097        6.7703368953  W2        5698            0.0000000000
     14853      4951  TIP3      H2             37.0707137182       -3.5706251097        7.7260368953  W2        5698            0.0000000000
     14854      4952  TIP3      OH2            39.0269537182      -18.5154551097        4.9827268953  W2        5699            0.0000000000
     14855      4952  TIP3      H1             39.5182937182      -19.1452151097        4.4552768953  W2        5699            0.0000000000
     14856      4952  TIP3      H2             39.6505837182      -18.2195151097        5.6458468953  W2        5699            0.0000000000
     14857      4953  TIP3      OH2            38.8851137182       -3.5633051097        4.4630368953  W2        5701            0.0000000000
     14858      4953  TIP3      H1             38.6175737182       -3.2770151097        5.3363468953  W2        5701            0.0000000000
     14859      4953  TIP3      H2             39.6563737182       -4.1093851097        4.6152868953  W2        5701            0.0000000000
     14860      4954  TIP3      OH2           -28.0160362818        7.7828148903       10.6954568953  W2        5702            0.0000000000
     14861      4954  TIP3      H1            -27.9269262818        8.7266348903       10.5631668953  W2        5702            0.0000000000
     14862      4954  TIP3      H2            -28.6542762818        7.5074548903       10.0373968953  W2        5702            0.0000000000
     14863      4955  TIP3      OH2           -29.0829062818        7.0378848903       14.1142768953  W2        5703            0.0000000000
     14864      4955  TIP3      H1            -29.1211562818        6.3915148903       14.8192368953  W2        5703            0.0000000000
     14865      4955  TIP3      H2            -29.4052562818        6.5713248903       13.3431468953  W2        5703            0.0000000000
     14866      4956  TIP3      OH2           -25.3768862818        9.9769248903       12.4157868953  W2        5705            0.0000000000
     14867      4956  TIP3      H1            -25.8176162818        9.2565248903       12.8663468953  W2        5705            0.0000000000
     14868      4956  TIP3      H2            -25.3899162818       10.6976448903       13.0455568953  W2        5705            0.0000000000
     14869      4957  TIP3      OH2           -35.7910962818       11.1019848903       14.2421768953  W2        5706            0.0000000000
     14870      4957  TIP3      H1            -36.1605762818       10.3000348903       13.8726068953  W2        5706            0.0000000000
     14871      4957  TIP3      H2            -34.8499862818       10.9334748903       14.2885168953  W2        5706            0.0000000000
     14872      4958  TIP3      OH2           -39.1810462818        4.7622448903        9.6350568953  W2        5707            0.0000000000
     14873      4958  TIP3      H1            -39.6287062818        5.6081148903        9.6167068953  W2        5707            0.0000000000
     14874      4958  TIP3      H2            -39.7419262818        4.1826648903        9.1195668953  W2        5707            0.0000000000
     14875      4959  TIP3      OH2           -38.4704362818        6.9242048903       11.7608568953  W2        5708            0.0000000000
     14876      4959  TIP3      H1            -38.2570862818        6.1543648903       12.2881568953  W2        5708            0.0000000000
     14877      4959  TIP3      H2            -37.7326762818        7.0138748903       11.1576168953  W2        5708            0.0000000000
     14878      4960  TIP3      OH2           -28.2653362818       15.0810948903       12.6278268953  W2        5709            0.0000000000
     14879      4960  TIP3      H1            -27.6456962818       14.4045648903       12.3547468953  W2        5709            0.0000000000
     14880      4960  TIP3      H2            -28.4735962818       14.8631748903       13.5363168953  W2        5709            0.0000000000
     14881      4961  TIP3      OH2           -30.6934662818        9.4700248903       14.5203768953  W2        5710            0.0000000000
     14882      4961  TIP3      H1            -30.3896762818        8.7841648903       13.9257868953  W2        5710            0.0000000000
     14883      4961  TIP3      H2            -29.9720662818        9.5888948903       15.1381768953  W2        5710            0.0000000000
     14884      4962  TIP3      OH2           -27.5527662818        3.8642648903       14.8478568953  W2        5712            0.0000000000
     14885      4962  TIP3      H1            -27.4101762818        2.9179648903       14.8680168953  W2        5712            0.0000000000
     14886      4962  TIP3      H2            -27.6588662818        4.0712448903       13.9193468953  W2        5712            0.0000000000
     14887      4963  TIP3      OH2           -34.3979362818        1.9659048903       12.1203368953  W2        5713            0.0000000000
     14888      4963  TIP3      H1            -34.3548262818        2.8257548903       11.7019668953  W2        5713            0.0000000000
     14889      4963  TIP3      H2            -34.8555262818        1.4133748903       11.4866568953  W2        5713            0.0000000000
     14890      4964  TIP3      OH2           -26.6756662818        2.0964648903       10.5211668953  W2        5714            0.0000000000
     14891      4964  TIP3      H1            -26.0292362818        1.7677848903       11.1459268953  W2        5714            0.0000000000
     14892      4964  TIP3      H2            -26.1657262818        2.6143648903        9.8983068953  W2        5714            0.0000000000
     14893      4965  TIP3      OH2           -37.7777862818        4.3624848903       12.8824768953  W2        5715            0.0000000000
     14894      4965  TIP3      H1            -37.1241262818        3.8126548903       13.3144868953  W2        5715            0.0000000000
     14895      4965  TIP3      H2            -37.7538562818        4.0883848903       11.9656768953  W2        5715            0.0000000000
     14896      4966  TIP3      OH2           -32.6213362818        5.9126148903       12.0976268953  W2        5716            0.0000000000
     14897      4966  TIP3      H1            -32.0052362818        5.3861548903       12.6070268953  W2        5716            0.0000000000
     14898      4966  TIP3      H2            -33.2074562818        5.2724848903       11.6939868953  W2        5716            0.0000000000
     14899      4967  TIP3      OH2           -28.2187662818       10.3838548903        9.7383268953  W2        5719            0.0000000000
     14900      4967  TIP3      H1            -28.5142562818       10.0610848903        8.8870168953  W2        5719            0.0000000000
     14901      4967  TIP3      H2            -28.5429862818       11.2835248903        9.7795868953  W2        5719            0.0000000000
     14902      4968  TIP3      OH2           -24.9118262818        1.3873948903       12.5017568953  W2        5721            0.0000000000
     14903      4968  TIP3      H1            -25.1270262818        0.6217348903       13.0343568953  W2        5721            0.0000000000
     14904      4968  TIP3      H2            -24.2560862818        1.8598548903       13.0146068953  W2        5721            0.0000000000
     14905      4969  TIP3      OH2           -35.9940162818        2.7759248903       14.1466368953  W2        5722            0.0000000000
     14906      4969  TIP3      H1            -35.3803862818        3.4086848903       14.5198768953  W2        5722            0.0000000000
     14907      4969  TIP3      H2            -35.4819462818        2.3034248903       13.4903268953  W2        5722            0.0000000000
     14908      4970  TIP3      OH2           -38.4900862818       10.1944048903        8.0508668953  W2        5724            0.0000000000
     14909      4970  TIP3      H1            -38.7619962818       10.4235048903        7.1621568953  W2        5724            0.0000000000
     14910      4970  TIP3      H2            -38.4445162818       11.0322848903        8.5113968953  W2        5724            0.0000000000
     14911      4971  TIP3      OH2           -24.8651162818       11.8159948903       14.7637168953  W2        5725            0.0000000000
     14912      4971  TIP3      H1            -25.8067462818       11.8743848903       14.9254068953  W2        5725            0.0000000000
     14913      4971  TIP3      H2            -24.5885062818       12.7220448903       14.6266868953  W2        5725            0.0000000000
     14914      4972  TIP3      OH2           -31.5612762818       -1.8107451097       13.6469068953  W2        5727            0.0000000000
     14915      4972  TIP3      H1            -31.6788562818       -2.7591451097       13.5927368953  W2        5727            0.0000000000
     14916      4972  TIP3      H2            -32.4162662818       -1.4781351097       13.9200168953  W2        5727            0.0000000000
     14917      4973  TIP3      OH2           -26.6129962818       13.5973448903       11.3888768953  W2        5728            0.0000000000
     14918      4973  TIP3      H1            -26.1877662818       12.8901348903       10.9038368953  W2        5728            0.0000000000
     14919      4973  TIP3      H2            -26.2959962818       14.3986148903       10.9720968953  W2        5728            0.0000000000
     14920      4974  TIP3      OH2           -25.4533462818       11.4981948903        9.8975368953  W2        5729            0.0000000000
     14921      4974  TIP3      H1            -25.7108662818       10.8082048903        9.2861268953  W2        5729            0.0000000000
     14922      4974  TIP3      H2            -25.3822662818       11.0553148903       10.7431268953  W2        5729            0.0000000000
     14923      4975  TIP3      OH2           -29.2947862818        7.0268148903        8.1474868953  W2        5731            0.0000000000
     14924      4975  TIP3      H1            -30.0062362818        7.5617848903        7.7955368953  W2        5731            0.0000000000
     14925      4975  TIP3      H2            -28.6038262818        7.0820248903        7.4873768953  W2        5731            0.0000000000
     14926      4976  TIP3      OH2           -29.2408662818        5.4842448903        5.1859868953  W2        5732            0.0000000000
     14927      4976  TIP3      H1            -28.5398762818        5.5069348903        5.8373868953  W2        5732            0.0000000000
     14928      4976  TIP3      H2            -28.9385762818        4.8562148903        4.5299168953  W2        5732            0.0000000000
     14929      4977  TIP3      OH2           -25.8890162818        7.2361448903        9.0990768953  W2        5734            0.0000000000
     14930      4977  TIP3      H1            -26.6209162818        7.4645148903        9.6721368953  W2        5734            0.0000000000
     14931      4977  TIP3      H2            -25.4417962818        6.5224148903        9.5538268953  W2        5734            0.0000000000
     14932      4978  TIP3      OH2           -34.2436462818        7.8667648903       10.9815768953  W2        5736            0.0000000000
     14933      4978  TIP3      H1            -34.5741262818        7.4961048903       10.1632768953  W2        5736            0.0000000000
     14934      4978  TIP3      H2            -33.6552362818        7.1961648903       11.3284068953  W2        5736            0.0000000000
     14935      4979  TIP3      OH2           -32.8768962818       11.2948248903       13.6627968953  W2        5737            0.0000000000
     14936      4979  TIP3      H1            -32.9717662818       10.7161348903       12.9062568953  W2        5737            0.0000000000
     14937      4979  TIP3      H2            -32.1475362818       10.9233948903       14.1590768953  W2        5737            0.0000000000
     14938      4980  TIP3      OH2           -33.8770962818        6.6353248903       14.6150768953  W2        5738            0.0000000000
     14939      4980  TIP3      H1            -33.3118462818        6.7567448903       13.8521968953  W2        5738            0.0000000000
     14940      4980  TIP3      H2            -33.5582062818        7.2728248903       15.2539268953  W2        5738            0.0000000000
     14941      4981  TIP3      OH2           -27.0180662818        6.3984348903        6.7841968953  W2        5741            0.0000000000
     14942      4981  TIP3      H1            -26.4385162818        6.5484648903        7.5310868953  W2        5741            0.0000000000
     14943      4981  TIP3      H2            -26.6040662818        6.8691748903        6.0608368953  W2        5741            0.0000000000
     14944      4982  TIP3      OH2           -29.2915762818       13.1352848903       10.2195068953  W2        5743            0.0000000000
     14945      4982  TIP3      H1            -28.8178162818       13.4309148903       10.9969268953  W2        5743            0.0000000000
     14946      4982  TIP3      H2            -29.8546462818       13.8734448903        9.9864668953  W2        5743            0.0000000000
     14947      4983  TIP3      OH2           -23.3192262818       -1.8515251097        6.5971668953  W2        5745            0.0000000000
     14948      4983  TIP3      H1            -24.2191562818       -1.7126251097        6.8922268953  W2        5745            0.0000000000
     14949      4983  TIP3      H2            -23.0673862818       -1.0200651097        6.1953368953  W2        5745            0.0000000000
     14950      4984  TIP3      OH2           -35.2533762818        6.9361948903        8.5708568953  W2        5746            0.0000000000
     14951      4984  TIP3      H1            -35.5452462818        7.7043648903        8.0799868953  W2        5746            0.0000000000
     14952      4984  TIP3      H2            -35.9278562818        6.2768148903        8.4079968953  W2        5746            0.0000000000
     14953      4985  TIP3      OH2           -22.1300862818       12.5147148903        4.9735568953  W2        5747            0.0000000000
     14954      4985  TIP3      H1            -22.0567362818       13.4537348903        5.1440868953  W2        5747            0.0000000000
     14955      4985  TIP3      H2            -21.2245762818       12.2095748903        4.9172868953  W2        5747            0.0000000000
     14956      4986  TIP3      OH2           -39.4100962818       12.0794948903       14.2698568953  W2        5749            0.0000000000
     14957      4986  TIP3      H1            -38.4640362818       11.9351948903       14.2508068953  W2        5749            0.0000000000
     14958      4986  TIP3      H2            -39.5224662818       12.8637748903       14.8069768953  W2        5749            0.0000000000
     14959      4987  TIP3      OH2           -29.8192662818       16.0917548903        8.6344268953  W2        5752            0.0000000000
     14960      4987  TIP3      H1            -29.8946662818       15.9704748903        7.6879468953  W2        5752            0.0000000000
     14961      4987  TIP3      H2            -29.7863962818       17.0410248903        8.7528868953  W2        5752            0.0000000000
     14962      4988  TIP3      OH2           -36.1658862818       14.8804548903       10.4153268953  W2        5753            0.0000000000
     14963      4988  TIP3      H1            -36.0138462818       14.5324948903       11.2939768953  W2        5753            0.0000000000
     14964      4988  TIP3      H2            -37.0168462818       14.5241848903       10.1600468953  W2        5753            0.0000000000
     14965      4989  TIP3      OH2           -26.7176662818       15.2457748903        5.6366668953  W2        5754            0.0000000000
     14966      4989  TIP3      H1            -26.3428262818       14.5013848903        5.1659268953  W2        5754            0.0000000000
     14967      4989  TIP3      H2            -26.7132962818       14.9758348903        6.5549968953  W2        5754            0.0000000000
     14968      4990  TIP3      OH2           -27.0488562818       15.1714848903        8.3858868953  W2        5755            0.0000000000
     14969      4990  TIP3      H1            -27.9838762818       15.2716748903        8.5645868953  W2        5755            0.0000000000
     14970      4990  TIP3      H2            -26.7686662818       14.4620848903        8.9642068953  W2        5755            0.0000000000
     14971      4991  TIP3      OH2           -34.2925162818       -0.9072951097       14.4245368953  W2        5758            0.0000000000
     14972      4991  TIP3      H1            -35.1541462818       -0.9944751097       14.0168268953  W2        5758            0.0000000000
     14973      4991  TIP3      H2            -34.3149462818       -0.0512851097       14.8522968953  W2        5758            0.0000000000
     14974      4992  TIP3      OH2           -25.5407562818        7.4312648903        4.4139868953  W2        5761            0.0000000000
     14975      4992  TIP3      H1            -25.4986762818        7.2086548903        3.4839868953  W2        5761            0.0000000000
     14976      4992  TIP3      H2            -24.6915462818        7.8299748903        4.6039768953  W2        5761            0.0000000000
     14977      4993  TIP3      OH2           -29.9680062818        1.3070848903        5.0843168953  W2        5762            0.0000000000
     14978      4993  TIP3      H1            -30.2215262818        1.3262448903        6.0071268953  W2        5762            0.0000000000
     14979      4993  TIP3      H2            -30.2247962818        0.4356248903        4.7829368953  W2        5762            0.0000000000
     14980      4994  TIP3      OH2           -34.2045962818        4.2791648903       10.4315568953  W2        5764            0.0000000000
     14981      4994  TIP3      H1            -35.0973062818        3.9387748903       10.3729368953  W2        5764            0.0000000000
     14982      4994  TIP3      H2            -33.7539362818        3.9022548903        9.6758768953  W2        5764            0.0000000000
     14983      4995  TIP3      OH2           -28.6690462818        4.6951948903        9.2486368953  W2        5765            0.0000000000
     14984      4995  TIP3      H1            -29.0780162818        5.5100548903        8.9571168953  W2        5765            0.0000000000
     14985      4995  TIP3      H2            -27.9484262818        4.5552048903        8.6343468953  W2        5765            0.0000000000
     14986      4996  TIP3      OH2           -27.6642762818        4.1412348903       12.0626068953  W2        5767            0.0000000000
     14987      4996  TIP3      H1            -27.8598262818        4.7469148903       11.3476668953  W2        5767            0.0000000000
     14988      4996  TIP3      H2            -27.4830162818        3.3077548903       11.6282368953  W2        5767            0.0000000000
     14989      4997  TIP3      OH2           -33.0857162818        1.7527348903        4.1853568953  W2        5769            0.0000000000
     14990      4997  TIP3      H1            -33.5166462818        1.3077448903        4.9150968953  W2        5769            0.0000000000
     14991      4997  TIP3      H2            -33.8038462818        2.1243648903        3.6731068953  W2        5769            0.0000000000
     14992      4998  TIP3      OH2           -39.8433762818        1.4946848903       11.2372268953  W2        5770            0.0000000000
     14993      4998  TIP3      H1            -39.2126062818        1.4658948903       11.9566168953  W2        5770            0.0000000000
     14994      4998  TIP3      H2            -39.3939462818        1.0695548903       10.5068168953  W2        5770            0.0000000000
     14995      4999  TIP3      OH2           -38.5691662818        2.2408848903        6.6612668953  W2        5771            0.0000000000
     14996      4999  TIP3      H1            -38.0949962818        2.8318748903        6.0763568953  W2        5771            0.0000000000
     14997      4999  TIP3      H2            -39.2865262818        2.7711748903        7.0082768953  W2        5771            0.0000000000
     14998      5000  TIP3      OH2           -31.6230662818        1.7069148903       11.5179668953  W2        5773            0.0000000000
     14999      5000  TIP3      H1            -32.5339562818        1.7635948903       11.8065668953  W2        5773            0.0000000000
     15000      5000  TIP3      H2            -31.1177762818        1.6464648903       12.3286868953  W2        5773            0.0000000000
     15001      5001  TIP3      OH2           -36.7947262818        3.3355448903       10.3447268953  W2        5774            0.0000000000
     15002      5001  TIP3      H1            -37.6839262818        3.4350948903       10.0046868953  W2        5774            0.0000000000
     15003      5001  TIP3      H2            -36.4982362818        2.4938448903        9.9985168953  W2        5774            0.0000000000
     15004      5002  TIP3      OH2           -33.1415462818        3.3358048903        8.0011868953  W2        5775            0.0000000000
     15005      5002  TIP3      H1            -32.2099962818        3.4648048903        8.1794968953  W2        5775            0.0000000000
     15006      5002  TIP3      H2            -33.3565162818        4.0052348903        7.3516568953  W2        5775            0.0000000000
     15007      5003  TIP3      OH2           -27.2178762818        0.9415448903       14.7821468953  W2        5776            0.0000000000
     15008      5003  TIP3      H1            -27.8947162818        1.0728548903       15.4461168953  W2        5776            0.0000000000
     15009      5003  TIP3      H2            -27.7033862818        0.7864948903       13.9719168953  W2        5776            0.0000000000
     15010      5004  TIP3      OH2           -34.4675262818        4.5300248903        5.5677968953  W2        5777            0.0000000000
     15011      5004  TIP3      H1            -35.0100162818        4.1504048903        4.8765568953  W2        5777            0.0000000000
     15012      5004  TIP3      H2            -33.6340362818        4.7244948903        5.1392068953  W2        5777            0.0000000000
     15013      5005  TIP3      OH2           -30.3030962818        4.4942148903       13.4049268953  W2        5780            0.0000000000
     15014      5005  TIP3      H1            -29.7387562818        3.9478748903       12.8578868953  W2        5780            0.0000000000
     15015      5005  TIP3      H2            -30.4507562818        3.9724048903       14.1936868953  W2        5780            0.0000000000
     15016      5006  TIP3      OH2           -35.3011262818        0.6308248903        9.8234068953  W2        5781            0.0000000000
     15017      5006  TIP3      H1            -35.6181762818       -0.2716451097        9.7879468953  W2        5781            0.0000000000
     15018      5006  TIP3      H2            -34.5197162818        0.6325648903        9.2705668953  W2        5781            0.0000000000
     15019      5007  TIP3      OH2           -31.1322462818        9.0955948903        7.5036068953  W2        5783            0.0000000000
     15020      5007  TIP3      H1            -31.8771462818        8.5881248903        7.1813968953  W2        5783            0.0000000000
     15021      5007  TIP3      H2            -31.2665262818        9.1443948903        8.4500868953  W2        5783            0.0000000000
     15022      5008  TIP3      OH2           -27.2345662818        1.9095848903        5.7028668953  W2        5785            0.0000000000
     15023      5008  TIP3      H1            -28.1731462818        2.0211448903        5.5517468953  W2        5785            0.0000000000
     15024      5008  TIP3      H2            -26.9373562818        2.7662748903        6.0094368953  W2        5785            0.0000000000
     15025      5009  TIP3      OH2           -26.5162162818        3.7768548903        7.3636068953  W2        5787            0.0000000000
     15026      5009  TIP3      H1            -25.6243162818        3.6393548903        7.6827268953  W2        5787            0.0000000000
     15027      5009  TIP3      H2            -26.4598562818        4.5674648903        6.8269568953  W2        5787            0.0000000000
     15028      5010  TIP3      OH2           -36.0074162818        8.3905948903       13.2733968953  W2        5788            0.0000000000
     15029      5010  TIP3      H1            -35.2626962818        8.3881648903       12.6720468953  W2        5788            0.0000000000
     15030      5010  TIP3      H2            -35.9297562818        7.5669748903       13.7549068953  W2        5788            0.0000000000
     15031      5011  TIP3      OH2           -29.0068362818       10.5540248903        6.5290668953  W2        5789            0.0000000000
     15032      5011  TIP3      H1            -29.3019962818       11.3808148903        6.9105468953  W2        5789            0.0000000000
     15033      5011  TIP3      H2            -29.7098362818        9.9347148903        6.7252068953  W2        5789            0.0000000000
     15034      5012  TIP3      OH2           -21.6313462818        3.9862648903        7.0582768953  W2        5793            0.0000000000
     15035      5012  TIP3      H1            -22.1857162818        3.5900648903        6.3860268953  W2        5793            0.0000000000
     15036      5012  TIP3      H2            -21.5309862818        4.8967848903        6.7806068953  W2        5793            0.0000000000
     15037      5013  TIP3      OH2           -23.3361762818       12.7723048903        7.5234868953  W2        5795            0.0000000000
     15038      5013  TIP3      H1            -23.7090662818       11.9466848903        7.8325468953  W2        5795            0.0000000000
     15039      5013  TIP3      H2            -23.0588262818       12.5892448903        6.6258268953  W2        5795            0.0000000000
     15040      5014  TIP3      OH2           -26.1757862818        7.5802548903       14.5446768953  W2        5796            0.0000000000
     15041      5014  TIP3      H1            -27.1040962818        7.3484448903       14.5176068953  W2        5796            0.0000000000
     15042      5014  TIP3      H2            -25.7246762818        6.8032348903       14.2145568953  W2        5796            0.0000000000
     15043      5015  TIP3      OH2           -33.6324762818       11.9084148903       10.6775468953  W2        5797            0.0000000000
     15044      5015  TIP3      H1            -33.1052562818       12.6818548903       10.4774268953  W2        5797            0.0000000000
     15045      5015  TIP3      H2            -34.5126262818       12.1333348903       10.3759468953  W2        5797            0.0000000000
     15046      5016  TIP3      OH2           -37.8777062818        6.7708248903        5.2647868953  W2        5798            0.0000000000
     15047      5016  TIP3      H1            -37.2617162818        7.3975448903        5.6442668953  W2        5798            0.0000000000
     15048      5016  TIP3      H2            -38.7394462818        7.0868048903        5.5364368953  W2        5798            0.0000000000
     15049      5017  TIP3      OH2           -32.2052462818        9.5714048903       10.2539768953  W2        5799            0.0000000000
     15050      5017  TIP3      H1            -32.4462462818       10.4968448903       10.2955068953  W2        5799            0.0000000000
     15051      5017  TIP3      H2            -32.9458862818        9.1125348903       10.6503668953  W2        5799            0.0000000000
     15052      5018  TIP3      OH2           -33.5221662818       14.5931648903        9.7991968953  W2        5801            0.0000000000
     15053      5018  TIP3      H1            -34.4721162818       14.6989048903        9.8505268953  W2        5801            0.0000000000
     15054      5018  TIP3      H2            -33.1703562818       15.4139048903       10.1439468953  W2        5801            0.0000000000
     15055      5019  TIP3      OH2           -25.9436162818       10.7488848903        5.3435468953  W2        5803            0.0000000000
     15056      5019  TIP3      H1            -25.5903062818       10.3688648903        6.1478968953  W2        5803            0.0000000000
     15057      5019  TIP3      H2            -26.8922662818       10.6553648903        5.4304768953  W2        5803            0.0000000000
     15058      5020  TIP3      OH2           -21.4401762818       15.2281348903        5.5445668953  W2        5805            0.0000000000
     15059      5020  TIP3      H1            -20.6963862818       15.8141848903        5.4047268953  W2        5805            0.0000000000
     15060      5020  TIP3      H2            -22.1343662818       15.7967148903        5.8778068953  W2        5805            0.0000000000
     15061      5021  TIP3      OH2           -25.0776862818        9.4210848903        7.5703368953  W2        5807            0.0000000000
     15062      5021  TIP3      H1            -25.3549262818        8.6930148903        8.1264468953  W2        5807            0.0000000000
     15063      5021  TIP3      H2            -24.1503862818        9.5402848903        7.7755968953  W2        5807            0.0000000000
     15064      5022  TIP3      OH2           -31.8528362818       11.8604948903        3.7905468953  W2        5809            0.0000000000
     15065      5022  TIP3      H1            -31.6138562818       11.1123048903        3.2434368953  W2        5809            0.0000000000
     15066      5022  TIP3      H2            -32.1217062818       11.4726648903        4.6233268953  W2        5809            0.0000000000
     15067      5023  TIP3      OH2           -32.9157762818       11.4308748903        6.2468068953  W2        5810            0.0000000000
     15068      5023  TIP3      H1            -32.7689762818       10.9108548903        7.0368968953  W2        5810            0.0000000000
     15069      5023  TIP3      H2            -32.9186062818       12.3376348903        6.5533968953  W2        5810            0.0000000000
     15070      5024  TIP3      OH2           -36.4626662818        8.6832048903        6.7573468953  W2        5811            0.0000000000
     15071      5024  TIP3      H1            -37.1487362818        9.0354548903        7.3243168953  W2        5811            0.0000000000
     15072      5024  TIP3      H2            -35.9398762818        9.4461648903        6.5107768953  W2        5811            0.0000000000
     15073      5025  TIP3      OH2           -27.8466662818        0.9977548903        8.1334768953  W2        5813            0.0000000000
     15074      5025  TIP3      H1            -27.6268362818        1.4692948903        7.3300168953  W2        5813            0.0000000000
     15075      5025  TIP3      H2            -27.2882662818        1.3920148903        8.8035368953  W2        5813            0.0000000000
     15076      5026  TIP3      OH2           -30.1780562818       13.1282348903        6.9962268953  W2        5814            0.0000000000
     15077      5026  TIP3      H1            -30.9944462818       13.6252048903        7.0486568953  W2        5814            0.0000000000
     15078      5026  TIP3      H2            -29.6484262818       13.6035848903        6.3561068953  W2        5814            0.0000000000
     15079      5027  TIP3      OH2           -30.6466762818        2.7256348903        8.9683168953  W2        5815            0.0000000000
     15080      5027  TIP3      H1            -29.8344162818        3.2299548903        9.0144868953  W2        5815            0.0000000000
     15081      5027  TIP3      H2            -30.8913762818        2.5806048903        9.8822768953  W2        5815            0.0000000000
     15082      5028  TIP3      OH2           -29.7630062818       -0.1930651097        9.9064268953  W2        5817            0.0000000000
     15083      5028  TIP3      H1            -30.1096562818        0.4239948903       10.5508568953  W2        5817            0.0000000000
     15084      5028  TIP3      H2            -29.1043162818        0.3075048903        9.4249768953  W2        5817            0.0000000000
     15085      5029  TIP3      OH2           -32.8397462818       14.1719548903        6.9779168953  W2        5818            0.0000000000
     15086      5029  TIP3      H1            -32.6788762818       14.9717048903        6.4771768953  W2        5818            0.0000000000
     15087      5029  TIP3      H2            -33.0369662818       14.4785548903        7.8629768953  W2        5818            0.0000000000
     15088      5030  TIP3      OH2           -34.1053062818        0.8698748903        6.5936768953  W2        5819            0.0000000000
     15089      5030  TIP3      H1            -34.1888262818        1.7581848903        6.9403168953  W2        5819            0.0000000000
     15090      5030  TIP3      H2            -33.2152762818        0.6045448903        6.8253568953  W2        5819            0.0000000000
     15091      5031  TIP3      OH2           -25.3043562818        5.3690348903       13.0836768953  W2        5821            0.0000000000
     15092      5031  TIP3      H1            -26.1019162818        4.9540548903       12.7551768953  W2        5821            0.0000000000
     15093      5031  TIP3      H2            -24.8592462818        4.6784048903       13.5747268953  W2        5821            0.0000000000
     15094      5032  TIP3      OH2           -35.8467762818       11.2970948903        5.6541268953  W2        5822            0.0000000000
     15095      5032  TIP3      H1            -35.2546262818       11.9965748903        5.9303668953  W2        5822            0.0000000000
     15096      5032  TIP3      H2            -35.3874762818       10.8640448903        4.9345868953  W2        5822            0.0000000000
     15097      5033  TIP3      OH2           -37.5308562818        3.9613948903        4.7700668953  W2        5823            0.0000000000
     15098      5033  TIP3      H1            -37.5755962818        4.9007048903        4.9487668953  W2        5823            0.0000000000
     15099      5033  TIP3      H2            -38.4185362818        3.7258848903        4.5002768953  W2        5823            0.0000000000
     15100      5034  TIP3      OH2           -24.2178962818       14.6252848903       14.7060268953  W2        5824            0.0000000000
     15101      5034  TIP3      H1            -24.3734662818       15.3037248903       14.0489568953  W2        5824            0.0000000000
     15102      5034  TIP3      H2            -23.2852562818       14.6972148903       14.9090868953  W2        5824            0.0000000000
     15103      5035  TIP3      OH2           -36.7226562818       -1.2569451097       13.4431668953  W2        5825            0.0000000000
     15104      5035  TIP3      H1            -36.9516762818       -1.1976951097       12.5156668953  W2        5825            0.0000000000
     15105      5035  TIP3      H2            -37.1653162818       -2.0483951097       13.7495768953  W2        5825            0.0000000000
     15106      5036  TIP3      OH2           -37.7923262818       12.6837648903        9.6037468953  W2        5826            0.0000000000
     15107      5036  TIP3      H1            -38.6244662818       13.1560348903        9.6308868953  W2        5826            0.0000000000
     15108      5036  TIP3      H2            -37.2464962818       13.1935248903        9.0050568953  W2        5826            0.0000000000
     15109      5037  TIP3      OH2           -29.8146562818       13.7236348903        3.9291468953  W2        5829            0.0000000000
     15110      5037  TIP3      H1            -30.4585562818       13.0924948903        4.2505168953  W2        5829            0.0000000000
     15111      5037  TIP3      H2            -29.0528262818       13.1924348903        3.6974968953  W2        5829            0.0000000000
     15112      5038  TIP3      OH2           -25.2103662818       13.5406248903        4.1629468953  W2        5831            0.0000000000
     15113      5038  TIP3      H1            -24.9273262818       12.7461448903        4.6156368953  W2        5831            0.0000000000
     15114      5038  TIP3      H2            -24.4705762818       13.7737248903        3.6020568953  W2        5831            0.0000000000
     15115      5039  TIP3      OH2           -34.2556362818        9.4501148903        4.0204368953  W2        5833            0.0000000000
     15116      5039  TIP3      H1            -34.1912262818        8.6560748903        4.5510768953  W2        5833            0.0000000000
     15117      5039  TIP3      H2            -33.6027162818        9.3313948903        3.3306368953  W2        5833            0.0000000000
     15118      5040  TIP3      OH2           -28.9032962818       10.4972848903        3.7562368953  W2        5835            0.0000000000
     15119      5040  TIP3      H1            -29.1718862818       10.6774948903        4.6571268953  W2        5835            0.0000000000
     15120      5040  TIP3      H2            -29.1097362818        9.5719048903        3.6248168953  W2        5835            0.0000000000
     15121      5041  TIP3      OH2           -33.1062562818        7.4227348903        6.3262368953  W2        5838            0.0000000000
     15122      5041  TIP3      H1            -33.5660562818        6.9385648903        7.0120868953  W2        5838            0.0000000000
     15123      5041  TIP3      H2            -32.8513862818        6.7542748903        5.6902868953  W2        5838            0.0000000000
     15124      5042  TIP3      OH2           -32.0352162818        5.6659148903        4.5885568953  W2        5840            0.0000000000
     15125      5042  TIP3      H1            -32.2157162818        5.5110348903        3.6613868953  W2        5840            0.0000000000
     15126      5042  TIP3      H2            -31.0851662818        5.7737848903        4.6333468953  W2        5840            0.0000000000
     15127      5043  TIP3      OH2           -22.6453862818        8.0203348903        4.0343668953  W2        5842            0.0000000000
     15128      5043  TIP3      H1            -22.9189062818        7.5958848903        3.2211968953  W2        5842            0.0000000000
     15129      5043  TIP3      H2            -22.6059762818        8.9517848903        3.8174068953  W2        5842            0.0000000000
     15130      5044  TIP3      OH2           -32.1380462818       16.3562848903        5.5899168953  W2        5856            0.0000000000
     15131      5044  TIP3      H1            -31.2049762818       16.5141548903        5.7337568953  W2        5856            0.0000000000
     15132      5044  TIP3      H2            -32.4021662818       17.0315848903        4.9650668953  W2        5856            0.0000000000
     15133      5045  TIP3      OH2           -38.5695562818       10.9926648903        5.0727268953  W2        5857            0.0000000000
     15134      5045  TIP3      H1            -37.6556362818       11.0715548903        5.3461168953  W2        5857            0.0000000000
     15135      5045  TIP3      H2            -38.5622462818       10.3056248903        4.4062868953  W2        5857            0.0000000000
     15136      5046  TIP3      OH2           -39.9204962818       16.3855148903       10.1501168953  W2        5858            0.0000000000
     15137      5046  TIP3      H1            -40.5677862818       15.9236848903        9.6172368953  W2        5858            0.0000000000
     15138      5046  TIP3      H2            -39.5660362818       15.7138448903       10.7327368953  W2        5858            0.0000000000
     15139      5047  TIP3      OH2           -39.0505762818       14.4662148903       11.9547368953  W2        5859            0.0000000000
     15140      5047  TIP3      H1            -39.3848962818       13.5859448903       12.1267568953  W2        5859            0.0000000000
     15141      5047  TIP3      H2            -38.8283362818       14.8117148903       12.8192968953  W2        5859            0.0000000000
     15142      5048  TIP3      OH2           -22.1871062818        8.8891448903        8.0094068953  W2        5863            0.0000000000
     15143      5048  TIP3      H1            -21.3369662818        9.3102348903        8.1365668953  W2        5863            0.0000000000
     15144      5048  TIP3      H2            -22.1815962818        8.1491548903        8.6165468953  W2        5863            0.0000000000
     15145      5049  TIP3      OH2           -21.7925462818        6.9428848903        9.8329768953  W2        5864            0.0000000000
     15146      5049  TIP3      H1            -22.5190862818        6.4631448903       10.2307368953  W2        5864            0.0000000000
     15147      5049  TIP3      H2            -21.2112162818        7.1483548903       10.5651368953  W2        5864            0.0000000000
     15148      5050  TIP3      OH2           -22.0334262818        9.7276348903       14.7807368953  W2        5865            0.0000000000
     15149      5050  TIP3      H1            -21.2000062818        9.3496348903       14.5000968953  W2        5865            0.0000000000
     15150      5050  TIP3      H2            -21.9213962818       10.6707548903       14.6616468953  W2        5865            0.0000000000
     15151      5051  TIP3      OH2           -21.5242362818        6.8437348903        6.2241068953  W2        5867            0.0000000000
     15152      5051  TIP3      H1            -22.0461262818        7.2001448903        5.5051968953  W2        5867            0.0000000000
     15153      5051  TIP3      H2            -21.5573162818        7.5185148903        6.9021968953  W2        5867            0.0000000000
     15154      5052  TIP3      OH2           -23.1753362818        4.0832948903        4.7748168953  W2        5868            0.0000000000
     15155      5052  TIP3      H1            -23.0788962818        4.7499948903        4.0947868953  W2        5868            0.0000000000
     15156      5052  TIP3      H2            -23.3153762818        3.2679248903        4.2933668953  W2        5868            0.0000000000
     15157      5053  TIP3      OH2           -24.0058662818        5.4635348903       10.3958468953  W2        5869            0.0000000000
     15158      5053  TIP3      H1            -24.1559862818        4.5183948903       10.3756268953  W2        5869            0.0000000000
     15159      5053  TIP3      H2            -24.3594162818        5.7446748903       11.2397568953  W2        5869            0.0000000000
     15160      5054  TIP3      OH2           -38.9706262818        7.5417548903       14.4062268953  W2        5870            0.0000000000
     15161      5054  TIP3      H1            -38.7863362818        7.4599248903       13.4705168953  W2        5870            0.0000000000
     15162      5054  TIP3      H2            -38.1213362818        7.4174548903       14.8298668953  W2        5870            0.0000000000
     15163      5055  TIP3      OH2           -23.9279562818        1.4912748903        3.8923668953  W2        5873            0.0000000000
     15164      5055  TIP3      H1            -23.3173762818        1.1199548903        4.5291868953  W2        5873            0.0000000000
     15165      5055  TIP3      H2            -24.7648062818        1.0699648903        4.0883668953  W2        5873            0.0000000000
     15166      5056  TIP3      OH2           -24.2953862818        3.0461148903        8.8583568953  W2        5874            0.0000000000
     15167      5056  TIP3      H1            -24.0156762818        2.1391548903        8.9825268953  W2        5874            0.0000000000
     15168      5056  TIP3      H2            -23.5362162818        3.4802648903        8.4692768953  W2        5874            0.0000000000
     15169      5057  TIP3      OH2           -23.6835562818        3.6278548903       14.2942468953  W2        5875            0.0000000000
     15170      5057  TIP3      H1            -22.7507562818        3.8398448903       14.2598468953  W2        5875            0.0000000000
     15171      5057  TIP3      H2            -23.9188062818        3.7290648903       15.2165468953  W2        5875            0.0000000000
     15172      5058  TIP3      OH2           -23.6819062818        0.3090448903        8.9065568953  W2        5879            0.0000000000
     15173      5058  TIP3      H1            -23.4994062818       -0.1398051097        9.7320568953  W2        5879            0.0000000000
     15174      5058  TIP3      H2            -24.2816162818       -0.2755151097        8.4430168953  W2        5879            0.0000000000
     15175      5059  TIP3      OH2           -38.1518962818        1.1244148903       13.4383968953  W2        5880            0.0000000000
     15176      5059  TIP3      H1            -37.7067362818        0.3326648903       13.7403668953  W2        5880            0.0000000000
     15177      5059  TIP3      H2            -37.6855962818        1.8409348903       13.8689568953  W2        5880            0.0000000000
     15178      5060  TIP3      OH2           -39.8478662818        4.1237148903       14.5074168953  W2        5881            0.0000000000
     15179      5060  TIP3      H1            -39.3558862818        3.9027648903       13.7166168953  W2        5881            0.0000000000
     15180      5060  TIP3      H2            -39.4857762818        4.9640548903       14.7883668953  W2        5881            0.0000000000
     15181      5061  TIP3      OH2           -21.8152862818        0.3768548903        5.4345868953  W2        5883            0.0000000000
     15182      5061  TIP3      H1            -21.4030262818       -0.3445751097        4.9593868953  W2        5883            0.0000000000
     15183      5061  TIP3      H2            -21.1336362818        1.0463148903        5.4930168953  W2        5883            0.0000000000
     15184      5062  TIP3      OH2           -39.5342162818        0.3816248903        8.5616568953  W2        5884            0.0000000000
     15185      5062  TIP3      H1            -40.4593762818        0.5902848903        8.4322068953  W2        5884            0.0000000000
     15186      5062  TIP3      H2            -39.0802262818        0.8657048903        7.8718868953  W2        5884            0.0000000000
     15187      5063  TIP3      OH2           -24.7634962818       15.3657948903       10.5073968953  W2        5885            0.0000000000
     15188      5063  TIP3      H1            -24.1112062818       15.0180048903        9.8993068953  W2        5885            0.0000000000
     15189      5063  TIP3      H2            -24.2531162818       15.8541148903       11.1533668953  W2        5885            0.0000000000
     15190      5064  TIP3      OH2           -37.6079762818       15.1486948903       14.2665968953  W2        5897            0.0000000000
     15191      5064  TIP3      H1            -37.6263762818       14.7232048903       15.1238268953  W2        5897            0.0000000000
     15192      5064  TIP3      H2            -36.8031862818       14.8301948903       13.8578168953  W2        5897            0.0000000000
     15193      5065  TIP3      OH2           -35.4666662818       13.8585648903       12.9215868953  W2        5898            0.0000000000
     15194      5065  TIP3      H1            -35.6855962818       12.9423048903       13.0911868953  W2        5898            0.0000000000
     15195      5065  TIP3      H2            -34.6424462818       13.9986048903       13.3877268953  W2        5898            0.0000000000
     15196      5066  TIP3      OH2           -32.9294162818       14.3284948903       13.7703868953  W2        5899            0.0000000000
     15197      5066  TIP3      H1            -32.7168462818       13.4403948903       13.4834768953  W2        5899            0.0000000000
     15198      5066  TIP3      H2            -32.8649062818       14.2942648903       14.7247868953  W2        5899            0.0000000000
     15199      5067  TIP3      OH2           -29.4210462818       -0.0074451097       12.9147168953  W2        5900            0.0000000000
     15200      5067  TIP3      H1            -30.0953662818       -0.6368851097       13.1702968953  W2        5900            0.0000000000
     15201      5067  TIP3      H2            -28.8571262818       -0.4915551097       12.3115068953  W2        5900            0.0000000000
     15202      5068  TIP3      OH2           -24.2783262818       -1.9000451097       13.0274268953  W2        5901            0.0000000000
     15203      5068  TIP3      H1            -23.6745662818       -1.3525051097       12.5255268953  W2        5901            0.0000000000
     15204      5068  TIP3      H2            -25.1481262818       -1.5810051097       12.7868368953  W2        5901            0.0000000000
     15205      5069  TIP3      OH2           -22.5512862818       -0.7611751097       11.3605168953  W2        5902            0.0000000000
     15206      5069  TIP3      H1            -21.9395362818       -1.2756051097       10.8338768953  W2        5902            0.0000000000
     15207      5069  TIP3      H2            -22.1689462818        0.1160348903       11.3839568953  W2        5902            0.0000000000
     15208      5070  TIP3      OH2           -37.0942962818       -1.3734151097       10.7367068953  W2        5903            0.0000000000
     15209      5070  TIP3      H1            -37.8713162818       -1.6079251097       10.2292968953  W2        5903            0.0000000000
     15210      5070  TIP3      H2            -36.5639362818       -2.1702051097       10.7455068953  W2        5903            0.0000000000
     15211      5071  TIP3      OH2           -38.2579562818       -1.5756051097        6.5403168953  W2        5904            0.0000000000
     15212      5071  TIP3      H1            -37.8188862818       -0.9645551097        5.9486668953  W2        5904            0.0000000000
     15213      5071  TIP3      H2            -38.8917162818       -1.0371951097        7.0143168953  W2        5904            0.0000000000
     15214      5072  TIP3      OH2           -32.5150362818       -1.4467051097       10.5500168953  W2        5905            0.0000000000
     15215      5072  TIP3      H1            -31.6406962818       -1.0582751097       10.5204468953  W2        5905            0.0000000000
     15216      5072  TIP3      H2            -32.6509562818       -1.6619251097       11.4727368953  W2        5905            0.0000000000
     15217      5073  TIP3      OH2           -26.9581962818       -1.4167251097       12.1991868953  W2        5906            0.0000000000
     15218      5073  TIP3      H1            -26.8820362818       -1.3215651097       11.2497868953  W2        5906            0.0000000000
     15219      5073  TIP3      H2            -27.2332762818       -2.3244351097       12.3280968953  W2        5906            0.0000000000
     15220      5074  TIP3      OH2           -25.6049362818       -1.3909451097        7.8916868953  W2        5907            0.0000000000
     15221      5074  TIP3      H1            -26.3078262818       -0.7760251097        7.6818268953  W2        5907            0.0000000000
     15222      5074  TIP3      H2            -26.0497962818       -2.2282751097        8.0227768953  W2        5907            0.0000000000
     15223      5075  TIP3      OH2           -38.3570062818       14.3726148903        7.4378268953  W2        5908            0.0000000000
     15224      5075  TIP3      H1            -39.0420162818       14.3345048903        6.7703368953  W2        5908            0.0000000000
     15225      5075  TIP3      H2            -38.3532862818       15.2853748903        7.7260368953  W2        5908            0.0000000000
     15226      5076  TIP3      OH2           -36.3970462818        0.3405448903        4.9827268953  W2        5909            0.0000000000
     15227      5076  TIP3      H1            -35.9057062818       -0.2892151097        4.4552768953  W2        5909            0.0000000000
     15228      5076  TIP3      H2            -35.7734162818        0.6364848903        5.6458468953  W2        5909            0.0000000000
     15229      5077  TIP3      OH2           -31.3710362818        0.6336948903        7.4397768953  W2        5910            0.0000000000
     15230      5077  TIP3      H1            -31.1929062818       -0.0129851097        8.1226368953  W2        5910            0.0000000000
     15231      5077  TIP3      H2            -31.4244162818        1.4674648903        7.9068868953  W2        5910            0.0000000000
     15232      5078  TIP3      OH2           -29.4926562818       15.5821048903        5.8354468953  W2        5911            0.0000000000
     15233      5078  TIP3      H1            -28.6266362818       15.9488448903        5.6572668953  W2        5911            0.0000000000
     15234      5078  TIP3      H2            -29.7393762818       15.1429048903        5.0215268953  W2        5911            0.0000000000
     15235      5079  TIP3      OH2           -22.7836962818       15.1451348903        8.5145568953  W2        5912            0.0000000000
     15236      5079  TIP3      H1            -22.9779862818       14.3973448903        7.9495168953  W2        5912            0.0000000000
     15237      5079  TIP3      H2            -22.8226862818       15.9031448903        7.9313468953  W2        5912            0.0000000000
     15238      5080  TIP3      OH2           -36.5388862818       15.2926948903        4.4630368953  W2        5915            0.0000000000
     15239      5080  TIP3      H1            -36.8064262818       15.5789848903        5.3363468953  W2        5915            0.0000000000
     15240      5080  TIP3      H2            -35.7676262818       14.7466148903        4.6152868953  W2        5915            0.0000000000
     15241      5081  TIP3      OH2            -9.1600362818        7.7828148903       10.6954568953  W2        5918            0.0000000000
     15242      5081  TIP3      H1             -9.0709262818        8.7266348903       10.5631668953  W2        5918            0.0000000000
     15243      5081  TIP3      H2             -9.7982762818        7.5074548903       10.0373968953  W2        5918            0.0000000000
     15244      5082  TIP3      OH2           -10.2269062818        7.0378848903       14.1142768953  W2        5919            0.0000000000
     15245      5082  TIP3      H1            -10.2651562818        6.3915148903       14.8192368953  W2        5919            0.0000000000
     15246      5082  TIP3      H2            -10.5492562818        6.5713248903       13.3431468953  W2        5919            0.0000000000
     15247      5083  TIP3      OH2            -6.5208862818        9.9769248903       12.4157868953  W2        5921            0.0000000000
     15248      5083  TIP3      H1             -6.9616162818        9.2565248903       12.8663468953  W2        5921            0.0000000000
     15249      5083  TIP3      H2             -6.5339162818       10.6976448903       13.0455568953  W2        5921            0.0000000000
     15250      5084  TIP3      OH2           -16.9350962818       11.1019848903       14.2421768953  W2        5922            0.0000000000
     15251      5084  TIP3      H1            -17.3045762818       10.3000348903       13.8726068953  W2        5922            0.0000000000
     15252      5084  TIP3      H2            -15.9939862818       10.9334748903       14.2885168953  W2        5922            0.0000000000
     15253      5085  TIP3      OH2           -20.3250462818        4.7622448903        9.6350568953  W2        5923            0.0000000000
     15254      5085  TIP3      H1            -20.7727062818        5.6081148903        9.6167068953  W2        5923            0.0000000000
     15255      5085  TIP3      H2            -20.8859262818        4.1826648903        9.1195668953  W2        5923            0.0000000000
     15256      5086  TIP3      OH2           -19.6144362818        6.9242048903       11.7608568953  W2        5924            0.0000000000
     15257      5086  TIP3      H1            -19.4010862818        6.1543648903       12.2881568953  W2        5924            0.0000000000
     15258      5086  TIP3      H2            -18.8766762818        7.0138748903       11.1576168953  W2        5924            0.0000000000
     15259      5087  TIP3      OH2            -9.4093362818       15.0810948903       12.6278268953  W2        5925            0.0000000000
     15260      5087  TIP3      H1             -8.7896962818       14.4045648903       12.3547468953  W2        5925            0.0000000000
     15261      5087  TIP3      H2             -9.6175962818       14.8631748903       13.5363168953  W2        5925            0.0000000000
     15262      5088  TIP3      OH2           -11.8374662818        9.4700248903       14.5203768953  W2        5926            0.0000000000
     15263      5088  TIP3      H1            -11.5336762818        8.7841648903       13.9257868953  W2        5926            0.0000000000
     15264      5088  TIP3      H2            -11.1160662818        9.5888948903       15.1381768953  W2        5926            0.0000000000
     15265      5089  TIP3      OH2            -8.6967662818        3.8642648903       14.8478568953  W2        5928            0.0000000000
     15266      5089  TIP3      H1             -8.5541762818        2.9179648903       14.8680168953  W2        5928            0.0000000000
     15267      5089  TIP3      H2             -8.8028662818        4.0712448903       13.9193468953  W2        5928            0.0000000000
     15268      5090  TIP3      OH2           -15.5419362818        1.9659048903       12.1203368953  W2        5929            0.0000000000
     15269      5090  TIP3      H1            -15.4988262818        2.8257548903       11.7019668953  W2        5929            0.0000000000
     15270      5090  TIP3      H2            -15.9995262818        1.4133748903       11.4866568953  W2        5929            0.0000000000
     15271      5091  TIP3      OH2            -7.8196662818        2.0964648903       10.5211668953  W2        5930            0.0000000000
     15272      5091  TIP3      H1             -7.1732362818        1.7677848903       11.1459268953  W2        5930            0.0000000000
     15273      5091  TIP3      H2             -7.3097262818        2.6143648903        9.8983068953  W2        5930            0.0000000000
     15274      5092  TIP3      OH2           -18.9217862818        4.3624848903       12.8824768953  W2        5931            0.0000000000
     15275      5092  TIP3      H1            -18.2681262818        3.8126548903       13.3144868953  W2        5931            0.0000000000
     15276      5092  TIP3      H2            -18.8978562818        4.0883848903       11.9656768953  W2        5931            0.0000000000
     15277      5093  TIP3      OH2           -13.7653362818        5.9126148903       12.0976268953  W2        5932            0.0000000000
     15278      5093  TIP3      H1            -13.1492362818        5.3861548903       12.6070268953  W2        5932            0.0000000000
     15279      5093  TIP3      H2            -14.3514562818        5.2724848903       11.6939868953  W2        5932            0.0000000000
     15280      5094  TIP3      OH2            -9.3627662818       10.3838548903        9.7383268953  W2        5935            0.0000000000
     15281      5094  TIP3      H1             -9.6582562818       10.0610848903        8.8870168953  W2        5935            0.0000000000
     15282      5094  TIP3      H2             -9.6869862818       11.2835248903        9.7795868953  W2        5935            0.0000000000
     15283      5095  TIP3      OH2            -6.0558262818        1.3873948903       12.5017568953  W2        5937            0.0000000000
     15284      5095  TIP3      H1             -6.2710262818        0.6217348903       13.0343568953  W2        5937            0.0000000000
     15285      5095  TIP3      H2             -5.4000862818        1.8598548903       13.0146068953  W2        5937            0.0000000000
     15286      5096  TIP3      OH2           -17.1380162818        2.7759248903       14.1466368953  W2        5938            0.0000000000
     15287      5096  TIP3      H1            -16.5243862818        3.4086848903       14.5198768953  W2        5938            0.0000000000
     15288      5096  TIP3      H2            -16.6259462818        2.3034248903       13.4903268953  W2        5938            0.0000000000
     15289      5097  TIP3      OH2           -19.6340862818       10.1944048903        8.0508668953  W2        5940            0.0000000000
     15290      5097  TIP3      H1            -19.9059962818       10.4235048903        7.1621568953  W2        5940            0.0000000000
     15291      5097  TIP3      H2            -19.5885162818       11.0322848903        8.5113968953  W2        5940            0.0000000000
     15292      5098  TIP3      OH2            -6.0091162818       11.8159948903       14.7637168953  W2        5941            0.0000000000
     15293      5098  TIP3      H1             -6.9507462818       11.8743848903       14.9254068953  W2        5941            0.0000000000
     15294      5098  TIP3      H2             -5.7325062818       12.7220448903       14.6266868953  W2        5941            0.0000000000
     15295      5099  TIP3      OH2           -12.7052762818       -1.8107451097       13.6469068953  W2        5943            0.0000000000
     15296      5099  TIP3      H1            -12.8228562818       -2.7591451097       13.5927368953  W2        5943            0.0000000000
     15297      5099  TIP3      H2            -13.5602662818       -1.4781351097       13.9200168953  W2        5943            0.0000000000
     15298      5100  TIP3      OH2            -7.7569962818       13.5973448903       11.3888768953  W2        5944            0.0000000000
     15299      5100  TIP3      H1             -7.3317662818       12.8901348903       10.9038368953  W2        5944            0.0000000000
     15300      5100  TIP3      H2             -7.4399962818       14.3986148903       10.9720968953  W2        5944            0.0000000000
     15301      5101  TIP3      OH2            -6.5973462818       11.4981948903        9.8975368953  W2        5945            0.0000000000
     15302      5101  TIP3      H1             -6.8548662818       10.8082048903        9.2861268953  W2        5945            0.0000000000
     15303      5101  TIP3      H2             -6.5262662818       11.0553148903       10.7431268953  W2        5945            0.0000000000
     15304      5102  TIP3      OH2           -10.4387862818        7.0268148903        8.1474868953  W2        5947            0.0000000000
     15305      5102  TIP3      H1            -11.1502362818        7.5617848903        7.7955368953  W2        5947            0.0000000000
     15306      5102  TIP3      H2             -9.7478262818        7.0820248903        7.4873768953  W2        5947            0.0000000000
     15307      5103  TIP3      OH2           -10.3848662818        5.4842448903        5.1859868953  W2        5948            0.0000000000
     15308      5103  TIP3      H1             -9.6838762818        5.5069348903        5.8373868953  W2        5948            0.0000000000
     15309      5103  TIP3      H2            -10.0825762818        4.8562148903        4.5299168953  W2        5948            0.0000000000
     15310      5104  TIP3      OH2            -7.0330162818        7.2361448903        9.0990768953  W2        5950            0.0000000000
     15311      5104  TIP3      H1             -7.7649162818        7.4645148903        9.6721368953  W2        5950            0.0000000000
     15312      5104  TIP3      H2             -6.5857962818        6.5224148903        9.5538268953  W2        5950            0.0000000000
     15313      5105  TIP3      OH2           -15.3876462818        7.8667648903       10.9815768953  W2        5952            0.0000000000
     15314      5105  TIP3      H1            -15.7181262818        7.4961048903       10.1632768953  W2        5952            0.0000000000
     15315      5105  TIP3      H2            -14.7992362818        7.1961648903       11.3284068953  W2        5952            0.0000000000
     15316      5106  TIP3      OH2           -14.0208962818       11.2948248903       13.6627968953  W2        5953            0.0000000000
     15317      5106  TIP3      H1            -14.1157662818       10.7161348903       12.9062568953  W2        5953            0.0000000000
     15318      5106  TIP3      H2            -13.2915362818       10.9233948903       14.1590768953  W2        5953            0.0000000000
     15319      5107  TIP3      OH2           -15.0210962818        6.6353248903       14.6150768953  W2        5954            0.0000000000
     15320      5107  TIP3      H1            -14.4558462818        6.7567448903       13.8521968953  W2        5954            0.0000000000
     15321      5107  TIP3      H2            -14.7022062818        7.2728248903       15.2539268953  W2        5954            0.0000000000
     15322      5108  TIP3      OH2            -8.1620662818        6.3984348903        6.7841968953  W2        5957            0.0000000000
     15323      5108  TIP3      H1             -7.5825162818        6.5484648903        7.5310868953  W2        5957            0.0000000000
     15324      5108  TIP3      H2             -7.7480662818        6.8691748903        6.0608368953  W2        5957            0.0000000000
     15325      5109  TIP3      OH2           -10.4355762818       13.1352848903       10.2195068953  W2        5959            0.0000000000
     15326      5109  TIP3      H1             -9.9618162818       13.4309148903       10.9969268953  W2        5959            0.0000000000
     15327      5109  TIP3      H2            -10.9986462818       13.8734448903        9.9864668953  W2        5959            0.0000000000
     15328      5110  TIP3      OH2            -4.4632262818       -1.8515251097        6.5971668953  W2        5961            0.0000000000
     15329      5110  TIP3      H1             -5.3631562818       -1.7126251097        6.8922268953  W2        5961            0.0000000000
     15330      5110  TIP3      H2             -4.2113862818       -1.0200651097        6.1953368953  W2        5961            0.0000000000
     15331      5111  TIP3      OH2           -16.3973762818        6.9361948903        8.5708568953  W2        5962            0.0000000000
     15332      5111  TIP3      H1            -16.6892462818        7.7043648903        8.0799868953  W2        5962            0.0000000000
     15333      5111  TIP3      H2            -17.0718562818        6.2768148903        8.4079968953  W2        5962            0.0000000000
     15334      5112  TIP3      OH2            -3.2740862818       12.5147148903        4.9735568953  W2        5963            0.0000000000
     15335      5112  TIP3      H1             -3.2007362818       13.4537348903        5.1440868953  W2        5963            0.0000000000
     15336      5112  TIP3      H2             -2.3685762818       12.2095748903        4.9172868953  W2        5963            0.0000000000
     15337      5113  TIP3      OH2           -20.5540962818       12.0794948903       14.2698568953  W2        5965            0.0000000000
     15338      5113  TIP3      H1            -19.6080362818       11.9351948903       14.2508068953  W2        5965            0.0000000000
     15339      5113  TIP3      H2            -20.6664662818       12.8637748903       14.8069768953  W2        5965            0.0000000000
     15340      5114  TIP3      OH2           -10.9632662818       16.0917548903        8.6344268953  W2        5968            0.0000000000
     15341      5114  TIP3      H1            -11.0386662818       15.9704748903        7.6879468953  W2        5968            0.0000000000
     15342      5114  TIP3      H2            -10.9303962818       17.0410248903        8.7528868953  W2        5968            0.0000000000
     15343      5115  TIP3      OH2           -17.3098862818       14.8804548903       10.4153268953  W2        5969            0.0000000000
     15344      5115  TIP3      H1            -17.1578462818       14.5324948903       11.2939768953  W2        5969            0.0000000000
     15345      5115  TIP3      H2            -18.1608462818       14.5241848903       10.1600468953  W2        5969            0.0000000000
     15346      5116  TIP3      OH2            -7.8616662818       15.2457748903        5.6366668953  W2        5970            0.0000000000
     15347      5116  TIP3      H1             -7.4868262818       14.5013848903        5.1659268953  W2        5970            0.0000000000
     15348      5116  TIP3      H2             -7.8572962818       14.9758348903        6.5549968953  W2        5970            0.0000000000
     15349      5117  TIP3      OH2            -8.1928562818       15.1714848903        8.3858868953  W2        5971            0.0000000000
     15350      5117  TIP3      H1             -9.1278762818       15.2716748903        8.5645868953  W2        5971            0.0000000000
     15351      5117  TIP3      H2             -7.9126662818       14.4620848903        8.9642068953  W2        5971            0.0000000000
     15352      5118  TIP3      OH2           -15.4365162818       -0.9072951097       14.4245368953  W2        5974            0.0000000000
     15353      5118  TIP3      H1            -16.2981462818       -0.9944751097       14.0168268953  W2        5974            0.0000000000
     15354      5118  TIP3      H2            -15.4589462818       -0.0512851097       14.8522968953  W2        5974            0.0000000000
     15355      5119  TIP3      OH2            -6.6847562818        7.4312648903        4.4139868953  W2        5977            0.0000000000
     15356      5119  TIP3      H1             -6.6426762818        7.2086548903        3.4839868953  W2        5977            0.0000000000
     15357      5119  TIP3      H2             -5.8355462818        7.8299748903        4.6039768953  W2        5977            0.0000000000
     15358      5120  TIP3      OH2           -11.1120062818        1.3070848903        5.0843168953  W2        5978            0.0000000000
     15359      5120  TIP3      H1            -11.3655262818        1.3262448903        6.0071268953  W2        5978            0.0000000000
     15360      5120  TIP3      H2            -11.3687962818        0.4356248903        4.7829368953  W2        5978            0.0000000000
     15361      5121  TIP3      OH2           -15.3485962818        4.2791648903       10.4315568953  W2        5980            0.0000000000
     15362      5121  TIP3      H1            -16.2413062818        3.9387748903       10.3729368953  W2        5980            0.0000000000
     15363      5121  TIP3      H2            -14.8979362818        3.9022548903        9.6758768953  W2        5980            0.0000000000
     15364      5122  TIP3      OH2            -9.8130462818        4.6951948903        9.2486368953  W2        5981            0.0000000000
     15365      5122  TIP3      H1            -10.2220162818        5.5100548903        8.9571168953  W2        5981            0.0000000000
     15366      5122  TIP3      H2             -9.0924262818        4.5552048903        8.6343468953  W2        5981            0.0000000000
     15367      5123  TIP3      OH2            -8.8082762818        4.1412348903       12.0626068953  W2        5983            0.0000000000
     15368      5123  TIP3      H1             -9.0038262818        4.7469148903       11.3476668953  W2        5983            0.0000000000
     15369      5123  TIP3      H2             -8.6270162818        3.3077548903       11.6282368953  W2        5983            0.0000000000
     15370      5124  TIP3      OH2           -14.2297162818        1.7527348903        4.1853568953  W2        5985            0.0000000000
     15371      5124  TIP3      H1            -14.6606462818        1.3077448903        4.9150968953  W2        5985            0.0000000000
     15372      5124  TIP3      H2            -14.9478462818        2.1243648903        3.6731068953  W2        5985            0.0000000000
     15373      5125  TIP3      OH2           -20.9873762818        1.4946848903       11.2372268953  W2        5986            0.0000000000
     15374      5125  TIP3      H1            -20.3566062818        1.4658948903       11.9566168953  W2        5986            0.0000000000
     15375      5125  TIP3      H2            -20.5379462818        1.0695548903       10.5068168953  W2        5986            0.0000000000
     15376      5126  TIP3      OH2           -19.7131662818        2.2408848903        6.6612668953  W2        5987            0.0000000000
     15377      5126  TIP3      H1            -19.2389962818        2.8318748903        6.0763568953  W2        5987            0.0000000000
     15378      5126  TIP3      H2            -20.4305262818        2.7711748903        7.0082768953  W2        5987            0.0000000000
     15379      5127  TIP3      OH2           -12.7670662818        1.7069148903       11.5179668953  W2        5989            0.0000000000
     15380      5127  TIP3      H1            -13.6779562818        1.7635948903       11.8065668953  W2        5989            0.0000000000
     15381      5127  TIP3      H2            -12.2617762818        1.6464648903       12.3286868953  W2        5989            0.0000000000
     15382      5128  TIP3      OH2           -17.9387262818        3.3355448903       10.3447268953  W2        5990            0.0000000000
     15383      5128  TIP3      H1            -18.8279262818        3.4350948903       10.0046868953  W2        5990            0.0000000000
     15384      5128  TIP3      H2            -17.6422362818        2.4938448903        9.9985168953  W2        5990            0.0000000000
     15385      5129  TIP3      OH2           -14.2855462818        3.3358048903        8.0011868953  W2        5991            0.0000000000
     15386      5129  TIP3      H1            -13.3539962818        3.4648048903        8.1794968953  W2        5991            0.0000000000
     15387      5129  TIP3      H2            -14.5005162818        4.0052348903        7.3516568953  W2        5991            0.0000000000
     15388      5130  TIP3      OH2            -8.3618762818        0.9415448903       14.7821468953  W2        5992            0.0000000000
     15389      5130  TIP3      H1             -9.0387162818        1.0728548903       15.4461168953  W2        5992            0.0000000000
     15390      5130  TIP3      H2             -8.8473862818        0.7864948903       13.9719168953  W2        5992            0.0000000000
     15391      5131  TIP3      OH2           -15.6115262818        4.5300248903        5.5677968953  W2        5993            0.0000000000
     15392      5131  TIP3      H1            -16.1540162818        4.1504048903        4.8765568953  W2        5993            0.0000000000
     15393      5131  TIP3      H2            -14.7780362818        4.7244948903        5.1392068953  W2        5993            0.0000000000
     15394      5132  TIP3      OH2           -11.4470962818        4.4942148903       13.4049268953  W2        5996            0.0000000000
     15395      5132  TIP3      H1            -10.8827562818        3.9478748903       12.8578868953  W2        5996            0.0000000000
     15396      5132  TIP3      H2            -11.5947562818        3.9724048903       14.1936868953  W2        5996            0.0000000000
     15397      5133  TIP3      OH2           -16.4451262818        0.6308248903        9.8234068953  W2        5997            0.0000000000
     15398      5133  TIP3      H1            -16.7621762818       -0.2716451097        9.7879468953  W2        5997            0.0000000000
     15399      5133  TIP3      H2            -15.6637162818        0.6325648903        9.2705668953  W2        5997            0.0000000000
     15400      5134  TIP3      OH2           -12.2762462818        9.0955948903        7.5036068953  W2        5999            0.0000000000
     15401      5134  TIP3      H1            -13.0211462818        8.5881248903        7.1813968953  W2        5999            0.0000000000
     15402      5134  TIP3      H2            -12.4105262818        9.1443948903        8.4500868953  W2        5999            0.0000000000
     15403      5135  TIP3      OH2            -8.3785662818        1.9095848903        5.7028668953  W2        6001            0.0000000000
     15404      5135  TIP3      H1             -9.3171462818        2.0211448903        5.5517468953  W2        6001            0.0000000000
     15405      5135  TIP3      H2             -8.0813562818        2.7662748903        6.0094368953  W2        6001            0.0000000000
     15406      5136  TIP3      OH2            -7.6602162818        3.7768548903        7.3636068953  W2        6003            0.0000000000
     15407      5136  TIP3      H1             -6.7683162818        3.6393548903        7.6827268953  W2        6003            0.0000000000
     15408      5136  TIP3      H2             -7.6038562818        4.5674648903        6.8269568953  W2        6003            0.0000000000
     15409      5137  TIP3      OH2           -17.1514162818        8.3905948903       13.2733968953  W2        6004            0.0000000000
     15410      5137  TIP3      H1            -16.4066962818        8.3881648903       12.6720468953  W2        6004            0.0000000000
     15411      5137  TIP3      H2            -17.0737562818        7.5669748903       13.7549068953  W2        6004            0.0000000000
     15412      5138  TIP3      OH2           -10.1508362818       10.5540248903        6.5290668953  W2        6005            0.0000000000
     15413      5138  TIP3      H1            -10.4459962818       11.3808148903        6.9105468953  W2        6005            0.0000000000
     15414      5138  TIP3      H2            -10.8538362818        9.9347148903        6.7252068953  W2        6005            0.0000000000
     15415      5139  TIP3      OH2            -2.7753462818        3.9862648903        7.0582768953  W2        6009            0.0000000000
     15416      5139  TIP3      H1             -3.3297162818        3.5900648903        6.3860268953  W2        6009            0.0000000000
     15417      5139  TIP3      H2             -2.6749862818        4.8967848903        6.7806068953  W2        6009            0.0000000000
     15418      5140  TIP3      OH2            -4.4801762818       12.7723048903        7.5234868953  W2        6011            0.0000000000
     15419      5140  TIP3      H1             -4.8530662818       11.9466848903        7.8325468953  W2        6011            0.0000000000
     15420      5140  TIP3      H2             -4.2028262818       12.5892448903        6.6258268953  W2        6011            0.0000000000
     15421      5141  TIP3      OH2            -7.3197862818        7.5802548903       14.5446768953  W2        6012            0.0000000000
     15422      5141  TIP3      H1             -8.2480962818        7.3484448903       14.5176068953  W2        6012            0.0000000000
     15423      5141  TIP3      H2             -6.8686762818        6.8032348903       14.2145568953  W2        6012            0.0000000000
     15424      5142  TIP3      OH2           -14.7764762818       11.9084148903       10.6775468953  W2        6013            0.0000000000
     15425      5142  TIP3      H1            -14.2492562818       12.6818548903       10.4774268953  W2        6013            0.0000000000
     15426      5142  TIP3      H2            -15.6566262818       12.1333348903       10.3759468953  W2        6013            0.0000000000
     15427      5143  TIP3      OH2           -19.0217062818        6.7708248903        5.2647868953  W2        6014            0.0000000000
     15428      5143  TIP3      H1            -18.4057162818        7.3975448903        5.6442668953  W2        6014            0.0000000000
     15429      5143  TIP3      H2            -19.8834462818        7.0868048903        5.5364368953  W2        6014            0.0000000000
     15430      5144  TIP3      OH2           -13.3492462818        9.5714048903       10.2539768953  W2        6015            0.0000000000
     15431      5144  TIP3      H1            -13.5902462818       10.4968448903       10.2955068953  W2        6015            0.0000000000
     15432      5144  TIP3      H2            -14.0898862818        9.1125348903       10.6503668953  W2        6015            0.0000000000
     15433      5145  TIP3      OH2           -14.6661662818       14.5931648903        9.7991968953  W2        6017            0.0000000000
     15434      5145  TIP3      H1            -15.6161162818       14.6989048903        9.8505268953  W2        6017            0.0000000000
     15435      5145  TIP3      H2            -14.3143562818       15.4139048903       10.1439468953  W2        6017            0.0000000000
     15436      5146  TIP3      OH2            -7.0876162818       10.7488848903        5.3435468953  W2        6019            0.0000000000
     15437      5146  TIP3      H1             -6.7343062818       10.3688648903        6.1478968953  W2        6019            0.0000000000
     15438      5146  TIP3      H2             -8.0362662818       10.6553648903        5.4304768953  W2        6019            0.0000000000
     15439      5147  TIP3      OH2            -2.5841762818       15.2281348903        5.5445668953  W2        6021            0.0000000000
     15440      5147  TIP3      H1             -1.8403862818       15.8141848903        5.4047268953  W2        6021            0.0000000000
     15441      5147  TIP3      H2             -3.2783662818       15.7967148903        5.8778068953  W2        6021            0.0000000000
     15442      5148  TIP3      OH2            -6.2216862818        9.4210848903        7.5703368953  W2        6023            0.0000000000
     15443      5148  TIP3      H1             -6.4989262818        8.6930148903        8.1264468953  W2        6023            0.0000000000
     15444      5148  TIP3      H2             -5.2943862818        9.5402848903        7.7755968953  W2        6023            0.0000000000
     15445      5149  TIP3      OH2           -12.9968362818       11.8604948903        3.7905468953  W2        6025            0.0000000000
     15446      5149  TIP3      H1            -12.7578562818       11.1123048903        3.2434368953  W2        6025            0.0000000000
     15447      5149  TIP3      H2            -13.2657062818       11.4726648903        4.6233268953  W2        6025            0.0000000000
     15448      5150  TIP3      OH2           -14.0597762818       11.4308748903        6.2468068953  W2        6026            0.0000000000
     15449      5150  TIP3      H1            -13.9129762818       10.9108548903        7.0368968953  W2        6026            0.0000000000
     15450      5150  TIP3      H2            -14.0626062818       12.3376348903        6.5533968953  W2        6026            0.0000000000
     15451      5151  TIP3      OH2           -17.6066662818        8.6832048903        6.7573468953  W2        6027            0.0000000000
     15452      5151  TIP3      H1            -18.2927362818        9.0354548903        7.3243168953  W2        6027            0.0000000000
     15453      5151  TIP3      H2            -17.0838762818        9.4461648903        6.5107768953  W2        6027            0.0000000000
     15454      5152  TIP3      OH2            -8.9906662818        0.9977548903        8.1334768953  W2        6029            0.0000000000
     15455      5152  TIP3      H1             -8.7708362818        1.4692948903        7.3300168953  W2        6029            0.0000000000
     15456      5152  TIP3      H2             -8.4322662818        1.3920148903        8.8035368953  W2        6029            0.0000000000
     15457      5153  TIP3      OH2           -11.3220562818       13.1282348903        6.9962268953  W2        6030            0.0000000000
     15458      5153  TIP3      H1            -12.1384462818       13.6252048903        7.0486568953  W2        6030            0.0000000000
     15459      5153  TIP3      H2            -10.7924262818       13.6035848903        6.3561068953  W2        6030            0.0000000000
     15460      5154  TIP3      OH2           -11.7906762818        2.7256348903        8.9683168953  W2        6031            0.0000000000
     15461      5154  TIP3      H1            -10.9784162818        3.2299548903        9.0144868953  W2        6031            0.0000000000
     15462      5154  TIP3      H2            -12.0353762818        2.5806048903        9.8822768953  W2        6031            0.0000000000
     15463      5155  TIP3      OH2           -10.9070062818       -0.1930651097        9.9064268953  W2        6033            0.0000000000
     15464      5155  TIP3      H1            -11.2536562818        0.4239948903       10.5508568953  W2        6033            0.0000000000
     15465      5155  TIP3      H2            -10.2483162818        0.3075048903        9.4249768953  W2        6033            0.0000000000
     15466      5156  TIP3      OH2           -13.9837462818       14.1719548903        6.9779168953  W2        6034            0.0000000000
     15467      5156  TIP3      H1            -13.8228762818       14.9717048903        6.4771768953  W2        6034            0.0000000000
     15468      5156  TIP3      H2            -14.1809662818       14.4785548903        7.8629768953  W2        6034            0.0000000000
     15469      5157  TIP3      OH2           -15.2493062818        0.8698748903        6.5936768953  W2        6035            0.0000000000
     15470      5157  TIP3      H1            -15.3328262818        1.7581848903        6.9403168953  W2        6035            0.0000000000
     15471      5157  TIP3      H2            -14.3592762818        0.6045448903        6.8253568953  W2        6035            0.0000000000
     15472      5158  TIP3      OH2            -6.4483562818        5.3690348903       13.0836768953  W2        6037            0.0000000000
     15473      5158  TIP3      H1             -7.2459162818        4.9540548903       12.7551768953  W2        6037            0.0000000000
     15474      5158  TIP3      H2             -6.0032462818        4.6784048903       13.5747268953  W2        6037            0.0000000000
     15475      5159  TIP3      OH2           -16.9907762818       11.2970948903        5.6541268953  W2        6038            0.0000000000
     15476      5159  TIP3      H1            -16.3986262818       11.9965748903        5.9303668953  W2        6038            0.0000000000
     15477      5159  TIP3      H2            -16.5314762818       10.8640448903        4.9345868953  W2        6038            0.0000000000
     15478      5160  TIP3      OH2           -18.6748562818        3.9613948903        4.7700668953  W2        6039            0.0000000000
     15479      5160  TIP3      H1            -18.7195962818        4.9007048903        4.9487668953  W2        6039            0.0000000000
     15480      5160  TIP3      H2            -19.5625362818        3.7258848903        4.5002768953  W2        6039            0.0000000000
     15481      5161  TIP3      OH2            -5.3618962818       14.6252848903       14.7060268953  W2        6040            0.0000000000
     15482      5161  TIP3      H1             -5.5174662818       15.3037248903       14.0489568953  W2        6040            0.0000000000
     15483      5161  TIP3      H2             -4.4292562818       14.6972148903       14.9090868953  W2        6040            0.0000000000
     15484      5162  TIP3      OH2           -17.8666562818       -1.2569451097       13.4431668953  W2        6041            0.0000000000
     15485      5162  TIP3      H1            -18.0956762818       -1.1976951097       12.5156668953  W2        6041            0.0000000000
     15486      5162  TIP3      H2            -18.3093162818       -2.0483951097       13.7495768953  W2        6041            0.0000000000
     15487      5163  TIP3      OH2           -18.9363262818       12.6837648903        9.6037468953  W2        6042            0.0000000000
     15488      5163  TIP3      H1            -19.7684662818       13.1560348903        9.6308868953  W2        6042            0.0000000000
     15489      5163  TIP3      H2            -18.3904962818       13.1935248903        9.0050568953  W2        6042            0.0000000000
     15490      5164  TIP3      OH2           -10.9586562818       13.7236348903        3.9291468953  W2        6045            0.0000000000
     15491      5164  TIP3      H1            -11.6025562818       13.0924948903        4.2505168953  W2        6045            0.0000000000
     15492      5164  TIP3      H2            -10.1968262818       13.1924348903        3.6974968953  W2        6045            0.0000000000
     15493      5165  TIP3      OH2            -6.3543662818       13.5406248903        4.1629468953  W2        6047            0.0000000000
     15494      5165  TIP3      H1             -6.0713262818       12.7461448903        4.6156368953  W2        6047            0.0000000000
     15495      5165  TIP3      H2             -5.6145762818       13.7737248903        3.6020568953  W2        6047            0.0000000000
     15496      5166  TIP3      OH2           -15.3996362818        9.4501148903        4.0204368953  W2        6049            0.0000000000
     15497      5166  TIP3      H1            -15.3352262818        8.6560748903        4.5510768953  W2        6049            0.0000000000
     15498      5166  TIP3      H2            -14.7467162818        9.3313948903        3.3306368953  W2        6049            0.0000000000
     15499      5167  TIP3      OH2           -10.0472962818       10.4972848903        3.7562368953  W2        6051            0.0000000000
     15500      5167  TIP3      H1            -10.3158862818       10.6774948903        4.6571268953  W2        6051            0.0000000000
     15501      5167  TIP3      H2            -10.2537362818        9.5719048903        3.6248168953  W2        6051            0.0000000000
     15502      5168  TIP3      OH2           -14.2502562818        7.4227348903        6.3262368953  W2        6054            0.0000000000
     15503      5168  TIP3      H1            -14.7100562818        6.9385648903        7.0120868953  W2        6054            0.0000000000
     15504      5168  TIP3      H2            -13.9953862818        6.7542748903        5.6902868953  W2        6054            0.0000000000
     15505      5169  TIP3      OH2           -13.1792162818        5.6659148903        4.5885568953  W2        6056            0.0000000000
     15506      5169  TIP3      H1            -13.3597162818        5.5110348903        3.6613868953  W2        6056            0.0000000000
     15507      5169  TIP3      H2            -12.2291662818        5.7737848903        4.6333468953  W2        6056            0.0000000000
     15508      5170  TIP3      OH2            -3.7893862818        8.0203348903        4.0343668953  W2        6058            0.0000000000
     15509      5170  TIP3      H1             -4.0629062818        7.5958848903        3.2211968953  W2        6058            0.0000000000
     15510      5170  TIP3      H2             -3.7499762818        8.9517848903        3.8174068953  W2        6058            0.0000000000
     15511      5171  TIP3      OH2           -13.2820462818       16.3562848903        5.5899168953  W2        6072            0.0000000000
     15512      5171  TIP3      H1            -12.3489762818       16.5141548903        5.7337568953  W2        6072            0.0000000000
     15513      5171  TIP3      H2            -13.5461662818       17.0315848903        4.9650668953  W2        6072            0.0000000000
     15514      5172  TIP3      OH2           -19.7135562818       10.9926648903        5.0727268953  W2        6073            0.0000000000
     15515      5172  TIP3      H1            -18.7996362818       11.0715548903        5.3461168953  W2        6073            0.0000000000
     15516      5172  TIP3      H2            -19.7062462818       10.3056248903        4.4062868953  W2        6073            0.0000000000
     15517      5173  TIP3      OH2           -21.0644962818       16.3855148903       10.1501168953  W2        6074            0.0000000000
     15518      5173  TIP3      H1            -21.7117862818       15.9236848903        9.6172368953  W2        6074            0.0000000000
     15519      5173  TIP3      H2            -20.7100362818       15.7138448903       10.7327368953  W2        6074            0.0000000000
     15520      5174  TIP3      OH2           -20.1945762818       14.4662148903       11.9547368953  W2        6075            0.0000000000
     15521      5174  TIP3      H1            -20.5288962818       13.5859448903       12.1267568953  W2        6075            0.0000000000
     15522      5174  TIP3      H2            -19.9723362818       14.8117148903       12.8192968953  W2        6075            0.0000000000
     15523      5175  TIP3      OH2            -3.3311062818        8.8891448903        8.0094068953  W2        6079            0.0000000000
     15524      5175  TIP3      H1             -2.4809662818        9.3102348903        8.1365668953  W2        6079            0.0000000000
     15525      5175  TIP3      H2             -3.3255962818        8.1491548903        8.6165468953  W2        6079            0.0000000000
     15526      5176  TIP3      OH2            -2.9365462818        6.9428848903        9.8329768953  W2        6080            0.0000000000
     15527      5176  TIP3      H1             -3.6630862818        6.4631448903       10.2307368953  W2        6080            0.0000000000
     15528      5176  TIP3      H2             -2.3552162818        7.1483548903       10.5651368953  W2        6080            0.0000000000
     15529      5177  TIP3      OH2            -3.1774262818        9.7276348903       14.7807368953  W2        6081            0.0000000000
     15530      5177  TIP3      H1             -2.3440062818        9.3496348903       14.5000968953  W2        6081            0.0000000000
     15531      5177  TIP3      H2             -3.0653962818       10.6707548903       14.6616468953  W2        6081            0.0000000000
     15532      5178  TIP3      OH2            -2.6682362818        6.8437348903        6.2241068953  W2        6083            0.0000000000
     15533      5178  TIP3      H1             -3.1901262818        7.2001448903        5.5051968953  W2        6083            0.0000000000
     15534      5178  TIP3      H2             -2.7013162818        7.5185148903        6.9021968953  W2        6083            0.0000000000
     15535      5179  TIP3      OH2            -4.3193362818        4.0832948903        4.7748168953  W2        6084            0.0000000000
     15536      5179  TIP3      H1             -4.2228962818        4.7499948903        4.0947868953  W2        6084            0.0000000000
     15537      5179  TIP3      H2             -4.4593762818        3.2679248903        4.2933668953  W2        6084            0.0000000000
     15538      5180  TIP3      OH2            -5.1498662818        5.4635348903       10.3958468953  W2        6085            0.0000000000
     15539      5180  TIP3      H1             -5.2999862818        4.5183948903       10.3756268953  W2        6085            0.0000000000
     15540      5180  TIP3      H2             -5.5034162818        5.7446748903       11.2397568953  W2        6085            0.0000000000
     15541      5181  TIP3      OH2           -20.1146262818        7.5417548903       14.4062268953  W2        6086            0.0000000000
     15542      5181  TIP3      H1            -19.9303362818        7.4599248903       13.4705168953  W2        6086            0.0000000000
     15543      5181  TIP3      H2            -19.2653362818        7.4174548903       14.8298668953  W2        6086            0.0000000000
     15544      5182  TIP3      OH2            -5.0719562818        1.4912748903        3.8923668953  W2        6089            0.0000000000
     15545      5182  TIP3      H1             -4.4613762818        1.1199548903        4.5291868953  W2        6089            0.0000000000
     15546      5182  TIP3      H2             -5.9088062818        1.0699648903        4.0883668953  W2        6089            0.0000000000
     15547      5183  TIP3      OH2            -5.4393862818        3.0461148903        8.8583568953  W2        6090            0.0000000000
     15548      5183  TIP3      H1             -5.1596762818        2.1391548903        8.9825268953  W2        6090            0.0000000000
     15549      5183  TIP3      H2             -4.6802162818        3.4802648903        8.4692768953  W2        6090            0.0000000000
     15550      5184  TIP3      OH2            -4.8275562818        3.6278548903       14.2942468953  W2        6091            0.0000000000
     15551      5184  TIP3      H1             -3.8947562818        3.8398448903       14.2598468953  W2        6091            0.0000000000
     15552      5184  TIP3      H2             -5.0628062818        3.7290648903       15.2165468953  W2        6091            0.0000000000
     15553      5185  TIP3      OH2            -4.8259062818        0.3090448903        8.9065568953  W2        6095            0.0000000000
     15554      5185  TIP3      H1             -4.6434062818       -0.1398051097        9.7320568953  W2        6095            0.0000000000
     15555      5185  TIP3      H2             -5.4256162818       -0.2755151097        8.4430168953  W2        6095            0.0000000000
     15556      5186  TIP3      OH2           -19.2958962818        1.1244148903       13.4383968953  W2        6096            0.0000000000
     15557      5186  TIP3      H1            -18.8507362818        0.3326648903       13.7403668953  W2        6096            0.0000000000
     15558      5186  TIP3      H2            -18.8295962818        1.8409348903       13.8689568953  W2        6096            0.0000000000
     15559      5187  TIP3      OH2           -20.9918662818        4.1237148903       14.5074168953  W2        6097            0.0000000000
     15560      5187  TIP3      H1            -20.4998862818        3.9027648903       13.7166168953  W2        6097            0.0000000000
     15561      5187  TIP3      H2            -20.6297762818        4.9640548903       14.7883668953  W2        6097            0.0000000000
     15562      5188  TIP3      OH2            -2.9592862818        0.3768548903        5.4345868953  W2        6099            0.0000000000
     15563      5188  TIP3      H1             -2.5470262818       -0.3445751097        4.9593868953  W2        6099            0.0000000000
     15564      5188  TIP3      H2             -2.2776362818        1.0463148903        5.4930168953  W2        6099            0.0000000000
     15565      5189  TIP3      OH2           -20.6782162818        0.3816248903        8.5616568953  W2        6100            0.0000000000
     15566      5189  TIP3      H1            -21.6033762818        0.5902848903        8.4322068953  W2        6100            0.0000000000
     15567      5189  TIP3      H2            -20.2242262818        0.8657048903        7.8718868953  W2        6100            0.0000000000
     15568      5190  TIP3      OH2            -5.9074962818       15.3657948903       10.5073968953  W2        6101            0.0000000000
     15569      5190  TIP3      H1             -5.2552062818       15.0180048903        9.8993068953  W2        6101            0.0000000000
     15570      5190  TIP3      H2             -5.3971162818       15.8541148903       11.1533668953  W2        6101            0.0000000000
     15571      5191  TIP3      OH2           -18.7519762818       15.1486948903       14.2665968953  W2        6113            0.0000000000
     15572      5191  TIP3      H1            -18.7703762818       14.7232048903       15.1238268953  W2        6113            0.0000000000
     15573      5191  TIP3      H2            -17.9471862818       14.8301948903       13.8578168953  W2        6113            0.0000000000
     15574      5192  TIP3      OH2           -16.6106662818       13.8585648903       12.9215868953  W2        6114            0.0000000000
     15575      5192  TIP3      H1            -16.8295962818       12.9423048903       13.0911868953  W2        6114            0.0000000000
     15576      5192  TIP3      H2            -15.7864462818       13.9986048903       13.3877268953  W2        6114            0.0000000000
     15577      5193  TIP3      OH2           -14.0734162818       14.3284948903       13.7703868953  W2        6115            0.0000000000
     15578      5193  TIP3      H1            -13.8608462818       13.4403948903       13.4834768953  W2        6115            0.0000000000
     15579      5193  TIP3      H2            -14.0089062818       14.2942648903       14.7247868953  W2        6115            0.0000000000
     15580      5194  TIP3      OH2           -10.5650462818       -0.0074451097       12.9147168953  W2        6116            0.0000000000
     15581      5194  TIP3      H1            -11.2393662818       -0.6368851097       13.1702968953  W2        6116            0.0000000000
     15582      5194  TIP3      H2            -10.0011262818       -0.4915551097       12.3115068953  W2        6116            0.0000000000
     15583      5195  TIP3      OH2            -5.4223262818       -1.9000451097       13.0274268953  W2        6117            0.0000000000
     15584      5195  TIP3      H1             -4.8185662818       -1.3525051097       12.5255268953  W2        6117            0.0000000000
     15585      5195  TIP3      H2             -6.2921262818       -1.5810051097       12.7868368953  W2        6117            0.0000000000
     15586      5196  TIP3      OH2            -3.6952862818       -0.7611751097       11.3605168953  W2        6118            0.0000000000
     15587      5196  TIP3      H1             -3.0835362818       -1.2756051097       10.8338768953  W2        6118            0.0000000000
     15588      5196  TIP3      H2             -3.3129462818        0.1160348903       11.3839568953  W2        6118            0.0000000000
     15589      5197  TIP3      OH2           -18.2382962818       -1.3734151097       10.7367068953  W2        6119            0.0000000000
     15590      5197  TIP3      H1            -19.0153162818       -1.6079251097       10.2292968953  W2        6119            0.0000000000
     15591      5197  TIP3      H2            -17.7079362818       -2.1702051097       10.7455068953  W2        6119            0.0000000000
     15592      5198  TIP3      OH2           -19.4019562818       -1.5756051097        6.5403168953  W2        6120            0.0000000000
     15593      5198  TIP3      H1            -18.9628862818       -0.9645551097        5.9486668953  W2        6120            0.0000000000
     15594      5198  TIP3      H2            -20.0357162818       -1.0371951097        7.0143168953  W2        6120            0.0000000000
     15595      5199  TIP3      OH2           -13.6590362818       -1.4467051097       10.5500168953  W2        6121            0.0000000000
     15596      5199  TIP3      H1            -12.7846962818       -1.0582751097       10.5204468953  W2        6121            0.0000000000
     15597      5199  TIP3      H2            -13.7949562818       -1.6619251097       11.4727368953  W2        6121            0.0000000000
     15598      5200  TIP3      OH2            -8.1021962818       -1.4167251097       12.1991868953  W2        6122            0.0000000000
     15599      5200  TIP3      H1             -8.0260362818       -1.3215651097       11.2497868953  W2        6122            0.0000000000
     15600      5200  TIP3      H2             -8.3772762818       -2.3244351097       12.3280968953  W2        6122            0.0000000000
     15601      5201  TIP3      OH2            -6.7489362818       -1.3909451097        7.8916868953  W2        6123            0.0000000000
     15602      5201  TIP3      H1             -7.4518262818       -0.7760251097        7.6818268953  W2        6123            0.0000000000
     15603      5201  TIP3      H2             -7.1937962818       -2.2282751097        8.0227768953  W2        6123            0.0000000000
     15604      5202  TIP3      OH2           -19.5010062818       14.3726148903        7.4378268953  W2        6124            0.0000000000
     15605      5202  TIP3      H1            -20.1860162818       14.3345048903        6.7703368953  W2        6124            0.0000000000
     15606      5202  TIP3      H2            -19.4972862818       15.2853748903        7.7260368953  W2        6124            0.0000000000
     15607      5203  TIP3      OH2           -17.5410462818        0.3405448903        4.9827268953  W2        6125            0.0000000000
     15608      5203  TIP3      H1            -17.0497062818       -0.2892151097        4.4552768953  W2        6125            0.0000000000
     15609      5203  TIP3      H2            -16.9174162818        0.6364848903        5.6458468953  W2        6125            0.0000000000
     15610      5204  TIP3      OH2           -12.5150362818        0.6336948903        7.4397768953  W2        6126            0.0000000000
     15611      5204  TIP3      H1            -12.3369062818       -0.0129851097        8.1226368953  W2        6126            0.0000000000
     15612      5204  TIP3      H2            -12.5684162818        1.4674648903        7.9068868953  W2        6126            0.0000000000
     15613      5205  TIP3      OH2           -10.6366562818       15.5821048903        5.8354468953  W2        6127            0.0000000000
     15614      5205  TIP3      H1             -9.7706362818       15.9488448903        5.6572668953  W2        6127            0.0000000000
     15615      5205  TIP3      H2            -10.8833762818       15.1429048903        5.0215268953  W2        6127            0.0000000000
     15616      5206  TIP3      OH2            -3.9276962818       15.1451348903        8.5145568953  W2        6128            0.0000000000
     15617      5206  TIP3      H1             -4.1219862818       14.3973448903        7.9495168953  W2        6128            0.0000000000
     15618      5206  TIP3      H2             -3.9666862818       15.9031448903        7.9313468953  W2        6128            0.0000000000
     15619      5207  TIP3      OH2           -17.6828862818       15.2926948903        4.4630368953  W2        6131            0.0000000000
     15620      5207  TIP3      H1            -17.9504262818       15.5789848903        5.3363468953  W2        6131            0.0000000000
     15621      5207  TIP3      H2            -16.9116262818       14.7466148903        4.6152868953  W2        6131            0.0000000000
     15622      5208  TIP3      OH2             9.6959637182        7.7828148903       10.6954568953  W2        6134            0.0000000000
     15623      5208  TIP3      H1              9.7850737182        8.7266348903       10.5631668953  W2        6134            0.0000000000
     15624      5208  TIP3      H2              9.0577237182        7.5074548903       10.0373968953  W2        6134            0.0000000000
     15625      5209  TIP3      OH2             8.6290937182        7.0378848903       14.1142768953  W2        6135            0.0000000000
     15626      5209  TIP3      H1              8.5908437182        6.3915148903       14.8192368953  W2        6135            0.0000000000
     15627      5209  TIP3      H2              8.3067437182        6.5713248903       13.3431468953  W2        6135            0.0000000000
     15628      5210  TIP3      OH2            12.3351137182        9.9769248903       12.4157868953  W2        6137            0.0000000000
     15629      5210  TIP3      H1             11.8943837182        9.2565248903       12.8663468953  W2        6137            0.0000000000
     15630      5210  TIP3      H2             12.3220837182       10.6976448903       13.0455568953  W2        6137            0.0000000000
     15631      5211  TIP3      OH2             1.9209037182       11.1019848903       14.2421768953  W2        6138            0.0000000000
     15632      5211  TIP3      H1              1.5514237182       10.3000348903       13.8726068953  W2        6138            0.0000000000
     15633      5211  TIP3      H2              2.8620137182       10.9334748903       14.2885168953  W2        6138            0.0000000000
     15634      5212  TIP3      OH2            -1.4690462818        4.7622448903        9.6350568953  W2        6139            0.0000000000
     15635      5212  TIP3      H1             -1.9167062818        5.6081148903        9.6167068953  W2        6139            0.0000000000
     15636      5212  TIP3      H2             -2.0299262818        4.1826648903        9.1195668953  W2        6139            0.0000000000
     15637      5213  TIP3      OH2            -0.7584362818        6.9242048903       11.7608568953  W2        6140            0.0000000000
     15638      5213  TIP3      H1             -0.5450862818        6.1543648903       12.2881568953  W2        6140            0.0000000000
     15639      5213  TIP3      H2             -0.0206762818        7.0138748903       11.1576168953  W2        6140            0.0000000000
     15640      5214  TIP3      OH2             9.4466637182       15.0810948903       12.6278268953  W2        6141            0.0000000000
     15641      5214  TIP3      H1             10.0663037182       14.4045648903       12.3547468953  W2        6141            0.0000000000
     15642      5214  TIP3      H2              9.2384037182       14.8631748903       13.5363168953  W2        6141            0.0000000000
     15643      5215  TIP3      OH2             7.0185337182        9.4700248903       14.5203768953  W2        6142            0.0000000000
     15644      5215  TIP3      H1              7.3223237182        8.7841648903       13.9257868953  W2        6142            0.0000000000
     15645      5215  TIP3      H2              7.7399337182        9.5888948903       15.1381768953  W2        6142            0.0000000000
     15646      5216  TIP3      OH2            10.1592337182        3.8642648903       14.8478568953  W2        6144            0.0000000000
     15647      5216  TIP3      H1             10.3018237182        2.9179648903       14.8680168953  W2        6144            0.0000000000
     15648      5216  TIP3      H2             10.0531337182        4.0712448903       13.9193468953  W2        6144            0.0000000000
     15649      5217  TIP3      OH2             3.3140637182        1.9659048903       12.1203368953  W2        6145            0.0000000000
     15650      5217  TIP3      H1              3.3571737182        2.8257548903       11.7019668953  W2        6145            0.0000000000
     15651      5217  TIP3      H2              2.8564737182        1.4133748903       11.4866568953  W2        6145            0.0000000000
     15652      5218  TIP3      OH2            11.0363337182        2.0964648903       10.5211668953  W2        6146            0.0000000000
     15653      5218  TIP3      H1             11.6827637182        1.7677848903       11.1459268953  W2        6146            0.0000000000
     15654      5218  TIP3      H2             11.5462737182        2.6143648903        9.8983068953  W2        6146            0.0000000000
     15655      5219  TIP3      OH2            -0.0657862818        4.3624848903       12.8824768953  W2        6147            0.0000000000
     15656      5219  TIP3      H1              0.5878737182        3.8126548903       13.3144868953  W2        6147            0.0000000000
     15657      5219  TIP3      H2             -0.0418562818        4.0883848903       11.9656768953  W2        6147            0.0000000000
     15658      5220  TIP3      OH2             5.0906637182        5.9126148903       12.0976268953  W2        6148            0.0000000000
     15659      5220  TIP3      H1              5.7067637182        5.3861548903       12.6070268953  W2        6148            0.0000000000
     15660      5220  TIP3      H2              4.5045437182        5.2724848903       11.6939868953  W2        6148            0.0000000000
     15661      5221  TIP3      OH2             9.4932337182       10.3838548903        9.7383268953  W2        6151            0.0000000000
     15662      5221  TIP3      H1              9.1977437182       10.0610848903        8.8870168953  W2        6151            0.0000000000
     15663      5221  TIP3      H2              9.1690137182       11.2835248903        9.7795868953  W2        6151            0.0000000000
     15664      5222  TIP3      OH2            12.8001737182        1.3873948903       12.5017568953  W2        6153            0.0000000000
     15665      5222  TIP3      H1             12.5849737182        0.6217348903       13.0343568953  W2        6153            0.0000000000
     15666      5222  TIP3      H2             13.4559137182        1.8598548903       13.0146068953  W2        6153            0.0000000000
     15667      5223  TIP3      OH2             1.7179837182        2.7759248903       14.1466368953  W2        6154            0.0000000000
     15668      5223  TIP3      H1              2.3316137182        3.4086848903       14.5198768953  W2        6154            0.0000000000
     15669      5223  TIP3      H2              2.2300537182        2.3034248903       13.4903268953  W2        6154            0.0000000000
     15670      5224  TIP3      OH2            -0.7780862818       10.1944048903        8.0508668953  W2        6156            0.0000000000
     15671      5224  TIP3      H1             -1.0499962818       10.4235048903        7.1621568953  W2        6156            0.0000000000
     15672      5224  TIP3      H2             -0.7325162818       11.0322848903        8.5113968953  W2        6156            0.0000000000
     15673      5225  TIP3      OH2            12.8468837182       11.8159948903       14.7637168953  W2        6157            0.0000000000
     15674      5225  TIP3      H1             11.9052537182       11.8743848903       14.9254068953  W2        6157            0.0000000000
     15675      5225  TIP3      H2             13.1234937182       12.7220448903       14.6266868953  W2        6157            0.0000000000
     15676      5226  TIP3      OH2             6.1507237182       -1.8107451097       13.6469068953  W2        6159            0.0000000000
     15677      5226  TIP3      H1              6.0331437182       -2.7591451097       13.5927368953  W2        6159            0.0000000000
     15678      5226  TIP3      H2              5.2957337182       -1.4781351097       13.9200168953  W2        6159            0.0000000000
     15679      5227  TIP3      OH2            11.0990037182       13.5973448903       11.3888768953  W2        6160            0.0000000000
     15680      5227  TIP3      H1             11.5242337182       12.8901348903       10.9038368953  W2        6160            0.0000000000
     15681      5227  TIP3      H2             11.4160037182       14.3986148903       10.9720968953  W2        6160            0.0000000000
     15682      5228  TIP3      OH2            12.2586537182       11.4981948903        9.8975368953  W2        6161            0.0000000000
     15683      5228  TIP3      H1             12.0011337182       10.8082048903        9.2861268953  W2        6161            0.0000000000
     15684      5228  TIP3      H2             12.3297337182       11.0553148903       10.7431268953  W2        6161            0.0000000000
     15685      5229  TIP3      OH2             8.4172137182        7.0268148903        8.1474868953  W2        6163            0.0000000000
     15686      5229  TIP3      H1              7.7057637182        7.5617848903        7.7955368953  W2        6163            0.0000000000
     15687      5229  TIP3      H2              9.1081737182        7.0820248903        7.4873768953  W2        6163            0.0000000000
     15688      5230  TIP3      OH2             8.4711337182        5.4842448903        5.1859868953  W2        6164            0.0000000000
     15689      5230  TIP3      H1              9.1721237182        5.5069348903        5.8373868953  W2        6164            0.0000000000
     15690      5230  TIP3      H2              8.7734237182        4.8562148903        4.5299168953  W2        6164            0.0000000000
     15691      5231  TIP3      OH2            11.8229837182        7.2361448903        9.0990768953  W2        6166            0.0000000000
     15692      5231  TIP3      H1             11.0910837182        7.4645148903        9.6721368953  W2        6166            0.0000000000
     15693      5231  TIP3      H2             12.2702037182        6.5224148903        9.5538268953  W2        6166            0.0000000000
     15694      5232  TIP3      OH2             3.4683537182        7.8667648903       10.9815768953  W2        6168            0.0000000000
     15695      5232  TIP3      H1              3.1378737182        7.4961048903       10.1632768953  W2        6168            0.0000000000
     15696      5232  TIP3      H2              4.0567637182        7.1961648903       11.3284068953  W2        6168            0.0000000000
     15697      5233  TIP3      OH2             4.8351037182       11.2948248903       13.6627968953  W2        6169            0.0000000000
     15698      5233  TIP3      H1              4.7402337182       10.7161348903       12.9062568953  W2        6169            0.0000000000
     15699      5233  TIP3      H2              5.5644637182       10.9233948903       14.1590768953  W2        6169            0.0000000000
     15700      5234  TIP3      OH2             3.8349037182        6.6353248903       14.6150768953  W2        6170            0.0000000000
     15701      5234  TIP3      H1              4.4001537182        6.7567448903       13.8521968953  W2        6170            0.0000000000
     15702      5234  TIP3      H2              4.1537937182        7.2728248903       15.2539268953  W2        6170            0.0000000000
     15703      5235  TIP3      OH2            10.6939337182        6.3984348903        6.7841968953  W2        6173            0.0000000000
     15704      5235  TIP3      H1             11.2734837182        6.5484648903        7.5310868953  W2        6173            0.0000000000
     15705      5235  TIP3      H2             11.1079337182        6.8691748903        6.0608368953  W2        6173            0.0000000000
     15706      5236  TIP3      OH2             8.4204237182       13.1352848903       10.2195068953  W2        6175            0.0000000000
     15707      5236  TIP3      H1              8.8941837182       13.4309148903       10.9969268953  W2        6175            0.0000000000
     15708      5236  TIP3      H2              7.8573537182       13.8734448903        9.9864668953  W2        6175            0.0000000000
     15709      5237  TIP3      OH2            14.3927737182       -1.8515251097        6.5971668953  W2        6177            0.0000000000
     15710      5237  TIP3      H1             13.4928437182       -1.7126251097        6.8922268953  W2        6177            0.0000000000
     15711      5237  TIP3      H2             14.6446137182       -1.0200651097        6.1953368953  W2        6177            0.0000000000
     15712      5238  TIP3      OH2             2.4586237182        6.9361948903        8.5708568953  W2        6178            0.0000000000
     15713      5238  TIP3      H1              2.1667537182        7.7043648903        8.0799868953  W2        6178            0.0000000000
     15714      5238  TIP3      H2              1.7841437182        6.2768148903        8.4079968953  W2        6178            0.0000000000
     15715      5239  TIP3      OH2            15.5819137182       12.5147148903        4.9735568953  W2        6179            0.0000000000
     15716      5239  TIP3      H1             15.6552637182       13.4537348903        5.1440868953  W2        6179            0.0000000000
     15717      5239  TIP3      H2             16.4874237182       12.2095748903        4.9172868953  W2        6179            0.0000000000
     15718      5240  TIP3      OH2            -1.6980962818       12.0794948903       14.2698568953  W2        6181            0.0000000000
     15719      5240  TIP3      H1             -0.7520362818       11.9351948903       14.2508068953  W2        6181            0.0000000000
     15720      5240  TIP3      H2             -1.8104662818       12.8637748903       14.8069768953  W2        6181            0.0000000000
     15721      5241  TIP3      OH2             7.8927337182       16.0917548903        8.6344268953  W2        6184            0.0000000000
     15722      5241  TIP3      H1              7.8173337182       15.9704748903        7.6879468953  W2        6184            0.0000000000
     15723      5241  TIP3      H2              7.9256037182       17.0410248903        8.7528868953  W2        6184            0.0000000000
     15724      5242  TIP3      OH2             1.5461137182       14.8804548903       10.4153268953  W2        6185            0.0000000000
     15725      5242  TIP3      H1              1.6981537182       14.5324948903       11.2939768953  W2        6185            0.0000000000
     15726      5242  TIP3      H2              0.6951537182       14.5241848903       10.1600468953  W2        6185            0.0000000000
     15727      5243  TIP3      OH2            10.9943337182       15.2457748903        5.6366668953  W2        6186            0.0000000000
     15728      5243  TIP3      H1             11.3691737182       14.5013848903        5.1659268953  W2        6186            0.0000000000
     15729      5243  TIP3      H2             10.9987037182       14.9758348903        6.5549968953  W2        6186            0.0000000000
     15730      5244  TIP3      OH2            10.6631437182       15.1714848903        8.3858868953  W2        6187            0.0000000000
     15731      5244  TIP3      H1              9.7281237182       15.2716748903        8.5645868953  W2        6187            0.0000000000
     15732      5244  TIP3      H2             10.9433337182       14.4620848903        8.9642068953  W2        6187            0.0000000000
     15733      5245  TIP3      OH2             3.4194837182       -0.9072951097       14.4245368953  W2        6190            0.0000000000
     15734      5245  TIP3      H1              2.5578537182       -0.9944751097       14.0168268953  W2        6190            0.0000000000
     15735      5245  TIP3      H2              3.3970537182       -0.0512851097       14.8522968953  W2        6190            0.0000000000
     15736      5246  TIP3      OH2            12.1712437182        7.4312648903        4.4139868953  W2        6193            0.0000000000
     15737      5246  TIP3      H1             12.2133237182        7.2086548903        3.4839868953  W2        6193            0.0000000000
     15738      5246  TIP3      H2             13.0204537182        7.8299748903        4.6039768953  W2        6193            0.0000000000
     15739      5247  TIP3      OH2             7.7439937182        1.3070848903        5.0843168953  W2        6194            0.0000000000
     15740      5247  TIP3      H1              7.4904737182        1.3262448903        6.0071268953  W2        6194            0.0000000000
     15741      5247  TIP3      H2              7.4872037182        0.4356248903        4.7829368953  W2        6194            0.0000000000
     15742      5248  TIP3      OH2             3.5074037182        4.2791648903       10.4315568953  W2        6196            0.0000000000
     15743      5248  TIP3      H1              2.6146937182        3.9387748903       10.3729368953  W2        6196            0.0000000000
     15744      5248  TIP3      H2              3.9580637182        3.9022548903        9.6758768953  W2        6196            0.0000000000
     15745      5249  TIP3      OH2             9.0429537182        4.6951948903        9.2486368953  W2        6197            0.0000000000
     15746      5249  TIP3      H1              8.6339837182        5.5100548903        8.9571168953  W2        6197            0.0000000000
     15747      5249  TIP3      H2              9.7635737182        4.5552048903        8.6343468953  W2        6197            0.0000000000
     15748      5250  TIP3      OH2            10.0477237182        4.1412348903       12.0626068953  W2        6199            0.0000000000
     15749      5250  TIP3      H1              9.8521737182        4.7469148903       11.3476668953  W2        6199            0.0000000000
     15750      5250  TIP3      H2             10.2289837182        3.3077548903       11.6282368953  W2        6199            0.0000000000
     15751      5251  TIP3      OH2             4.6262837182        1.7527348903        4.1853568953  W2        6201            0.0000000000
     15752      5251  TIP3      H1              4.1953537182        1.3077448903        4.9150968953  W2        6201            0.0000000000
     15753      5251  TIP3      H2              3.9081537182        2.1243648903        3.6731068953  W2        6201            0.0000000000
     15754      5252  TIP3      OH2            -2.1313762818        1.4946848903       11.2372268953  W2        6202            0.0000000000
     15755      5252  TIP3      H1             -1.5006062818        1.4658948903       11.9566168953  W2        6202            0.0000000000
     15756      5252  TIP3      H2             -1.6819462818        1.0695548903       10.5068168953  W2        6202            0.0000000000
     15757      5253  TIP3      OH2            -0.8571662818        2.2408848903        6.6612668953  W2        6203            0.0000000000
     15758      5253  TIP3      H1             -0.3829962818        2.8318748903        6.0763568953  W2        6203            0.0000000000
     15759      5253  TIP3      H2             -1.5745262818        2.7711748903        7.0082768953  W2        6203            0.0000000000
     15760      5254  TIP3      OH2             6.0889337182        1.7069148903       11.5179668953  W2        6205            0.0000000000
     15761      5254  TIP3      H1              5.1780437182        1.7635948903       11.8065668953  W2        6205            0.0000000000
     15762      5254  TIP3      H2              6.5942237182        1.6464648903       12.3286868953  W2        6205            0.0000000000
     15763      5255  TIP3      OH2             0.9172737182        3.3355448903       10.3447268953  W2        6206            0.0000000000
     15764      5255  TIP3      H1              0.0280737182        3.4350948903       10.0046868953  W2        6206            0.0000000000
     15765      5255  TIP3      H2              1.2137637182        2.4938448903        9.9985168953  W2        6206            0.0000000000
     15766      5256  TIP3      OH2             4.5704537182        3.3358048903        8.0011868953  W2        6207            0.0000000000
     15767      5256  TIP3      H1              5.5020037182        3.4648048903        8.1794968953  W2        6207            0.0000000000
     15768      5256  TIP3      H2              4.3554837182        4.0052348903        7.3516568953  W2        6207            0.0000000000
     15769      5257  TIP3      OH2            10.4941237182        0.9415448903       14.7821468953  W2        6208            0.0000000000
     15770      5257  TIP3      H1              9.8172837182        1.0728548903       15.4461168953  W2        6208            0.0000000000
     15771      5257  TIP3      H2             10.0086137182        0.7864948903       13.9719168953  W2        6208            0.0000000000
     15772      5258  TIP3      OH2             3.2444737182        4.5300248903        5.5677968953  W2        6209            0.0000000000
     15773      5258  TIP3      H1              2.7019837182        4.1504048903        4.8765568953  W2        6209            0.0000000000
     15774      5258  TIP3      H2              4.0779637182        4.7244948903        5.1392068953  W2        6209            0.0000000000
     15775      5259  TIP3      OH2             7.4089037182        4.4942148903       13.4049268953  W2        6212            0.0000000000
     15776      5259  TIP3      H1              7.9732437182        3.9478748903       12.8578868953  W2        6212            0.0000000000
     15777      5259  TIP3      H2              7.2612437182        3.9724048903       14.1936868953  W2        6212            0.0000000000
     15778      5260  TIP3      OH2             2.4108737182        0.6308248903        9.8234068953  W2        6213            0.0000000000
     15779      5260  TIP3      H1              2.0938237182       -0.2716451097        9.7879468953  W2        6213            0.0000000000
     15780      5260  TIP3      H2              3.1922837182        0.6325648903        9.2705668953  W2        6213            0.0000000000
     15781      5261  TIP3      OH2             6.5797537182        9.0955948903        7.5036068953  W2        6215            0.0000000000
     15782      5261  TIP3      H1              5.8348537182        8.5881248903        7.1813968953  W2        6215            0.0000000000
     15783      5261  TIP3      H2              6.4454737182        9.1443948903        8.4500868953  W2        6215            0.0000000000
     15784      5262  TIP3      OH2            10.4774337182        1.9095848903        5.7028668953  W2        6217            0.0000000000
     15785      5262  TIP3      H1              9.5388537182        2.0211448903        5.5517468953  W2        6217            0.0000000000
     15786      5262  TIP3      H2             10.7746437182        2.7662748903        6.0094368953  W2        6217            0.0000000000
     15787      5263  TIP3      OH2            11.1957837182        3.7768548903        7.3636068953  W2        6219            0.0000000000
     15788      5263  TIP3      H1             12.0876837182        3.6393548903        7.6827268953  W2        6219            0.0000000000
     15789      5263  TIP3      H2             11.2521437182        4.5674648903        6.8269568953  W2        6219            0.0000000000
     15790      5264  TIP3      OH2             1.7045837182        8.3905948903       13.2733968953  W2        6220            0.0000000000
     15791      5264  TIP3      H1              2.4493037182        8.3881648903       12.6720468953  W2        6220            0.0000000000
     15792      5264  TIP3      H2              1.7822437182        7.5669748903       13.7549068953  W2        6220            0.0000000000
     15793      5265  TIP3      OH2             8.7051637182       10.5540248903        6.5290668953  W2        6221            0.0000000000
     15794      5265  TIP3      H1              8.4100037182       11.3808148903        6.9105468953  W2        6221            0.0000000000
     15795      5265  TIP3      H2              8.0021637182        9.9347148903        6.7252068953  W2        6221            0.0000000000
     15796      5266  TIP3      OH2            16.0806537182        3.9862648903        7.0582768953  W2        6225            0.0000000000
     15797      5266  TIP3      H1             15.5262837182        3.5900648903        6.3860268953  W2        6225            0.0000000000
     15798      5266  TIP3      H2             16.1810137182        4.8967848903        6.7806068953  W2        6225            0.0000000000
     15799      5267  TIP3      OH2            14.3758237182       12.7723048903        7.5234868953  W2        6227            0.0000000000
     15800      5267  TIP3      H1             14.0029337182       11.9466848903        7.8325468953  W2        6227            0.0000000000
     15801      5267  TIP3      H2             14.6531737182       12.5892448903        6.6258268953  W2        6227            0.0000000000
     15802      5268  TIP3      OH2            11.5362137182        7.5802548903       14.5446768953  W2        6228            0.0000000000
     15803      5268  TIP3      H1             10.6079037182        7.3484448903       14.5176068953  W2        6228            0.0000000000
     15804      5268  TIP3      H2             11.9873237182        6.8032348903       14.2145568953  W2        6228            0.0000000000
     15805      5269  TIP3      OH2             4.0795237182       11.9084148903       10.6775468953  W2        6229            0.0000000000
     15806      5269  TIP3      H1              4.6067437182       12.6818548903       10.4774268953  W2        6229            0.0000000000
     15807      5269  TIP3      H2              3.1993737182       12.1333348903       10.3759468953  W2        6229            0.0000000000
     15808      5270  TIP3      OH2            -0.1657062818        6.7708248903        5.2647868953  W2        6230            0.0000000000
     15809      5270  TIP3      H1              0.4502837182        7.3975448903        5.6442668953  W2        6230            0.0000000000
     15810      5270  TIP3      H2             -1.0274462818        7.0868048903        5.5364368953  W2        6230            0.0000000000
     15811      5271  TIP3      OH2             5.5067537182        9.5714048903       10.2539768953  W2        6231            0.0000000000
     15812      5271  TIP3      H1              5.2657537182       10.4968448903       10.2955068953  W2        6231            0.0000000000
     15813      5271  TIP3      H2              4.7661137182        9.1125348903       10.6503668953  W2        6231            0.0000000000
     15814      5272  TIP3      OH2             4.1898337182       14.5931648903        9.7991968953  W2        6233            0.0000000000
     15815      5272  TIP3      H1              3.2398837182       14.6989048903        9.8505268953  W2        6233            0.0000000000
     15816      5272  TIP3      H2              4.5416437182       15.4139048903       10.1439468953  W2        6233            0.0000000000
     15817      5273  TIP3      OH2            11.7683837182       10.7488848903        5.3435468953  W2        6235            0.0000000000
     15818      5273  TIP3      H1             12.1216937182       10.3688648903        6.1478968953  W2        6235            0.0000000000
     15819      5273  TIP3      H2             10.8197337182       10.6553648903        5.4304768953  W2        6235            0.0000000000
     15820      5274  TIP3      OH2            16.2718237182       15.2281348903        5.5445668953  W2        6237            0.0000000000
     15821      5274  TIP3      H1             17.0156137182       15.8141848903        5.4047268953  W2        6237            0.0000000000
     15822      5274  TIP3      H2             15.5776337182       15.7967148903        5.8778068953  W2        6237            0.0000000000
     15823      5275  TIP3      OH2            12.6343137182        9.4210848903        7.5703368953  W2        6239            0.0000000000
     15824      5275  TIP3      H1             12.3570737182        8.6930148903        8.1264468953  W2        6239            0.0000000000
     15825      5275  TIP3      H2             13.5616137182        9.5402848903        7.7755968953  W2        6239            0.0000000000
     15826      5276  TIP3      OH2             5.8591637182       11.8604948903        3.7905468953  W2        6241            0.0000000000
     15827      5276  TIP3      H1              6.0981437182       11.1123048903        3.2434368953  W2        6241            0.0000000000
     15828      5276  TIP3      H2              5.5902937182       11.4726648903        4.6233268953  W2        6241            0.0000000000
     15829      5277  TIP3      OH2             4.7962237182       11.4308748903        6.2468068953  W2        6242            0.0000000000
     15830      5277  TIP3      H1              4.9430237182       10.9108548903        7.0368968953  W2        6242            0.0000000000
     15831      5277  TIP3      H2              4.7933937182       12.3376348903        6.5533968953  W2        6242            0.0000000000
     15832      5278  TIP3      OH2             1.2493337182        8.6832048903        6.7573468953  W2        6243            0.0000000000
     15833      5278  TIP3      H1              0.5632637182        9.0354548903        7.3243168953  W2        6243            0.0000000000
     15834      5278  TIP3      H2              1.7721237182        9.4461648903        6.5107768953  W2        6243            0.0000000000
     15835      5279  TIP3      OH2             9.8653337182        0.9977548903        8.1334768953  W2        6245            0.0000000000
     15836      5279  TIP3      H1             10.0851637182        1.4692948903        7.3300168953  W2        6245            0.0000000000
     15837      5279  TIP3      H2             10.4237337182        1.3920148903        8.8035368953  W2        6245            0.0000000000
     15838      5280  TIP3      OH2             7.5339437182       13.1282348903        6.9962268953  W2        6246            0.0000000000
     15839      5280  TIP3      H1              6.7175537182       13.6252048903        7.0486568953  W2        6246            0.0000000000
     15840      5280  TIP3      H2              8.0635737182       13.6035848903        6.3561068953  W2        6246            0.0000000000
     15841      5281  TIP3      OH2             7.0653237182        2.7256348903        8.9683168953  W2        6247            0.0000000000
     15842      5281  TIP3      H1              7.8775837182        3.2299548903        9.0144868953  W2        6247            0.0000000000
     15843      5281  TIP3      H2              6.8206237182        2.5806048903        9.8822768953  W2        6247            0.0000000000
     15844      5282  TIP3      OH2             7.9489937182       -0.1930651097        9.9064268953  W2        6249            0.0000000000
     15845      5282  TIP3      H1              7.6023437182        0.4239948903       10.5508568953  W2        6249            0.0000000000
     15846      5282  TIP3      H2              8.6076837182        0.3075048903        9.4249768953  W2        6249            0.0000000000
     15847      5283  TIP3      OH2             4.8722537182       14.1719548903        6.9779168953  W2        6250            0.0000000000
     15848      5283  TIP3      H1              5.0331237182       14.9717048903        6.4771768953  W2        6250            0.0000000000
     15849      5283  TIP3      H2              4.6750337182       14.4785548903        7.8629768953  W2        6250            0.0000000000
     15850      5284  TIP3      OH2             3.6066937182        0.8698748903        6.5936768953  W2        6251            0.0000000000
     15851      5284  TIP3      H1              3.5231737182        1.7581848903        6.9403168953  W2        6251            0.0000000000
     15852      5284  TIP3      H2              4.4967237182        0.6045448903        6.8253568953  W2        6251            0.0000000000
     15853      5285  TIP3      OH2            12.4076437182        5.3690348903       13.0836768953  W2        6253            0.0000000000
     15854      5285  TIP3      H1             11.6100837182        4.9540548903       12.7551768953  W2        6253            0.0000000000
     15855      5285  TIP3      H2             12.8527537182        4.6784048903       13.5747268953  W2        6253            0.0000000000
     15856      5286  TIP3      OH2             1.8652237182       11.2970948903        5.6541268953  W2        6254            0.0000000000
     15857      5286  TIP3      H1              2.4573737182       11.9965748903        5.9303668953  W2        6254            0.0000000000
     15858      5286  TIP3      H2              2.3245237182       10.8640448903        4.9345868953  W2        6254            0.0000000000
     15859      5287  TIP3      OH2             0.1811437182        3.9613948903        4.7700668953  W2        6255            0.0000000000
     15860      5287  TIP3      H1              0.1364037182        4.9007048903        4.9487668953  W2        6255            0.0000000000
     15861      5287  TIP3      H2             -0.7065362818        3.7258848903        4.5002768953  W2        6255            0.0000000000
     15862      5288  TIP3      OH2            13.4941037182       14.6252848903       14.7060268953  W2        6256            0.0000000000
     15863      5288  TIP3      H1             13.3385337182       15.3037248903       14.0489568953  W2        6256            0.0000000000
     15864      5288  TIP3      H2             14.4267437182       14.6972148903       14.9090868953  W2        6256            0.0000000000
     15865      5289  TIP3      OH2             0.9893437182       -1.2569451097       13.4431668953  W2        6257            0.0000000000
     15866      5289  TIP3      H1              0.7603237182       -1.1976951097       12.5156668953  W2        6257            0.0000000000
     15867      5289  TIP3      H2              0.5466837182       -2.0483951097       13.7495768953  W2        6257            0.0000000000
     15868      5290  TIP3      OH2            -0.0803262818       12.6837648903        9.6037468953  W2        6258            0.0000000000
     15869      5290  TIP3      H1             -0.9124662818       13.1560348903        9.6308868953  W2        6258            0.0000000000
     15870      5290  TIP3      H2              0.4655037182       13.1935248903        9.0050568953  W2        6258            0.0000000000
     15871      5291  TIP3      OH2             7.8973437182       13.7236348903        3.9291468953  W2        6261            0.0000000000
     15872      5291  TIP3      H1              7.2534437182       13.0924948903        4.2505168953  W2        6261            0.0000000000
     15873      5291  TIP3      H2              8.6591737182       13.1924348903        3.6974968953  W2        6261            0.0000000000
     15874      5292  TIP3      OH2            12.5016337182       13.5406248903        4.1629468953  W2        6263            0.0000000000
     15875      5292  TIP3      H1             12.7846737182       12.7461448903        4.6156368953  W2        6263            0.0000000000
     15876      5292  TIP3      H2             13.2414237182       13.7737248903        3.6020568953  W2        6263            0.0000000000
     15877      5293  TIP3      OH2             3.4563637182        9.4501148903        4.0204368953  W2        6265            0.0000000000
     15878      5293  TIP3      H1              3.5207737182        8.6560748903        4.5510768953  W2        6265            0.0000000000
     15879      5293  TIP3      H2              4.1092837182        9.3313948903        3.3306368953  W2        6265            0.0000000000
     15880      5294  TIP3      OH2             8.8087037182       10.4972848903        3.7562368953  W2        6267            0.0000000000
     15881      5294  TIP3      H1              8.5401137182       10.6774948903        4.6571268953  W2        6267            0.0000000000
     15882      5294  TIP3      H2              8.6022637182        9.5719048903        3.6248168953  W2        6267            0.0000000000
     15883      5295  TIP3      OH2             4.6057437182        7.4227348903        6.3262368953  W2        6270            0.0000000000
     15884      5295  TIP3      H1              4.1459437182        6.9385648903        7.0120868953  W2        6270            0.0000000000
     15885      5295  TIP3      H2              4.8606137182        6.7542748903        5.6902868953  W2        6270            0.0000000000
     15886      5296  TIP3      OH2             5.6767837182        5.6659148903        4.5885568953  W2        6272            0.0000000000
     15887      5296  TIP3      H1              5.4962837182        5.5110348903        3.6613868953  W2        6272            0.0000000000
     15888      5296  TIP3      H2              6.6268337182        5.7737848903        4.6333468953  W2        6272            0.0000000000
     15889      5297  TIP3      OH2            15.0666137182        8.0203348903        4.0343668953  W2        6274            0.0000000000
     15890      5297  TIP3      H1             14.7930937182        7.5958848903        3.2211968953  W2        6274            0.0000000000
     15891      5297  TIP3      H2             15.1060237182        8.9517848903        3.8174068953  W2        6274            0.0000000000
     15892      5298  TIP3      OH2             5.5739537182       16.3562848903        5.5899168953  W2        6288            0.0000000000
     15893      5298  TIP3      H1              6.5070237182       16.5141548903        5.7337568953  W2        6288            0.0000000000
     15894      5298  TIP3      H2              5.3098337182       17.0315848903        4.9650668953  W2        6288            0.0000000000
     15895      5299  TIP3      OH2            -0.8575562818       10.9926648903        5.0727268953  W2        6289            0.0000000000
     15896      5299  TIP3      H1              0.0563637182       11.0715548903        5.3461168953  W2        6289            0.0000000000
     15897      5299  TIP3      H2             -0.8502462818       10.3056248903        4.4062868953  W2        6289            0.0000000000
     15898      5300  TIP3      OH2            -2.2084962818       16.3855148903       10.1501168953  W2        6290            0.0000000000
     15899      5300  TIP3      H1             -2.8557862818       15.9236848903        9.6172368953  W2        6290            0.0000000000
     15900      5300  TIP3      H2             -1.8540362818       15.7138448903       10.7327368953  W2        6290            0.0000000000
     15901      5301  TIP3      OH2            -1.3385762818       14.4662148903       11.9547368953  W2        6291            0.0000000000
     15902      5301  TIP3      H1             -1.6728962818       13.5859448903       12.1267568953  W2        6291            0.0000000000
     15903      5301  TIP3      H2             -1.1163362818       14.8117148903       12.8192968953  W2        6291            0.0000000000
     15904      5302  TIP3      OH2            15.5248937182        8.8891448903        8.0094068953  W2        6295            0.0000000000
     15905      5302  TIP3      H1             16.3750337182        9.3102348903        8.1365668953  W2        6295            0.0000000000
     15906      5302  TIP3      H2             15.5304037182        8.1491548903        8.6165468953  W2        6295            0.0000000000
     15907      5303  TIP3      OH2            15.9194537182        6.9428848903        9.8329768953  W2        6296            0.0000000000
     15908      5303  TIP3      H1             15.1929137182        6.4631448903       10.2307368953  W2        6296            0.0000000000
     15909      5303  TIP3      H2             16.5007837182        7.1483548903       10.5651368953  W2        6296            0.0000000000
     15910      5304  TIP3      OH2            15.6785737182        9.7276348903       14.7807368953  W2        6297            0.0000000000
     15911      5304  TIP3      H1             16.5119937182        9.3496348903       14.5000968953  W2        6297            0.0000000000
     15912      5304  TIP3      H2             15.7906037182       10.6707548903       14.6616468953  W2        6297            0.0000000000
     15913      5305  TIP3      OH2            16.1877637182        6.8437348903        6.2241068953  W2        6299            0.0000000000
     15914      5305  TIP3      H1             15.6658737182        7.2001448903        5.5051968953  W2        6299            0.0000000000
     15915      5305  TIP3      H2             16.1546837182        7.5185148903        6.9021968953  W2        6299            0.0000000000
     15916      5306  TIP3      OH2            14.5366637182        4.0832948903        4.7748168953  W2        6300            0.0000000000
     15917      5306  TIP3      H1             14.6331037182        4.7499948903        4.0947868953  W2        6300            0.0000000000
     15918      5306  TIP3      H2             14.3966237182        3.2679248903        4.2933668953  W2        6300            0.0000000000
     15919      5307  TIP3      OH2            13.7061337182        5.4635348903       10.3958468953  W2        6301            0.0000000000
     15920      5307  TIP3      H1             13.5560137182        4.5183948903       10.3756268953  W2        6301            0.0000000000
     15921      5307  TIP3      H2             13.3525837182        5.7446748903       11.2397568953  W2        6301            0.0000000000
     15922      5308  TIP3      OH2            -1.2586262818        7.5417548903       14.4062268953  W2        6302            0.0000000000
     15923      5308  TIP3      H1             -1.0743362818        7.4599248903       13.4705168953  W2        6302            0.0000000000
     15924      5308  TIP3      H2             -0.4093362818        7.4174548903       14.8298668953  W2        6302            0.0000000000
     15925      5309  TIP3      OH2            13.7840437182        1.4912748903        3.8923668953  W2        6305            0.0000000000
     15926      5309  TIP3      H1             14.3946237182        1.1199548903        4.5291868953  W2        6305            0.0000000000
     15927      5309  TIP3      H2             12.9471937182        1.0699648903        4.0883668953  W2        6305            0.0000000000
     15928      5310  TIP3      OH2            13.4166137182        3.0461148903        8.8583568953  W2        6306            0.0000000000
     15929      5310  TIP3      H1             13.6963237182        2.1391548903        8.9825268953  W2        6306            0.0000000000
     15930      5310  TIP3      H2             14.1757837182        3.4802648903        8.4692768953  W2        6306            0.0000000000
     15931      5311  TIP3      OH2            14.0284437182        3.6278548903       14.2942468953  W2        6307            0.0000000000
     15932      5311  TIP3      H1             14.9612437182        3.8398448903       14.2598468953  W2        6307            0.0000000000
     15933      5311  TIP3      H2             13.7931937182        3.7290648903       15.2165468953  W2        6307            0.0000000000
     15934      5312  TIP3      OH2            14.0300937182        0.3090448903        8.9065568953  W2        6311            0.0000000000
     15935      5312  TIP3      H1             14.2125937182       -0.1398051097        9.7320568953  W2        6311            0.0000000000
     15936      5312  TIP3      H2             13.4303837182       -0.2755151097        8.4430168953  W2        6311            0.0000000000
     15937      5313  TIP3      OH2            -0.4398962818        1.1244148903       13.4383968953  W2        6312            0.0000000000
     15938      5313  TIP3      H1              0.0052637182        0.3326648903       13.7403668953  W2        6312            0.0000000000
     15939      5313  TIP3      H2              0.0264037182        1.8409348903       13.8689568953  W2        6312            0.0000000000
     15940      5314  TIP3      OH2            -2.1358662818        4.1237148903       14.5074168953  W2        6313            0.0000000000
     15941      5314  TIP3      H1             -1.6438862818        3.9027648903       13.7166168953  W2        6313            0.0000000000
     15942      5314  TIP3      H2             -1.7737762818        4.9640548903       14.7883668953  W2        6313            0.0000000000
     15943      5315  TIP3      OH2            15.8967137182        0.3768548903        5.4345868953  W2        6315            0.0000000000
     15944      5315  TIP3      H1             16.3089737182       -0.3445751097        4.9593868953  W2        6315            0.0000000000
     15945      5315  TIP3      H2             16.5783637182        1.0463148903        5.4930168953  W2        6315            0.0000000000
     15946      5316  TIP3      OH2            -1.8222162818        0.3816248903        8.5616568953  W2        6316            0.0000000000
     15947      5316  TIP3      H1             -2.7473762818        0.5902848903        8.4322068953  W2        6316            0.0000000000
     15948      5316  TIP3      H2             -1.3682262818        0.8657048903        7.8718868953  W2        6316            0.0000000000
     15949      5317  TIP3      OH2            12.9485037182       15.3657948903       10.5073968953  W2        6317            0.0000000000
     15950      5317  TIP3      H1             13.6007937182       15.0180048903        9.8993068953  W2        6317            0.0000000000
     15951      5317  TIP3      H2             13.4588837182       15.8541148903       11.1533668953  W2        6317            0.0000000000
     15952      5318  TIP3      OH2             0.1040237182       15.1486948903       14.2665968953  W2        6329            0.0000000000
     15953      5318  TIP3      H1              0.0856237182       14.7232048903       15.1238268953  W2        6329            0.0000000000
     15954      5318  TIP3      H2              0.9088137182       14.8301948903       13.8578168953  W2        6329            0.0000000000
     15955      5319  TIP3      OH2             2.2453337182       13.8585648903       12.9215868953  W2        6330            0.0000000000
     15956      5319  TIP3      H1              2.0264037182       12.9423048903       13.0911868953  W2        6330            0.0000000000
     15957      5319  TIP3      H2              3.0695537182       13.9986048903       13.3877268953  W2        6330            0.0000000000
     15958      5320  TIP3      OH2             4.7825837182       14.3284948903       13.7703868953  W2        6331            0.0000000000
     15959      5320  TIP3      H1              4.9951537182       13.4403948903       13.4834768953  W2        6331            0.0000000000
     15960      5320  TIP3      H2              4.8470937182       14.2942648903       14.7247868953  W2        6331            0.0000000000
     15961      5321  TIP3      OH2             8.2909537182       -0.0074451097       12.9147168953  W2        6332            0.0000000000
     15962      5321  TIP3      H1              7.6166337182       -0.6368851097       13.1702968953  W2        6332            0.0000000000
     15963      5321  TIP3      H2              8.8548737182       -0.4915551097       12.3115068953  W2        6332            0.0000000000
     15964      5322  TIP3      OH2            13.4336737182       -1.9000451097       13.0274268953  W2        6333            0.0000000000
     15965      5322  TIP3      H1             14.0374337182       -1.3525051097       12.5255268953  W2        6333            0.0000000000
     15966      5322  TIP3      H2             12.5638737182       -1.5810051097       12.7868368953  W2        6333            0.0000000000
     15967      5323  TIP3      OH2            15.1607137182       -0.7611751097       11.3605168953  W2        6334            0.0000000000
     15968      5323  TIP3      H1             15.7724637182       -1.2756051097       10.8338768953  W2        6334            0.0000000000
     15969      5323  TIP3      H2             15.5430537182        0.1160348903       11.3839568953  W2        6334            0.0000000000
     15970      5324  TIP3      OH2             0.6177037182       -1.3734151097       10.7367068953  W2        6335            0.0000000000
     15971      5324  TIP3      H1             -0.1593162818       -1.6079251097       10.2292968953  W2        6335            0.0000000000
     15972      5324  TIP3      H2              1.1480637182       -2.1702051097       10.7455068953  W2        6335            0.0000000000
     15973      5325  TIP3      OH2            -0.5459562818       -1.5756051097        6.5403168953  W2        6336            0.0000000000
     15974      5325  TIP3      H1             -0.1068862818       -0.9645551097        5.9486668953  W2        6336            0.0000000000
     15975      5325  TIP3      H2             -1.1797162818       -1.0371951097        7.0143168953  W2        6336            0.0000000000
     15976      5326  TIP3      OH2             5.1969637182       -1.4467051097       10.5500168953  W2        6337            0.0000000000
     15977      5326  TIP3      H1              6.0713037182       -1.0582751097       10.5204468953  W2        6337            0.0000000000
     15978      5326  TIP3      H2              5.0610437182       -1.6619251097       11.4727368953  W2        6337            0.0000000000
     15979      5327  TIP3      OH2            10.7538037182       -1.4167251097       12.1991868953  W2        6338            0.0000000000
     15980      5327  TIP3      H1             10.8299637182       -1.3215651097       11.2497868953  W2        6338            0.0000000000
     15981      5327  TIP3      H2             10.4787237182       -2.3244351097       12.3280968953  W2        6338            0.0000000000
     15982      5328  TIP3      OH2            12.1070637182       -1.3909451097        7.8916868953  W2        6339            0.0000000000
     15983      5328  TIP3      H1             11.4041737182       -0.7760251097        7.6818268953  W2        6339            0.0000000000
     15984      5328  TIP3      H2             11.6622037182       -2.2282751097        8.0227768953  W2        6339            0.0000000000
     15985      5329  TIP3      OH2            -0.6450062818       14.3726148903        7.4378268953  W2        6340            0.0000000000
     15986      5329  TIP3      H1             -1.3300162818       14.3345048903        6.7703368953  W2        6340            0.0000000000
     15987      5329  TIP3      H2             -0.6412862818       15.2853748903        7.7260368953  W2        6340            0.0000000000
     15988      5330  TIP3      OH2             1.3149537182        0.3405448903        4.9827268953  W2        6341            0.0000000000
     15989      5330  TIP3      H1              1.8062937182       -0.2892151097        4.4552768953  W2        6341            0.0000000000
     15990      5330  TIP3      H2              1.9385837182        0.6364848903        5.6458468953  W2        6341            0.0000000000
     15991      5331  TIP3      OH2             6.3409637182        0.6336948903        7.4397768953  W2        6342            0.0000000000
     15992      5331  TIP3      H1              6.5190937182       -0.0129851097        8.1226368953  W2        6342            0.0000000000
     15993      5331  TIP3      H2              6.2875837182        1.4674648903        7.9068868953  W2        6342            0.0000000000
     15994      5332  TIP3      OH2             8.2193437182       15.5821048903        5.8354468953  W2        6343            0.0000000000
     15995      5332  TIP3      H1              9.0853637182       15.9488448903        5.6572668953  W2        6343            0.0000000000
     15996      5332  TIP3      H2              7.9726237182       15.1429048903        5.0215268953  W2        6343            0.0000000000
     15997      5333  TIP3      OH2            14.9283037182       15.1451348903        8.5145568953  W2        6344            0.0000000000
     15998      5333  TIP3      H1             14.7340137182       14.3973448903        7.9495168953  W2        6344            0.0000000000
     15999      5333  TIP3      H2             14.8893137182       15.9031448903        7.9313468953  W2        6344            0.0000000000
     16000      5334  TIP3      OH2             1.1731137182       15.2926948903        4.4630368953  W2        6347            0.0000000000
     16001      5334  TIP3      H1              0.9055737182       15.5789848903        5.3363468953  W2        6347            0.0000000000
     16002      5334  TIP3      H2              1.9443737182       14.7466148903        4.6152868953  W2        6347            0.0000000000
     16003      5335  TIP3      OH2            28.5519637182        7.7828148903       10.6954568953  W2        6350            0.0000000000
     16004      5335  TIP3      H1             28.6410737182        8.7266348903       10.5631668953  W2        6350            0.0000000000
     16005      5335  TIP3      H2             27.9137237182        7.5074548903       10.0373968953  W2        6350            0.0000000000
     16006      5336  TIP3      OH2            27.4850937182        7.0378848903       14.1142768953  W2        6351            0.0000000000
     16007      5336  TIP3      H1             27.4468437182        6.3915148903       14.8192368953  W2        6351            0.0000000000
     16008      5336  TIP3      H2             27.1627437182        6.5713248903       13.3431468953  W2        6351            0.0000000000
     16009      5337  TIP3      OH2            31.1911137182        9.9769248903       12.4157868953  W2        6353            0.0000000000
     16010      5337  TIP3      H1             30.7503837182        9.2565248903       12.8663468953  W2        6353            0.0000000000
     16011      5337  TIP3      H2             31.1780837182       10.6976448903       13.0455568953  W2        6353            0.0000000000
     16012      5338  TIP3      OH2            20.7769037182       11.1019848903       14.2421768953  W2        6354            0.0000000000
     16013      5338  TIP3      H1             20.4074237182       10.3000348903       13.8726068953  W2        6354            0.0000000000
     16014      5338  TIP3      H2             21.7180137182       10.9334748903       14.2885168953  W2        6354            0.0000000000
     16015      5339  TIP3      OH2            17.3869537182        4.7622448903        9.6350568953  W2        6355            0.0000000000
     16016      5339  TIP3      H1             16.9392937182        5.6081148903        9.6167068953  W2        6355            0.0000000000
     16017      5339  TIP3      H2             16.8260737182        4.1826648903        9.1195668953  W2        6355            0.0000000000
     16018      5340  TIP3      OH2            18.0975637182        6.9242048903       11.7608568953  W2        6356            0.0000000000
     16019      5340  TIP3      H1             18.3109137182        6.1543648903       12.2881568953  W2        6356            0.0000000000
     16020      5340  TIP3      H2             18.8353237182        7.0138748903       11.1576168953  W2        6356            0.0000000000
     16021      5341  TIP3      OH2            28.3026637182       15.0810948903       12.6278268953  W2        6357            0.0000000000
     16022      5341  TIP3      H1             28.9223037182       14.4045648903       12.3547468953  W2        6357            0.0000000000
     16023      5341  TIP3      H2             28.0944037182       14.8631748903       13.5363168953  W2        6357            0.0000000000
     16024      5342  TIP3      OH2            25.8745337182        9.4700248903       14.5203768953  W2        6358            0.0000000000
     16025      5342  TIP3      H1             26.1783237182        8.7841648903       13.9257868953  W2        6358            0.0000000000
     16026      5342  TIP3      H2             26.5959337182        9.5888948903       15.1381768953  W2        6358            0.0000000000
     16027      5343  TIP3      OH2            29.0152337182        3.8642648903       14.8478568953  W2        6360            0.0000000000
     16028      5343  TIP3      H1             29.1578237182        2.9179648903       14.8680168953  W2        6360            0.0000000000
     16029      5343  TIP3      H2             28.9091337182        4.0712448903       13.9193468953  W2        6360            0.0000000000
     16030      5344  TIP3      OH2            22.1700637182        1.9659048903       12.1203368953  W2        6361            0.0000000000
     16031      5344  TIP3      H1             22.2131737182        2.8257548903       11.7019668953  W2        6361            0.0000000000
     16032      5344  TIP3      H2             21.7124737182        1.4133748903       11.4866568953  W2        6361            0.0000000000
     16033      5345  TIP3      OH2            29.8923337182        2.0964648903       10.5211668953  W2        6362            0.0000000000
     16034      5345  TIP3      H1             30.5387637182        1.7677848903       11.1459268953  W2        6362            0.0000000000
     16035      5345  TIP3      H2             30.4022737182        2.6143648903        9.8983068953  W2        6362            0.0000000000
     16036      5346  TIP3      OH2            18.7902137182        4.3624848903       12.8824768953  W2        6363            0.0000000000
     16037      5346  TIP3      H1             19.4438737182        3.8126548903       13.3144868953  W2        6363            0.0000000000
     16038      5346  TIP3      H2             18.8141437182        4.0883848903       11.9656768953  W2        6363            0.0000000000
     16039      5347  TIP3      OH2            23.9466637182        5.9126148903       12.0976268953  W2        6364            0.0000000000
     16040      5347  TIP3      H1             24.5627637182        5.3861548903       12.6070268953  W2        6364            0.0000000000
     16041      5347  TIP3      H2             23.3605437182        5.2724848903       11.6939868953  W2        6364            0.0000000000
     16042      5348  TIP3      OH2            28.3492337182       10.3838548903        9.7383268953  W2        6367            0.0000000000
     16043      5348  TIP3      H1             28.0537437182       10.0610848903        8.8870168953  W2        6367            0.0000000000
     16044      5348  TIP3      H2             28.0250137182       11.2835248903        9.7795868953  W2        6367            0.0000000000
     16045      5349  TIP3      OH2            31.6561737182        1.3873948903       12.5017568953  W2        6369            0.0000000000
     16046      5349  TIP3      H1             31.4409737182        0.6217348903       13.0343568953  W2        6369            0.0000000000
     16047      5349  TIP3      H2             32.3119137182        1.8598548903       13.0146068953  W2        6369            0.0000000000
     16048      5350  TIP3      OH2            20.5739837182        2.7759248903       14.1466368953  W2        6370            0.0000000000
     16049      5350  TIP3      H1             21.1876137182        3.4086848903       14.5198768953  W2        6370            0.0000000000
     16050      5350  TIP3      H2             21.0860537182        2.3034248903       13.4903268953  W2        6370            0.0000000000
     16051      5351  TIP3      OH2            18.0779137182       10.1944048903        8.0508668953  W2        6372            0.0000000000
     16052      5351  TIP3      H1             17.8060037182       10.4235048903        7.1621568953  W2        6372            0.0000000000
     16053      5351  TIP3      H2             18.1234837182       11.0322848903        8.5113968953  W2        6372            0.0000000000
     16054      5352  TIP3      OH2            31.7028837182       11.8159948903       14.7637168953  W2        6373            0.0000000000
     16055      5352  TIP3      H1             30.7612537182       11.8743848903       14.9254068953  W2        6373            0.0000000000
     16056      5352  TIP3      H2             31.9794937182       12.7220448903       14.6266868953  W2        6373            0.0000000000
     16057      5353  TIP3      OH2            25.0067237182       -1.8107451097       13.6469068953  W2        6375            0.0000000000
     16058      5353  TIP3      H1             24.8891437182       -2.7591451097       13.5927368953  W2        6375            0.0000000000
     16059      5353  TIP3      H2             24.1517337182       -1.4781351097       13.9200168953  W2        6375            0.0000000000
     16060      5354  TIP3      OH2            29.9550037182       13.5973448903       11.3888768953  W2        6376            0.0000000000
     16061      5354  TIP3      H1             30.3802337182       12.8901348903       10.9038368953  W2        6376            0.0000000000
     16062      5354  TIP3      H2             30.2720037182       14.3986148903       10.9720968953  W2        6376            0.0000000000
     16063      5355  TIP3      OH2            31.1146537182       11.4981948903        9.8975368953  W2        6377            0.0000000000
     16064      5355  TIP3      H1             30.8571337182       10.8082048903        9.2861268953  W2        6377            0.0000000000
     16065      5355  TIP3      H2             31.1857337182       11.0553148903       10.7431268953  W2        6377            0.0000000000
     16066      5356  TIP3      OH2            27.2732137182        7.0268148903        8.1474868953  W2        6379            0.0000000000
     16067      5356  TIP3      H1             26.5617637182        7.5617848903        7.7955368953  W2        6379            0.0000000000
     16068      5356  TIP3      H2             27.9641737182        7.0820248903        7.4873768953  W2        6379            0.0000000000
     16069      5357  TIP3      OH2            27.3271337182        5.4842448903        5.1859868953  W2        6380            0.0000000000
     16070      5357  TIP3      H1             28.0281237182        5.5069348903        5.8373868953  W2        6380            0.0000000000
     16071      5357  TIP3      H2             27.6294237182        4.8562148903        4.5299168953  W2        6380            0.0000000000
     16072      5358  TIP3      OH2            30.6789837182        7.2361448903        9.0990768953  W2        6382            0.0000000000
     16073      5358  TIP3      H1             29.9470837182        7.4645148903        9.6721368953  W2        6382            0.0000000000
     16074      5358  TIP3      H2             31.1262037182        6.5224148903        9.5538268953  W2        6382            0.0000000000
     16075      5359  TIP3      OH2            22.3243537182        7.8667648903       10.9815768953  W2        6384            0.0000000000
     16076      5359  TIP3      H1             21.9938737182        7.4961048903       10.1632768953  W2        6384            0.0000000000
     16077      5359  TIP3      H2             22.9127637182        7.1961648903       11.3284068953  W2        6384            0.0000000000
     16078      5360  TIP3      OH2            23.6911037182       11.2948248903       13.6627968953  W2        6385            0.0000000000
     16079      5360  TIP3      H1             23.5962337182       10.7161348903       12.9062568953  W2        6385            0.0000000000
     16080      5360  TIP3      H2             24.4204637182       10.9233948903       14.1590768953  W2        6385            0.0000000000
     16081      5361  TIP3      OH2            22.6909037182        6.6353248903       14.6150768953  W2        6386            0.0000000000
     16082      5361  TIP3      H1             23.2561537182        6.7567448903       13.8521968953  W2        6386            0.0000000000
     16083      5361  TIP3      H2             23.0097937182        7.2728248903       15.2539268953  W2        6386            0.0000000000
     16084      5362  TIP3      OH2            29.5499337182        6.3984348903        6.7841968953  W2        6389            0.0000000000
     16085      5362  TIP3      H1             30.1294837182        6.5484648903        7.5310868953  W2        6389            0.0000000000
     16086      5362  TIP3      H2             29.9639337182        6.8691748903        6.0608368953  W2        6389            0.0000000000
     16087      5363  TIP3      OH2            27.2764237182       13.1352848903       10.2195068953  W2        6391            0.0000000000
     16088      5363  TIP3      H1             27.7501837182       13.4309148903       10.9969268953  W2        6391            0.0000000000
     16089      5363  TIP3      H2             26.7133537182       13.8734448903        9.9864668953  W2        6391            0.0000000000
     16090      5364  TIP3      OH2            33.2487737182       -1.8515251097        6.5971668953  W2        6393            0.0000000000
     16091      5364  TIP3      H1             32.3488437182       -1.7126251097        6.8922268953  W2        6393            0.0000000000
     16092      5364  TIP3      H2             33.5006137182       -1.0200651097        6.1953368953  W2        6393            0.0000000000
     16093      5365  TIP3      OH2            21.3146237182        6.9361948903        8.5708568953  W2        6394            0.0000000000
     16094      5365  TIP3      H1             21.0227537182        7.7043648903        8.0799868953  W2        6394            0.0000000000
     16095      5365  TIP3      H2             20.6401437182        6.2768148903        8.4079968953  W2        6394            0.0000000000
     16096      5366  TIP3      OH2            34.4379137182       12.5147148903        4.9735568953  W2        6395            0.0000000000
     16097      5366  TIP3      H1             34.5112637182       13.4537348903        5.1440868953  W2        6395            0.0000000000
     16098      5366  TIP3      H2             35.3434237182       12.2095748903        4.9172868953  W2        6395            0.0000000000
     16099      5367  TIP3      OH2            17.1579037182       12.0794948903       14.2698568953  W2        6397            0.0000000000
     16100      5367  TIP3      H1             18.1039637182       11.9351948903       14.2508068953  W2        6397            0.0000000000
     16101      5367  TIP3      H2             17.0455337182       12.8637748903       14.8069768953  W2        6397            0.0000000000
     16102      5368  TIP3      OH2            26.7487337182       16.0917548903        8.6344268953  W2        6400            0.0000000000
     16103      5368  TIP3      H1             26.6733337182       15.9704748903        7.6879468953  W2        6400            0.0000000000
     16104      5368  TIP3      H2             26.7816037182       17.0410248903        8.7528868953  W2        6400            0.0000000000
     16105      5369  TIP3      OH2            20.4021137182       14.8804548903       10.4153268953  W2        6401            0.0000000000
     16106      5369  TIP3      H1             20.5541537182       14.5324948903       11.2939768953  W2        6401            0.0000000000
     16107      5369  TIP3      H2             19.5511537182       14.5241848903       10.1600468953  W2        6401            0.0000000000
     16108      5370  TIP3      OH2            29.8503337182       15.2457748903        5.6366668953  W2        6402            0.0000000000
     16109      5370  TIP3      H1             30.2251737182       14.5013848903        5.1659268953  W2        6402            0.0000000000
     16110      5370  TIP3      H2             29.8547037182       14.9758348903        6.5549968953  W2        6402            0.0000000000
     16111      5371  TIP3      OH2            29.5191437182       15.1714848903        8.3858868953  W2        6403            0.0000000000
     16112      5371  TIP3      H1             28.5841237182       15.2716748903        8.5645868953  W2        6403            0.0000000000
     16113      5371  TIP3      H2             29.7993337182       14.4620848903        8.9642068953  W2        6403            0.0000000000
     16114      5372  TIP3      OH2            22.2754837182       -0.9072951097       14.4245368953  W2        6406            0.0000000000
     16115      5372  TIP3      H1             21.4138537182       -0.9944751097       14.0168268953  W2        6406            0.0000000000
     16116      5372  TIP3      H2             22.2530537182       -0.0512851097       14.8522968953  W2        6406            0.0000000000
     16117      5373  TIP3      OH2            31.0272437182        7.4312648903        4.4139868953  W2        6409            0.0000000000
     16118      5373  TIP3      H1             31.0693237182        7.2086548903        3.4839868953  W2        6409            0.0000000000
     16119      5373  TIP3      H2             31.8764537182        7.8299748903        4.6039768953  W2        6409            0.0000000000
     16120      5374  TIP3      OH2            26.5999937182        1.3070848903        5.0843168953  W2        6410            0.0000000000
     16121      5374  TIP3      H1             26.3464737182        1.3262448903        6.0071268953  W2        6410            0.0000000000
     16122      5374  TIP3      H2             26.3432037182        0.4356248903        4.7829368953  W2        6410            0.0000000000
     16123      5375  TIP3      OH2            22.3634037182        4.2791648903       10.4315568953  W2        6412            0.0000000000
     16124      5375  TIP3      H1             21.4706937182        3.9387748903       10.3729368953  W2        6412            0.0000000000
     16125      5375  TIP3      H2             22.8140637182        3.9022548903        9.6758768953  W2        6412            0.0000000000
     16126      5376  TIP3      OH2            27.8989537182        4.6951948903        9.2486368953  W2        6413            0.0000000000
     16127      5376  TIP3      H1             27.4899837182        5.5100548903        8.9571168953  W2        6413            0.0000000000
     16128      5376  TIP3      H2             28.6195737182        4.5552048903        8.6343468953  W2        6413            0.0000000000
     16129      5377  TIP3      OH2            28.9037237182        4.1412348903       12.0626068953  W2        6415            0.0000000000
     16130      5377  TIP3      H1             28.7081737182        4.7469148903       11.3476668953  W2        6415            0.0000000000
     16131      5377  TIP3      H2             29.0849837182        3.3077548903       11.6282368953  W2        6415            0.0000000000
     16132      5378  TIP3      OH2            23.4822837182        1.7527348903        4.1853568953  W2        6417            0.0000000000
     16133      5378  TIP3      H1             23.0513537182        1.3077448903        4.9150968953  W2        6417            0.0000000000
     16134      5378  TIP3      H2             22.7641537182        2.1243648903        3.6731068953  W2        6417            0.0000000000
     16135      5379  TIP3      OH2            16.7246237182        1.4946848903       11.2372268953  W2        6418            0.0000000000
     16136      5379  TIP3      H1             17.3553937182        1.4658948903       11.9566168953  W2        6418            0.0000000000
     16137      5379  TIP3      H2             17.1740537182        1.0695548903       10.5068168953  W2        6418            0.0000000000
     16138      5380  TIP3      OH2            17.9988337182        2.2408848903        6.6612668953  W2        6419            0.0000000000
     16139      5380  TIP3      H1             18.4730037182        2.8318748903        6.0763568953  W2        6419            0.0000000000
     16140      5380  TIP3      H2             17.2814737182        2.7711748903        7.0082768953  W2        6419            0.0000000000
     16141      5381  TIP3      OH2            24.9449337182        1.7069148903       11.5179668953  W2        6421            0.0000000000
     16142      5381  TIP3      H1             24.0340437182        1.7635948903       11.8065668953  W2        6421            0.0000000000
     16143      5381  TIP3      H2             25.4502237182        1.6464648903       12.3286868953  W2        6421            0.0000000000
     16144      5382  TIP3      OH2            19.7732737182        3.3355448903       10.3447268953  W2        6422            0.0000000000
     16145      5382  TIP3      H1             18.8840737182        3.4350948903       10.0046868953  W2        6422            0.0000000000
     16146      5382  TIP3      H2             20.0697637182        2.4938448903        9.9985168953  W2        6422            0.0000000000
     16147      5383  TIP3      OH2            23.4264537182        3.3358048903        8.0011868953  W2        6423            0.0000000000
     16148      5383  TIP3      H1             24.3580037182        3.4648048903        8.1794968953  W2        6423            0.0000000000
     16149      5383  TIP3      H2             23.2114837182        4.0052348903        7.3516568953  W2        6423            0.0000000000
     16150      5384  TIP3      OH2            29.3501237182        0.9415448903       14.7821468953  W2        6424            0.0000000000
     16151      5384  TIP3      H1             28.6732837182        1.0728548903       15.4461168953  W2        6424            0.0000000000
     16152      5384  TIP3      H2             28.8646137182        0.7864948903       13.9719168953  W2        6424            0.0000000000
     16153      5385  TIP3      OH2            22.1004737182        4.5300248903        5.5677968953  W2        6425            0.0000000000
     16154      5385  TIP3      H1             21.5579837182        4.1504048903        4.8765568953  W2        6425            0.0000000000
     16155      5385  TIP3      H2             22.9339637182        4.7244948903        5.1392068953  W2        6425            0.0000000000
     16156      5386  TIP3      OH2            26.2649037182        4.4942148903       13.4049268953  W2        6428            0.0000000000
     16157      5386  TIP3      H1             26.8292437182        3.9478748903       12.8578868953  W2        6428            0.0000000000
     16158      5386  TIP3      H2             26.1172437182        3.9724048903       14.1936868953  W2        6428            0.0000000000
     16159      5387  TIP3      OH2            21.2668737182        0.6308248903        9.8234068953  W2        6429            0.0000000000
     16160      5387  TIP3      H1             20.9498237182       -0.2716451097        9.7879468953  W2        6429            0.0000000000
     16161      5387  TIP3      H2             22.0482837182        0.6325648903        9.2705668953  W2        6429            0.0000000000
     16162      5388  TIP3      OH2            25.4357537182        9.0955948903        7.5036068953  W2        6431            0.0000000000
     16163      5388  TIP3      H1             24.6908537182        8.5881248903        7.1813968953  W2        6431            0.0000000000
     16164      5388  TIP3      H2             25.3014737182        9.1443948903        8.4500868953  W2        6431            0.0000000000
     16165      5389  TIP3      OH2            29.3334337182        1.9095848903        5.7028668953  W2        6433            0.0000000000
     16166      5389  TIP3      H1             28.3948537182        2.0211448903        5.5517468953  W2        6433            0.0000000000
     16167      5389  TIP3      H2             29.6306437182        2.7662748903        6.0094368953  W2        6433            0.0000000000
     16168      5390  TIP3      OH2            30.0517837182        3.7768548903        7.3636068953  W2        6435            0.0000000000
     16169      5390  TIP3      H1             30.9436837182        3.6393548903        7.6827268953  W2        6435            0.0000000000
     16170      5390  TIP3      H2             30.1081437182        4.5674648903        6.8269568953  W2        6435            0.0000000000
     16171      5391  TIP3      OH2            20.5605837182        8.3905948903       13.2733968953  W2        6436            0.0000000000
     16172      5391  TIP3      H1             21.3053037182        8.3881648903       12.6720468953  W2        6436            0.0000000000
     16173      5391  TIP3      H2             20.6382437182        7.5669748903       13.7549068953  W2        6436            0.0000000000
     16174      5392  TIP3      OH2            27.5611637182       10.5540248903        6.5290668953  W2        6437            0.0000000000
     16175      5392  TIP3      H1             27.2660037182       11.3808148903        6.9105468953  W2        6437            0.0000000000
     16176      5392  TIP3      H2             26.8581637182        9.9347148903        6.7252068953  W2        6437            0.0000000000
     16177      5393  TIP3      OH2            34.9366537182        3.9862648903        7.0582768953  W2        6441            0.0000000000
     16178      5393  TIP3      H1             34.3822837182        3.5900648903        6.3860268953  W2        6441            0.0000000000
     16179      5393  TIP3      H2             35.0370137182        4.8967848903        6.7806068953  W2        6441            0.0000000000
     16180      5394  TIP3      OH2            33.2318237182       12.7723048903        7.5234868953  W2        6443            0.0000000000
     16181      5394  TIP3      H1             32.8589337182       11.9466848903        7.8325468953  W2        6443            0.0000000000
     16182      5394  TIP3      H2             33.5091737182       12.5892448903        6.6258268953  W2        6443            0.0000000000
     16183      5395  TIP3      OH2            30.3922137182        7.5802548903       14.5446768953  W2        6444            0.0000000000
     16184      5395  TIP3      H1             29.4639037182        7.3484448903       14.5176068953  W2        6444            0.0000000000
     16185      5395  TIP3      H2             30.8433237182        6.8032348903       14.2145568953  W2        6444            0.0000000000
     16186      5396  TIP3      OH2            22.9355237182       11.9084148903       10.6775468953  W2        6445            0.0000000000
     16187      5396  TIP3      H1             23.4627437182       12.6818548903       10.4774268953  W2        6445            0.0000000000
     16188      5396  TIP3      H2             22.0553737182       12.1333348903       10.3759468953  W2        6445            0.0000000000
     16189      5397  TIP3      OH2            18.6902937182        6.7708248903        5.2647868953  W2        6446            0.0000000000
     16190      5397  TIP3      H1             19.3062837182        7.3975448903        5.6442668953  W2        6446            0.0000000000
     16191      5397  TIP3      H2             17.8285537182        7.0868048903        5.5364368953  W2        6446            0.0000000000
     16192      5398  TIP3      OH2            24.3627537182        9.5714048903       10.2539768953  W2        6447            0.0000000000
     16193      5398  TIP3      H1             24.1217537182       10.4968448903       10.2955068953  W2        6447            0.0000000000
     16194      5398  TIP3      H2             23.6221137182        9.1125348903       10.6503668953  W2        6447            0.0000000000
     16195      5399  TIP3      OH2            23.0458337182       14.5931648903        9.7991968953  W2        6449            0.0000000000
     16196      5399  TIP3      H1             22.0958837182       14.6989048903        9.8505268953  W2        6449            0.0000000000
     16197      5399  TIP3      H2             23.3976437182       15.4139048903       10.1439468953  W2        6449            0.0000000000
     16198      5400  TIP3      OH2            30.6243837182       10.7488848903        5.3435468953  W2        6451            0.0000000000
     16199      5400  TIP3      H1             30.9776937182       10.3688648903        6.1478968953  W2        6451            0.0000000000
     16200      5400  TIP3      H2             29.6757337182       10.6553648903        5.4304768953  W2        6451            0.0000000000
     16201      5401  TIP3      OH2            35.1278237182       15.2281348903        5.5445668953  W2        6453            0.0000000000
     16202      5401  TIP3      H1             35.8716137182       15.8141848903        5.4047268953  W2        6453            0.0000000000
     16203      5401  TIP3      H2             34.4336337182       15.7967148903        5.8778068953  W2        6453            0.0000000000
     16204      5402  TIP3      OH2            31.4903137182        9.4210848903        7.5703368953  W2        6455            0.0000000000
     16205      5402  TIP3      H1             31.2130737182        8.6930148903        8.1264468953  W2        6455            0.0000000000
     16206      5402  TIP3      H2             32.4176137182        9.5402848903        7.7755968953  W2        6455            0.0000000000
     16207      5403  TIP3      OH2            24.7151637182       11.8604948903        3.7905468953  W2        6457            0.0000000000
     16208      5403  TIP3      H1             24.9541437182       11.1123048903        3.2434368953  W2        6457            0.0000000000
     16209      5403  TIP3      H2             24.4462937182       11.4726648903        4.6233268953  W2        6457            0.0000000000
     16210      5404  TIP3      OH2            23.6522237182       11.4308748903        6.2468068953  W2        6458            0.0000000000
     16211      5404  TIP3      H1             23.7990237182       10.9108548903        7.0368968953  W2        6458            0.0000000000
     16212      5404  TIP3      H2             23.6493937182       12.3376348903        6.5533968953  W2        6458            0.0000000000
     16213      5405  TIP3      OH2            20.1053337182        8.6832048903        6.7573468953  W2        6459            0.0000000000
     16214      5405  TIP3      H1             19.4192637182        9.0354548903        7.3243168953  W2        6459            0.0000000000
     16215      5405  TIP3      H2             20.6281237182        9.4461648903        6.5107768953  W2        6459            0.0000000000
     16216      5406  TIP3      OH2            28.7213337182        0.9977548903        8.1334768953  W2        6461            0.0000000000
     16217      5406  TIP3      H1             28.9411637182        1.4692948903        7.3300168953  W2        6461            0.0000000000
     16218      5406  TIP3      H2             29.2797337182        1.3920148903        8.8035368953  W2        6461            0.0000000000
     16219      5407  TIP3      OH2            26.3899437182       13.1282348903        6.9962268953  W2        6462            0.0000000000
     16220      5407  TIP3      H1             25.5735537182       13.6252048903        7.0486568953  W2        6462            0.0000000000
     16221      5407  TIP3      H2             26.9195737182       13.6035848903        6.3561068953  W2        6462            0.0000000000
     16222      5408  TIP3      OH2            25.9213237182        2.7256348903        8.9683168953  W2        6463            0.0000000000
     16223      5408  TIP3      H1             26.7335837182        3.2299548903        9.0144868953  W2        6463            0.0000000000
     16224      5408  TIP3      H2             25.6766237182        2.5806048903        9.8822768953  W2        6463            0.0000000000
     16225      5409  TIP3      OH2            26.8049937182       -0.1930651097        9.9064268953  W2        6465            0.0000000000
     16226      5409  TIP3      H1             26.4583437182        0.4239948903       10.5508568953  W2        6465            0.0000000000
     16227      5409  TIP3      H2             27.4636837182        0.3075048903        9.4249768953  W2        6465            0.0000000000
     16228      5410  TIP3      OH2            23.7282537182       14.1719548903        6.9779168953  W2        6466            0.0000000000
     16229      5410  TIP3      H1             23.8891237182       14.9717048903        6.4771768953  W2        6466            0.0000000000
     16230      5410  TIP3      H2             23.5310337182       14.4785548903        7.8629768953  W2        6466            0.0000000000
     16231      5411  TIP3      OH2            22.4626937182        0.8698748903        6.5936768953  W2        6467            0.0000000000
     16232      5411  TIP3      H1             22.3791737182        1.7581848903        6.9403168953  W2        6467            0.0000000000
     16233      5411  TIP3      H2             23.3527237182        0.6045448903        6.8253568953  W2        6467            0.0000000000
     16234      5412  TIP3      OH2            31.2636437182        5.3690348903       13.0836768953  W2        6469            0.0000000000
     16235      5412  TIP3      H1             30.4660837182        4.9540548903       12.7551768953  W2        6469            0.0000000000
     16236      5412  TIP3      H2             31.7087537182        4.6784048903       13.5747268953  W2        6469            0.0000000000
     16237      5413  TIP3      OH2            20.7212237182       11.2970948903        5.6541268953  W2        6470            0.0000000000
     16238      5413  TIP3      H1             21.3133737182       11.9965748903        5.9303668953  W2        6470            0.0000000000
     16239      5413  TIP3      H2             21.1805237182       10.8640448903        4.9345868953  W2        6470            0.0000000000
     16240      5414  TIP3      OH2            19.0371437182        3.9613948903        4.7700668953  W2        6471            0.0000000000
     16241      5414  TIP3      H1             18.9924037182        4.9007048903        4.9487668953  W2        6471            0.0000000000
     16242      5414  TIP3      H2             18.1494637182        3.7258848903        4.5002768953  W2        6471            0.0000000000
     16243      5415  TIP3      OH2            32.3501037182       14.6252848903       14.7060268953  W2        6472            0.0000000000
     16244      5415  TIP3      H1             32.1945337182       15.3037248903       14.0489568953  W2        6472            0.0000000000
     16245      5415  TIP3      H2             33.2827437182       14.6972148903       14.9090868953  W2        6472            0.0000000000
     16246      5416  TIP3      OH2            19.8453437182       -1.2569451097       13.4431668953  W2        6473            0.0000000000
     16247      5416  TIP3      H1             19.6163237182       -1.1976951097       12.5156668953  W2        6473            0.0000000000
     16248      5416  TIP3      H2             19.4026837182       -2.0483951097       13.7495768953  W2        6473            0.0000000000
     16249      5417  TIP3      OH2            18.7756737182       12.6837648903        9.6037468953  W2        6474            0.0000000000
     16250      5417  TIP3      H1             17.9435337182       13.1560348903        9.6308868953  W2        6474            0.0000000000
     16251      5417  TIP3      H2             19.3215037182       13.1935248903        9.0050568953  W2        6474            0.0000000000
     16252      5418  TIP3      OH2            26.7533437182       13.7236348903        3.9291468953  W2        6477            0.0000000000
     16253      5418  TIP3      H1             26.1094437182       13.0924948903        4.2505168953  W2        6477            0.0000000000
     16254      5418  TIP3      H2             27.5151737182       13.1924348903        3.6974968953  W2        6477            0.0000000000
     16255      5419  TIP3      OH2            31.3576337182       13.5406248903        4.1629468953  W2        6479            0.0000000000
     16256      5419  TIP3      H1             31.6406737182       12.7461448903        4.6156368953  W2        6479            0.0000000000
     16257      5419  TIP3      H2             32.0974237182       13.7737248903        3.6020568953  W2        6479            0.0000000000
     16258      5420  TIP3      OH2            22.3123637182        9.4501148903        4.0204368953  W2        6481            0.0000000000
     16259      5420  TIP3      H1             22.3767737182        8.6560748903        4.5510768953  W2        6481            0.0000000000
     16260      5420  TIP3      H2             22.9652837182        9.3313948903        3.3306368953  W2        6481            0.0000000000
     16261      5421  TIP3      OH2            27.6647037182       10.4972848903        3.7562368953  W2        6483            0.0000000000
     16262      5421  TIP3      H1             27.3961137182       10.6774948903        4.6571268953  W2        6483            0.0000000000
     16263      5421  TIP3      H2             27.4582637182        9.5719048903        3.6248168953  W2        6483            0.0000000000
     16264      5422  TIP3      OH2            23.4617437182        7.4227348903        6.3262368953  W2        6486            0.0000000000
     16265      5422  TIP3      H1             23.0019437182        6.9385648903        7.0120868953  W2        6486            0.0000000000
     16266      5422  TIP3      H2             23.7166137182        6.7542748903        5.6902868953  W2        6486            0.0000000000
     16267      5423  TIP3      OH2            24.5327837182        5.6659148903        4.5885568953  W2        6488            0.0000000000
     16268      5423  TIP3      H1             24.3522837182        5.5110348903        3.6613868953  W2        6488            0.0000000000
     16269      5423  TIP3      H2             25.4828337182        5.7737848903        4.6333468953  W2        6488            0.0000000000
     16270      5424  TIP3      OH2            33.9226137182        8.0203348903        4.0343668953  W2        6490            0.0000000000
     16271      5424  TIP3      H1             33.6490937182        7.5958848903        3.2211968953  W2        6490            0.0000000000
     16272      5424  TIP3      H2             33.9620237182        8.9517848903        3.8174068953  W2        6490            0.0000000000
     16273      5425  TIP3      OH2            24.4299537182       16.3562848903        5.5899168953  W2        6504            0.0000000000
     16274      5425  TIP3      H1             25.3630237182       16.5141548903        5.7337568953  W2        6504            0.0000000000
     16275      5425  TIP3      H2             24.1658337182       17.0315848903        4.9650668953  W2        6504            0.0000000000
     16276      5426  TIP3      OH2            17.9984437182       10.9926648903        5.0727268953  W2        6505            0.0000000000
     16277      5426  TIP3      H1             18.9123637182       11.0715548903        5.3461168953  W2        6505            0.0000000000
     16278      5426  TIP3      H2             18.0057537182       10.3056248903        4.4062868953  W2        6505            0.0000000000
     16279      5427  TIP3      OH2            16.6475037182       16.3855148903       10.1501168953  W2        6506            0.0000000000
     16280      5427  TIP3      H1             16.0002137182       15.9236848903        9.6172368953  W2        6506            0.0000000000
     16281      5427  TIP3      H2             17.0019637182       15.7138448903       10.7327368953  W2        6506            0.0000000000
     16282      5428  TIP3      OH2            17.5174237182       14.4662148903       11.9547368953  W2        6507            0.0000000000
     16283      5428  TIP3      H1             17.1831037182       13.5859448903       12.1267568953  W2        6507            0.0000000000
     16284      5428  TIP3      H2             17.7396637182       14.8117148903       12.8192968953  W2        6507            0.0000000000
     16285      5429  TIP3      OH2            34.3808937182        8.8891448903        8.0094068953  W2        6511            0.0000000000
     16286      5429  TIP3      H1             35.2310337182        9.3102348903        8.1365668953  W2        6511            0.0000000000
     16287      5429  TIP3      H2             34.3864037182        8.1491548903        8.6165468953  W2        6511            0.0000000000
     16288      5430  TIP3      OH2            34.7754537182        6.9428848903        9.8329768953  W2        6512            0.0000000000
     16289      5430  TIP3      H1             34.0489137182        6.4631448903       10.2307368953  W2        6512            0.0000000000
     16290      5430  TIP3      H2             35.3567837182        7.1483548903       10.5651368953  W2        6512            0.0000000000
     16291      5431  TIP3      OH2            34.5345737182        9.7276348903       14.7807368953  W2        6513            0.0000000000
     16292      5431  TIP3      H1             35.3679937182        9.3496348903       14.5000968953  W2        6513            0.0000000000
     16293      5431  TIP3      H2             34.6466037182       10.6707548903       14.6616468953  W2        6513            0.0000000000
     16294      5432  TIP3      OH2            35.0437637182        6.8437348903        6.2241068953  W2        6515            0.0000000000
     16295      5432  TIP3      H1             34.5218737182        7.2001448903        5.5051968953  W2        6515            0.0000000000
     16296      5432  TIP3      H2             35.0106837182        7.5185148903        6.9021968953  W2        6515            0.0000000000
     16297      5433  TIP3      OH2            33.3926637182        4.0832948903        4.7748168953  W2        6516            0.0000000000
     16298      5433  TIP3      H1             33.4891037182        4.7499948903        4.0947868953  W2        6516            0.0000000000
     16299      5433  TIP3      H2             33.2526237182        3.2679248903        4.2933668953  W2        6516            0.0000000000
     16300      5434  TIP3      OH2            32.5621337182        5.4635348903       10.3958468953  W2        6517            0.0000000000
     16301      5434  TIP3      H1             32.4120137182        4.5183948903       10.3756268953  W2        6517            0.0000000000
     16302      5434  TIP3      H2             32.2085837182        5.7446748903       11.2397568953  W2        6517            0.0000000000
     16303      5435  TIP3      OH2            17.5973737182        7.5417548903       14.4062268953  W2        6518            0.0000000000
     16304      5435  TIP3      H1             17.7816637182        7.4599248903       13.4705168953  W2        6518            0.0000000000
     16305      5435  TIP3      H2             18.4466637182        7.4174548903       14.8298668953  W2        6518            0.0000000000
     16306      5436  TIP3      OH2            32.6400437182        1.4912748903        3.8923668953  W2        6521            0.0000000000
     16307      5436  TIP3      H1             33.2506237182        1.1199548903        4.5291868953  W2        6521            0.0000000000
     16308      5436  TIP3      H2             31.8031937182        1.0699648903        4.0883668953  W2        6521            0.0000000000
     16309      5437  TIP3      OH2            32.2726137182        3.0461148903        8.8583568953  W2        6522            0.0000000000
     16310      5437  TIP3      H1             32.5523237182        2.1391548903        8.9825268953  W2        6522            0.0000000000
     16311      5437  TIP3      H2             33.0317837182        3.4802648903        8.4692768953  W2        6522            0.0000000000
     16312      5438  TIP3      OH2            32.8844437182        3.6278548903       14.2942468953  W2        6523            0.0000000000
     16313      5438  TIP3      H1             33.8172437182        3.8398448903       14.2598468953  W2        6523            0.0000000000
     16314      5438  TIP3      H2             32.6491937182        3.7290648903       15.2165468953  W2        6523            0.0000000000
     16315      5439  TIP3      OH2            32.8860937182        0.3090448903        8.9065568953  W2        6527            0.0000000000
     16316      5439  TIP3      H1             33.0685937182       -0.1398051097        9.7320568953  W2        6527            0.0000000000
     16317      5439  TIP3      H2             32.2863837182       -0.2755151097        8.4430168953  W2        6527            0.0000000000
     16318      5440  TIP3      OH2            18.4161037182        1.1244148903       13.4383968953  W2        6528            0.0000000000
     16319      5440  TIP3      H1             18.8612637182        0.3326648903       13.7403668953  W2        6528            0.0000000000
     16320      5440  TIP3      H2             18.8824037182        1.8409348903       13.8689568953  W2        6528            0.0000000000
     16321      5441  TIP3      OH2            16.7201337182        4.1237148903       14.5074168953  W2        6529            0.0000000000
     16322      5441  TIP3      H1             17.2121137182        3.9027648903       13.7166168953  W2        6529            0.0000000000
     16323      5441  TIP3      H2             17.0822237182        4.9640548903       14.7883668953  W2        6529            0.0000000000
     16324      5442  TIP3      OH2            34.7527137182        0.3768548903        5.4345868953  W2        6531            0.0000000000
     16325      5442  TIP3      H1             35.1649737182       -0.3445751097        4.9593868953  W2        6531            0.0000000000
     16326      5442  TIP3      H2             35.4343637182        1.0463148903        5.4930168953  W2        6531            0.0000000000
     16327      5443  TIP3      OH2            17.0337837182        0.3816248903        8.5616568953  W2        6532            0.0000000000
     16328      5443  TIP3      H1             16.1086237182        0.5902848903        8.4322068953  W2        6532            0.0000000000
     16329      5443  TIP3      H2             17.4877737182        0.8657048903        7.8718868953  W2        6532            0.0000000000
     16330      5444  TIP3      OH2            31.8045037182       15.3657948903       10.5073968953  W2        6533            0.0000000000
     16331      5444  TIP3      H1             32.4567937182       15.0180048903        9.8993068953  W2        6533            0.0000000000
     16332      5444  TIP3      H2             32.3148837182       15.8541148903       11.1533668953  W2        6533            0.0000000000
     16333      5445  TIP3      OH2            18.9600237182       15.1486948903       14.2665968953  W2        6545            0.0000000000
     16334      5445  TIP3      H1             18.9416237182       14.7232048903       15.1238268953  W2        6545            0.0000000000
     16335      5445  TIP3      H2             19.7648137182       14.8301948903       13.8578168953  W2        6545            0.0000000000
     16336      5446  TIP3      OH2            21.1013337182       13.8585648903       12.9215868953  W2        6546            0.0000000000
     16337      5446  TIP3      H1             20.8824037182       12.9423048903       13.0911868953  W2        6546            0.0000000000
     16338      5446  TIP3      H2             21.9255537182       13.9986048903       13.3877268953  W2        6546            0.0000000000
     16339      5447  TIP3      OH2            23.6385837182       14.3284948903       13.7703868953  W2        6547            0.0000000000
     16340      5447  TIP3      H1             23.8511537182       13.4403948903       13.4834768953  W2        6547            0.0000000000
     16341      5447  TIP3      H2             23.7030937182       14.2942648903       14.7247868953  W2        6547            0.0000000000
     16342      5448  TIP3      OH2            27.1469537182       -0.0074451097       12.9147168953  W2        6548            0.0000000000
     16343      5448  TIP3      H1             26.4726337182       -0.6368851097       13.1702968953  W2        6548            0.0000000000
     16344      5448  TIP3      H2             27.7108737182       -0.4915551097       12.3115068953  W2        6548            0.0000000000
     16345      5449  TIP3      OH2            32.2896737182       -1.9000451097       13.0274268953  W2        6549            0.0000000000
     16346      5449  TIP3      H1             32.8934337182       -1.3525051097       12.5255268953  W2        6549            0.0000000000
     16347      5449  TIP3      H2             31.4198737182       -1.5810051097       12.7868368953  W2        6549            0.0000000000
     16348      5450  TIP3      OH2            34.0167137182       -0.7611751097       11.3605168953  W2        6550            0.0000000000
     16349      5450  TIP3      H1             34.6284637182       -1.2756051097       10.8338768953  W2        6550            0.0000000000
     16350      5450  TIP3      H2             34.3990537182        0.1160348903       11.3839568953  W2        6550            0.0000000000
     16351      5451  TIP3      OH2            19.4737037182       -1.3734151097       10.7367068953  W2        6551            0.0000000000
     16352      5451  TIP3      H1             18.6966837182       -1.6079251097       10.2292968953  W2        6551            0.0000000000
     16353      5451  TIP3      H2             20.0040637182       -2.1702051097       10.7455068953  W2        6551            0.0000000000
     16354      5452  TIP3      OH2            18.3100437182       -1.5756051097        6.5403168953  W2        6552            0.0000000000
     16355      5452  TIP3      H1             18.7491137182       -0.9645551097        5.9486668953  W2        6552            0.0000000000
     16356      5452  TIP3      H2             17.6762837182       -1.0371951097        7.0143168953  W2        6552            0.0000000000
     16357      5453  TIP3      OH2            24.0529637182       -1.4467051097       10.5500168953  W2        6553            0.0000000000
     16358      5453  TIP3      H1             24.9273037182       -1.0582751097       10.5204468953  W2        6553            0.0000000000
     16359      5453  TIP3      H2             23.9170437182       -1.6619251097       11.4727368953  W2        6553            0.0000000000
     16360      5454  TIP3      OH2            29.6098037182       -1.4167251097       12.1991868953  W2        6554            0.0000000000
     16361      5454  TIP3      H1             29.6859637182       -1.3215651097       11.2497868953  W2        6554            0.0000000000
     16362      5454  TIP3      H2             29.3347237182       -2.3244351097       12.3280968953  W2        6554            0.0000000000
     16363      5455  TIP3      OH2            30.9630637182       -1.3909451097        7.8916868953  W2        6555            0.0000000000
     16364      5455  TIP3      H1             30.2601737182       -0.7760251097        7.6818268953  W2        6555            0.0000000000
     16365      5455  TIP3      H2             30.5182037182       -2.2282751097        8.0227768953  W2        6555            0.0000000000
     16366      5456  TIP3      OH2            18.2109937182       14.3726148903        7.4378268953  W2        6556            0.0000000000
     16367      5456  TIP3      H1             17.5259837182       14.3345048903        6.7703368953  W2        6556            0.0000000000
     16368      5456  TIP3      H2             18.2147137182       15.2853748903        7.7260368953  W2        6556            0.0000000000
     16369      5457  TIP3      OH2            20.1709537182        0.3405448903        4.9827268953  W2        6557            0.0000000000
     16370      5457  TIP3      H1             20.6622937182       -0.2892151097        4.4552768953  W2        6557            0.0000000000
     16371      5457  TIP3      H2             20.7945837182        0.6364848903        5.6458468953  W2        6557            0.0000000000
     16372      5458  TIP3      OH2            25.1969637182        0.6336948903        7.4397768953  W2        6558            0.0000000000
     16373      5458  TIP3      H1             25.3750937182       -0.0129851097        8.1226368953  W2        6558            0.0000000000
     16374      5458  TIP3      H2             25.1435837182        1.4674648903        7.9068868953  W2        6558            0.0000000000
     16375      5459  TIP3      OH2            27.0753437182       15.5821048903        5.8354468953  W2        6559            0.0000000000
     16376      5459  TIP3      H1             27.9413637182       15.9488448903        5.6572668953  W2        6559            0.0000000000
     16377      5459  TIP3      H2             26.8286237182       15.1429048903        5.0215268953  W2        6559            0.0000000000
     16378      5460  TIP3      OH2            33.7843037182       15.1451348903        8.5145568953  W2        6560            0.0000000000
     16379      5460  TIP3      H1             33.5900137182       14.3973448903        7.9495168953  W2        6560            0.0000000000
     16380      5460  TIP3      H2             33.7453137182       15.9031448903        7.9313468953  W2        6560            0.0000000000
     16381      5461  TIP3      OH2            20.0291137182       15.2926948903        4.4630368953  W2        6563            0.0000000000
     16382      5461  TIP3      H1             19.7615737182       15.5789848903        5.3363468953  W2        6563            0.0000000000
     16383      5461  TIP3      H2             20.8003737182       14.7466148903        4.6152868953  W2        6563            0.0000000000
     16384      5462  TIP3      OH2            39.6329037182       11.1019848903       14.2421768953  W2        6567            0.0000000000
     16385      5462  TIP3      H1             39.2634237182       10.3000348903       13.8726068953  W2        6567            0.0000000000
     16386      5462  TIP3      H2             40.5740137182       10.9334748903       14.2885168953  W2        6567            0.0000000000
     16387      5463  TIP3      OH2            36.2429537182        4.7622448903        9.6350568953  W2        6568            0.0000000000
     16388      5463  TIP3      H1             35.7952937182        5.6081148903        9.6167068953  W2        6568            0.0000000000
     16389      5463  TIP3      H2             35.6820737182        4.1826648903        9.1195668953  W2        6568            0.0000000000
     16390      5464  TIP3      OH2            36.9535637182        6.9242048903       11.7608568953  W2        6569            0.0000000000
     16391      5464  TIP3      H1             37.1669137182        6.1543648903       12.2881568953  W2        6569            0.0000000000
     16392      5464  TIP3      H2             37.6913237182        7.0138748903       11.1576168953  W2        6569            0.0000000000
     16393      5465  TIP3      OH2            37.6462137182        4.3624848903       12.8824768953  W2        6570            0.0000000000
     16394      5465  TIP3      H1             38.2998737182        3.8126548903       13.3144868953  W2        6570            0.0000000000
     16395      5465  TIP3      H2             37.6701437182        4.0883848903       11.9656768953  W2        6570            0.0000000000
     16396      5466  TIP3      OH2            39.4299837182        2.7759248903       14.1466368953  W2        6571            0.0000000000
     16397      5466  TIP3      H1             40.0436137182        3.4086848903       14.5198768953  W2        6571            0.0000000000
     16398      5466  TIP3      H2             39.9420537182        2.3034248903       13.4903268953  W2        6571            0.0000000000
     16399      5467  TIP3      OH2            36.9339137182       10.1944048903        8.0508668953  W2        6572            0.0000000000
     16400      5467  TIP3      H1             36.6620037182       10.4235048903        7.1621568953  W2        6572            0.0000000000
     16401      5467  TIP3      H2             36.9794837182       11.0322848903        8.5113968953  W2        6572            0.0000000000
     16402      5468  TIP3      OH2            36.0139037182       12.0794948903       14.2698568953  W2        6575            0.0000000000
     16403      5468  TIP3      H1             36.9599637182       11.9351948903       14.2508068953  W2        6575            0.0000000000
     16404      5468  TIP3      H2             35.9015337182       12.8637748903       14.8069768953  W2        6575            0.0000000000
     16405      5469  TIP3      OH2            39.2581137182       14.8804548903       10.4153268953  W2        6576            0.0000000000
     16406      5469  TIP3      H1             39.4101537182       14.5324948903       11.2939768953  W2        6576            0.0000000000
     16407      5469  TIP3      H2             38.4071537182       14.5241848903       10.1600468953  W2        6576            0.0000000000
     16408      5470  TIP3      OH2            35.5806237182        1.4946848903       11.2372268953  W2        6579            0.0000000000
     16409      5470  TIP3      H1             36.2113937182        1.4658948903       11.9566168953  W2        6579            0.0000000000
     16410      5470  TIP3      H2             36.0300537182        1.0695548903       10.5068168953  W2        6579            0.0000000000
     16411      5471  TIP3      OH2            36.8548337182        2.2408848903        6.6612668953  W2        6580            0.0000000000
     16412      5471  TIP3      H1             37.3290037182        2.8318748903        6.0763568953  W2        6580            0.0000000000
     16413      5471  TIP3      H2             36.1374737182        2.7711748903        7.0082768953  W2        6580            0.0000000000
     16414      5472  TIP3      OH2            38.6292737182        3.3355448903       10.3447268953  W2        6581            0.0000000000
     16415      5472  TIP3      H1             37.7400737182        3.4350948903       10.0046868953  W2        6581            0.0000000000
     16416      5472  TIP3      H2             38.9257637182        2.4938448903        9.9985168953  W2        6581            0.0000000000
     16417      5473  TIP3      OH2            39.4165837182        8.3905948903       13.2733968953  W2        6583            0.0000000000
     16418      5473  TIP3      H1             40.1613037182        8.3881648903       12.6720468953  W2        6583            0.0000000000
     16419      5473  TIP3      H2             39.4942437182        7.5669748903       13.7549068953  W2        6583            0.0000000000
     16420      5474  TIP3      OH2            37.5462937182        6.7708248903        5.2647868953  W2        6585            0.0000000000
     16421      5474  TIP3      H1             38.1622837182        7.3975448903        5.6442668953  W2        6585            0.0000000000
     16422      5474  TIP3      H2             36.6845537182        7.0868048903        5.5364368953  W2        6585            0.0000000000
     16423      5475  TIP3      OH2            38.9613337182        8.6832048903        6.7573468953  W2        6588            0.0000000000
     16424      5475  TIP3      H1             38.2752637182        9.0354548903        7.3243168953  W2        6588            0.0000000000
     16425      5475  TIP3      H2             39.4841237182        9.4461648903        6.5107768953  W2        6588            0.0000000000
     16426      5476  TIP3      OH2            39.5772237182       11.2970948903        5.6541268953  W2        6589            0.0000000000
     16427      5476  TIP3      H1             40.1693737182       11.9965748903        5.9303668953  W2        6589            0.0000000000
     16428      5476  TIP3      H2             40.0365237182       10.8640448903        4.9345868953  W2        6589            0.0000000000
     16429      5477  TIP3      OH2            37.8931437182        3.9613948903        4.7700668953  W2        6590            0.0000000000
     16430      5477  TIP3      H1             37.8484037182        4.9007048903        4.9487668953  W2        6590            0.0000000000
     16431      5477  TIP3      H2             37.0054637182        3.7258848903        4.5002768953  W2        6590            0.0000000000
     16432      5478  TIP3      OH2            38.7013437182       -1.2569451097       13.4431668953  W2        6591            0.0000000000
     16433      5478  TIP3      H1             38.4723237182       -1.1976951097       12.5156668953  W2        6591            0.0000000000
     16434      5478  TIP3      H2             38.2586837182       -2.0483951097       13.7495768953  W2        6591            0.0000000000
     16435      5479  TIP3      OH2            37.6316737182       12.6837648903        9.6037468953  W2        6592            0.0000000000
     16436      5479  TIP3      H1             36.7995337182       13.1560348903        9.6308868953  W2        6592            0.0000000000
     16437      5479  TIP3      H2             38.1775037182       13.1935248903        9.0050568953  W2        6592            0.0000000000
     16438      5480  TIP3      OH2            36.8544437182       10.9926648903        5.0727268953  W2        6597            0.0000000000
     16439      5480  TIP3      H1             37.7683637182       11.0715548903        5.3461168953  W2        6597            0.0000000000
     16440      5480  TIP3      H2             36.8617537182       10.3056248903        4.4062868953  W2        6597            0.0000000000
     16441      5481  TIP3      OH2            35.5035037182       16.3855148903       10.1501168953  W2        6598            0.0000000000
     16442      5481  TIP3      H1             34.8562137182       15.9236848903        9.6172368953  W2        6598            0.0000000000
     16443      5481  TIP3      H2             35.8579637182       15.7138448903       10.7327368953  W2        6598            0.0000000000
     16444      5482  TIP3      OH2            36.3734237182       14.4662148903       11.9547368953  W2        6599            0.0000000000
     16445      5482  TIP3      H1             36.0391037182       13.5859448903       12.1267568953  W2        6599            0.0000000000
     16446      5482  TIP3      H2             36.5956637182       14.8117148903       12.8192968953  W2        6599            0.0000000000
     16447      5483  TIP3      OH2            36.4533737182        7.5417548903       14.4062268953  W2        6600            0.0000000000
     16448      5483  TIP3      H1             36.6376637182        7.4599248903       13.4705168953  W2        6600            0.0000000000
     16449      5483  TIP3      H2             37.3026637182        7.4174548903       14.8298668953  W2        6600            0.0000000000
     16450      5484  TIP3      OH2            37.2721037182        1.1244148903       13.4383968953  W2        6602            0.0000000000
     16451      5484  TIP3      H1             37.7172637182        0.3326648903       13.7403668953  W2        6602            0.0000000000
     16452      5484  TIP3      H2             37.7384037182        1.8409348903       13.8689568953  W2        6602            0.0000000000
     16453      5485  TIP3      OH2            35.5761337182        4.1237148903       14.5074168953  W2        6603            0.0000000000
     16454      5485  TIP3      H1             36.0681137182        3.9027648903       13.7166168953  W2        6603            0.0000000000
     16455      5485  TIP3      H2             35.9382237182        4.9640548903       14.7883668953  W2        6603            0.0000000000
     16456      5486  TIP3      OH2            35.8897837182        0.3816248903        8.5616568953  W2        6604            0.0000000000
     16457      5486  TIP3      H1             34.9646237182        0.5902848903        8.4322068953  W2        6604            0.0000000000
     16458      5486  TIP3      H2             36.3437737182        0.8657048903        7.8718868953  W2        6604            0.0000000000
     16459      5487  TIP3      OH2            37.8160237182       15.1486948903       14.2665968953  W2        6608            0.0000000000
     16460      5487  TIP3      H1             37.7976237182       14.7232048903       15.1238268953  W2        6608            0.0000000000
     16461      5487  TIP3      H2             38.6208137182       14.8301948903       13.8578168953  W2        6608            0.0000000000
     16462      5488  TIP3      OH2            38.3297037182       -1.3734151097       10.7367068953  W2        6609            0.0000000000
     16463      5488  TIP3      H1             37.5526837182       -1.6079251097       10.2292968953  W2        6609            0.0000000000
     16464      5488  TIP3      H2             38.8600637182       -2.1702051097       10.7455068953  W2        6609            0.0000000000
     16465      5489  TIP3      OH2            37.1660437182       -1.5756051097        6.5403168953  W2        6610            0.0000000000
     16466      5489  TIP3      H1             37.6051137182       -0.9645551097        5.9486668953  W2        6610            0.0000000000
     16467      5489  TIP3      H2             36.5322837182       -1.0371951097        7.0143168953  W2        6610            0.0000000000
     16468      5490  TIP3      OH2            37.0669937182       14.3726148903        7.4378268953  W2        6611            0.0000000000
     16469      5490  TIP3      H1             36.3819837182       14.3345048903        6.7703368953  W2        6611            0.0000000000
     16470      5490  TIP3      H2             37.0707137182       15.2853748903        7.7260368953  W2        6611            0.0000000000
     16471      5491  TIP3      OH2            39.0269537182        0.3405448903        4.9827268953  W2        6612            0.0000000000
     16472      5491  TIP3      H1             39.5182937182       -0.2892151097        4.4552768953  W2        6612            0.0000000000
     16473      5491  TIP3      H2             39.6505837182        0.6364848903        5.6458468953  W2        6612            0.0000000000
     16474      5492  TIP3      OH2            38.8851137182       15.2926948903        4.4630368953  W2        6614            0.0000000000
     16475      5492  TIP3      H1             38.6175737182       15.5789848903        5.3363468953  W2        6614            0.0000000000
     16476      5492  TIP3      H2             39.6563737182       14.7466148903        4.6152868953  W2        6614            0.0000000000
     16477      5493  TIP3      OH2           -28.0160362818       26.6388148903       10.6954568953  W2        6615            0.0000000000
     16478      5493  TIP3      H1            -27.9269262818       27.5826348903       10.5631668953  W2        6615            0.0000000000
     16479      5493  TIP3      H2            -28.6542762818       26.3634548903       10.0373968953  W2        6615            0.0000000000
     16480      5494  TIP3      OH2           -29.0829062818       25.8938848903       14.1142768953  W2        6616            0.0000000000
     16481      5494  TIP3      H1            -29.1211562818       25.2475148903       14.8192368953  W2        6616            0.0000000000
     16482      5494  TIP3      H2            -29.4052562818       25.4273248903       13.3431468953  W2        6616            0.0000000000
     16483      5495  TIP3      OH2           -25.3768862818       28.8329248903       12.4157868953  W2        6618            0.0000000000
     16484      5495  TIP3      H1            -25.8176162818       28.1125248903       12.8663468953  W2        6618            0.0000000000
     16485      5495  TIP3      H2            -25.3899162818       29.5536448903       13.0455568953  W2        6618            0.0000000000
     16486      5496  TIP3      OH2           -35.7910962818       29.9579848903       14.2421768953  W2        6619            0.0000000000
     16487      5496  TIP3      H1            -36.1605762818       29.1560348903       13.8726068953  W2        6619            0.0000000000
     16488      5496  TIP3      H2            -34.8499862818       29.7894748903       14.2885168953  W2        6619            0.0000000000
     16489      5497  TIP3      OH2           -39.1810462818       23.6182448903        9.6350568953  W2        6620            0.0000000000
     16490      5497  TIP3      H1            -39.6287062818       24.4641148903        9.6167068953  W2        6620            0.0000000000
     16491      5497  TIP3      H2            -39.7419262818       23.0386648903        9.1195668953  W2        6620            0.0000000000
     16492      5498  TIP3      OH2           -38.4704362818       25.7802048903       11.7608568953  W2        6621            0.0000000000
     16493      5498  TIP3      H1            -38.2570862818       25.0103648903       12.2881568953  W2        6621            0.0000000000
     16494      5498  TIP3      H2            -37.7326762818       25.8698748903       11.1576168953  W2        6621            0.0000000000
     16495      5499  TIP3      OH2           -28.2653362818       33.9370948903       12.6278268953  W2        6622            0.0000000000
     16496      5499  TIP3      H1            -27.6456962818       33.2605648903       12.3547468953  W2        6622            0.0000000000
     16497      5499  TIP3      H2            -28.4735962818       33.7191748903       13.5363168953  W2        6622            0.0000000000
     16498      5500  TIP3      OH2           -30.6934662818       28.3260248903       14.5203768953  W2        6623            0.0000000000
     16499      5500  TIP3      H1            -30.3896762818       27.6401648903       13.9257868953  W2        6623            0.0000000000
     16500      5500  TIP3      H2            -29.9720662818       28.4448948903       15.1381768953  W2        6623            0.0000000000
     16501      5501  TIP3      OH2           -27.5527662818       22.7202648903       14.8478568953  W2        6625            0.0000000000
     16502      5501  TIP3      H1            -27.4101762818       21.7739648903       14.8680168953  W2        6625            0.0000000000
     16503      5501  TIP3      H2            -27.6588662818       22.9272448903       13.9193468953  W2        6625            0.0000000000
     16504      5502  TIP3      OH2           -34.3979362818       20.8219048903       12.1203368953  W2        6626            0.0000000000
     16505      5502  TIP3      H1            -34.3548262818       21.6817548903       11.7019668953  W2        6626            0.0000000000
     16506      5502  TIP3      H2            -34.8555262818       20.2693748903       11.4866568953  W2        6626            0.0000000000
     16507      5503  TIP3      OH2           -26.6756662818       20.9524648903       10.5211668953  W2        6627            0.0000000000
     16508      5503  TIP3      H1            -26.0292362818       20.6237848903       11.1459268953  W2        6627            0.0000000000
     16509      5503  TIP3      H2            -26.1657262818       21.4703648903        9.8983068953  W2        6627            0.0000000000
     16510      5504  TIP3      OH2           -37.7777862818       23.2184848903       12.8824768953  W2        6628            0.0000000000
     16511      5504  TIP3      H1            -37.1241262818       22.6686548903       13.3144868953  W2        6628            0.0000000000
     16512      5504  TIP3      H2            -37.7538562818       22.9443848903       11.9656768953  W2        6628            0.0000000000
     16513      5505  TIP3      OH2           -32.6213362818       24.7686148903       12.0976268953  W2        6629            0.0000000000
     16514      5505  TIP3      H1            -32.0052362818       24.2421548903       12.6070268953  W2        6629            0.0000000000
     16515      5505  TIP3      H2            -33.2074562818       24.1284848903       11.6939868953  W2        6629            0.0000000000
     16516      5506  TIP3      OH2           -28.2187662818       29.2398548903        9.7383268953  W2        6632            0.0000000000
     16517      5506  TIP3      H1            -28.5142562818       28.9170848903        8.8870168953  W2        6632            0.0000000000
     16518      5506  TIP3      H2            -28.5429862818       30.1395248903        9.7795868953  W2        6632            0.0000000000
     16519      5507  TIP3      OH2           -24.9118262818       20.2433948903       12.5017568953  W2        6634            0.0000000000
     16520      5507  TIP3      H1            -25.1270262818       19.4777348903       13.0343568953  W2        6634            0.0000000000
     16521      5507  TIP3      H2            -24.2560862818       20.7158548903       13.0146068953  W2        6634            0.0000000000
     16522      5508  TIP3      OH2           -35.9940162818       21.6319248903       14.1466368953  W2        6635            0.0000000000
     16523      5508  TIP3      H1            -35.3803862818       22.2646848903       14.5198768953  W2        6635            0.0000000000
     16524      5508  TIP3      H2            -35.4819462818       21.1594248903       13.4903268953  W2        6635            0.0000000000
     16525      5509  TIP3      OH2           -38.4900862818       29.0504048903        8.0508668953  W2        6637            0.0000000000
     16526      5509  TIP3      H1            -38.7619962818       29.2795048903        7.1621568953  W2        6637            0.0000000000
     16527      5509  TIP3      H2            -38.4445162818       29.8882848903        8.5113968953  W2        6637            0.0000000000
     16528      5510  TIP3      OH2           -24.8651162818       30.6719948903       14.7637168953  W2        6638            0.0000000000
     16529      5510  TIP3      H1            -25.8067462818       30.7303848903       14.9254068953  W2        6638            0.0000000000
     16530      5510  TIP3      H2            -24.5885062818       31.5780448903       14.6266868953  W2        6638            0.0000000000
     16531      5511  TIP3      OH2           -31.5612762818       17.0452548903       13.6469068953  W2        6640            0.0000000000
     16532      5511  TIP3      H1            -31.6788562818       16.0968548903       13.5927368953  W2        6640            0.0000000000
     16533      5511  TIP3      H2            -32.4162662818       17.3778648903       13.9200168953  W2        6640            0.0000000000
     16534      5512  TIP3      OH2           -26.6129962818       32.4533448903       11.3888768953  W2        6641            0.0000000000
     16535      5512  TIP3      H1            -26.1877662818       31.7461348903       10.9038368953  W2        6641            0.0000000000
     16536      5512  TIP3      H2            -26.2959962818       33.2546148903       10.9720968953  W2        6641            0.0000000000
     16537      5513  TIP3      OH2           -25.4533462818       30.3541948903        9.8975368953  W2        6642            0.0000000000
     16538      5513  TIP3      H1            -25.7108662818       29.6642048903        9.2861268953  W2        6642            0.0000000000
     16539      5513  TIP3      H2            -25.3822662818       29.9113148903       10.7431268953  W2        6642            0.0000000000
     16540      5514  TIP3      OH2           -29.2947862818       25.8828148903        8.1474868953  W2        6644            0.0000000000
     16541      5514  TIP3      H1            -30.0062362818       26.4177848903        7.7955368953  W2        6644            0.0000000000
     16542      5514  TIP3      H2            -28.6038262818       25.9380248903        7.4873768953  W2        6644            0.0000000000
     16543      5515  TIP3      OH2           -29.2408662818       24.3402448903        5.1859868953  W2        6645            0.0000000000
     16544      5515  TIP3      H1            -28.5398762818       24.3629348903        5.8373868953  W2        6645            0.0000000000
     16545      5515  TIP3      H2            -28.9385762818       23.7122148903        4.5299168953  W2        6645            0.0000000000
     16546      5516  TIP3      OH2           -25.8890162818       26.0921448903        9.0990768953  W2        6647            0.0000000000
     16547      5516  TIP3      H1            -26.6209162818       26.3205148903        9.6721368953  W2        6647            0.0000000000
     16548      5516  TIP3      H2            -25.4417962818       25.3784148903        9.5538268953  W2        6647            0.0000000000
     16549      5517  TIP3      OH2           -34.2436462818       26.7227648903       10.9815768953  W2        6649            0.0000000000
     16550      5517  TIP3      H1            -34.5741262818       26.3521048903       10.1632768953  W2        6649            0.0000000000
     16551      5517  TIP3      H2            -33.6552362818       26.0521648903       11.3284068953  W2        6649            0.0000000000
     16552      5518  TIP3      OH2           -32.8768962818       30.1508248903       13.6627968953  W2        6650            0.0000000000
     16553      5518  TIP3      H1            -32.9717662818       29.5721348903       12.9062568953  W2        6650            0.0000000000
     16554      5518  TIP3      H2            -32.1475362818       29.7793948903       14.1590768953  W2        6650            0.0000000000
     16555      5519  TIP3      OH2           -33.8770962818       25.4913248903       14.6150768953  W2        6651            0.0000000000
     16556      5519  TIP3      H1            -33.3118462818       25.6127448903       13.8521968953  W2        6651            0.0000000000
     16557      5519  TIP3      H2            -33.5582062818       26.1288248903       15.2539268953  W2        6651            0.0000000000
     16558      5520  TIP3      OH2           -27.0180662818       25.2544348903        6.7841968953  W2        6654            0.0000000000
     16559      5520  TIP3      H1            -26.4385162818       25.4044648903        7.5310868953  W2        6654            0.0000000000
     16560      5520  TIP3      H2            -26.6040662818       25.7251748903        6.0608368953  W2        6654            0.0000000000
     16561      5521  TIP3      OH2           -29.2915762818       31.9912848903       10.2195068953  W2        6656            0.0000000000
     16562      5521  TIP3      H1            -28.8178162818       32.2869148903       10.9969268953  W2        6656            0.0000000000
     16563      5521  TIP3      H2            -29.8546462818       32.7294448903        9.9864668953  W2        6656            0.0000000000
     16564      5522  TIP3      OH2           -23.3192262818       17.0044748903        6.5971668953  W2        6658            0.0000000000
     16565      5522  TIP3      H1            -24.2191562818       17.1433748903        6.8922268953  W2        6658            0.0000000000
     16566      5522  TIP3      H2            -23.0673862818       17.8359348903        6.1953368953  W2        6658            0.0000000000
     16567      5523  TIP3      OH2           -35.2533762818       25.7921948903        8.5708568953  W2        6659            0.0000000000
     16568      5523  TIP3      H1            -35.5452462818       26.5603648903        8.0799868953  W2        6659            0.0000000000
     16569      5523  TIP3      H2            -35.9278562818       25.1328148903        8.4079968953  W2        6659            0.0000000000
     16570      5524  TIP3      OH2           -22.1300862818       31.3707148903        4.9735568953  W2        6660            0.0000000000
     16571      5524  TIP3      H1            -22.0567362818       32.3097348903        5.1440868953  W2        6660            0.0000000000
     16572      5524  TIP3      H2            -21.2245762818       31.0655748903        4.9172868953  W2        6660            0.0000000000
     16573      5525  TIP3      OH2           -39.4100962818       30.9354948903       14.2698568953  W2        6662            0.0000000000
     16574      5525  TIP3      H1            -38.4640362818       30.7911948903       14.2508068953  W2        6662            0.0000000000
     16575      5525  TIP3      H2            -39.5224662818       31.7197748903       14.8069768953  W2        6662            0.0000000000
     16576      5526  TIP3      OH2           -29.8192662818       34.9477548903        8.6344268953  W2        6665            0.0000000000
     16577      5526  TIP3      H1            -29.8946662818       34.8264748903        7.6879468953  W2        6665            0.0000000000
     16578      5526  TIP3      H2            -29.7863962818       35.8970248903        8.7528868953  W2        6665            0.0000000000
     16579      5527  TIP3      OH2           -36.1658862818       33.7364548903       10.4153268953  W2        6666            0.0000000000
     16580      5527  TIP3      H1            -36.0138462818       33.3884948903       11.2939768953  W2        6666            0.0000000000
     16581      5527  TIP3      H2            -37.0168462818       33.3801848903       10.1600468953  W2        6666            0.0000000000
     16582      5528  TIP3      OH2           -26.7176662818       34.1017748903        5.6366668953  W2        6667            0.0000000000
     16583      5528  TIP3      H1            -26.3428262818       33.3573848903        5.1659268953  W2        6667            0.0000000000
     16584      5528  TIP3      H2            -26.7132962818       33.8318348903        6.5549968953  W2        6667            0.0000000000
     16585      5529  TIP3      OH2           -27.0488562818       34.0274848903        8.3858868953  W2        6668            0.0000000000
     16586      5529  TIP3      H1            -27.9838762818       34.1276748903        8.5645868953  W2        6668            0.0000000000
     16587      5529  TIP3      H2            -26.7686662818       33.3180848903        8.9642068953  W2        6668            0.0000000000
     16588      5530  TIP3      OH2           -34.2925162818       17.9487048903       14.4245368953  W2        6671            0.0000000000
     16589      5530  TIP3      H1            -35.1541462818       17.8615248903       14.0168268953  W2        6671            0.0000000000
     16590      5530  TIP3      H2            -34.3149462818       18.8047148903       14.8522968953  W2        6671            0.0000000000
     16591      5531  TIP3      OH2           -25.5407562818       26.2872648903        4.4139868953  W2        6674            0.0000000000
     16592      5531  TIP3      H1            -25.4986762818       26.0646548903        3.4839868953  W2        6674            0.0000000000
     16593      5531  TIP3      H2            -24.6915462818       26.6859748903        4.6039768953  W2        6674            0.0000000000
     16594      5532  TIP3      OH2           -29.9680062818       20.1630848903        5.0843168953  W2        6675            0.0000000000
     16595      5532  TIP3      H1            -30.2215262818       20.1822448903        6.0071268953  W2        6675            0.0000000000
     16596      5532  TIP3      H2            -30.2247962818       19.2916248903        4.7829368953  W2        6675            0.0000000000
     16597      5533  TIP3      OH2           -34.2045962818       23.1351648903       10.4315568953  W2        6677            0.0000000000
     16598      5533  TIP3      H1            -35.0973062818       22.7947748903       10.3729368953  W2        6677            0.0000000000
     16599      5533  TIP3      H2            -33.7539362818       22.7582548903        9.6758768953  W2        6677            0.0000000000
     16600      5534  TIP3      OH2           -28.6690462818       23.5511948903        9.2486368953  W2        6678            0.0000000000
     16601      5534  TIP3      H1            -29.0780162818       24.3660548903        8.9571168953  W2        6678            0.0000000000
     16602      5534  TIP3      H2            -27.9484262818       23.4112048903        8.6343468953  W2        6678            0.0000000000
     16603      5535  TIP3      OH2           -27.6642762818       22.9972348903       12.0626068953  W2        6680            0.0000000000
     16604      5535  TIP3      H1            -27.8598262818       23.6029148903       11.3476668953  W2        6680            0.0000000000
     16605      5535  TIP3      H2            -27.4830162818       22.1637548903       11.6282368953  W2        6680            0.0000000000
     16606      5536  TIP3      OH2           -33.0857162818       20.6087348903        4.1853568953  W2        6682            0.0000000000
     16607      5536  TIP3      H1            -33.5166462818       20.1637448903        4.9150968953  W2        6682            0.0000000000
     16608      5536  TIP3      H2            -33.8038462818       20.9803648903        3.6731068953  W2        6682            0.0000000000
     16609      5537  TIP3      OH2           -39.8433762818       20.3506848903       11.2372268953  W2        6683            0.0000000000
     16610      5537  TIP3      H1            -39.2126062818       20.3218948903       11.9566168953  W2        6683            0.0000000000
     16611      5537  TIP3      H2            -39.3939462818       19.9255548903       10.5068168953  W2        6683            0.0000000000
     16612      5538  TIP3      OH2           -38.5691662818       21.0968848903        6.6612668953  W2        6684            0.0000000000
     16613      5538  TIP3      H1            -38.0949962818       21.6878748903        6.0763568953  W2        6684            0.0000000000
     16614      5538  TIP3      H2            -39.2865262818       21.6271748903        7.0082768953  W2        6684            0.0000000000
     16615      5539  TIP3      OH2           -31.6230662818       20.5629148903       11.5179668953  W2        6686            0.0000000000
     16616      5539  TIP3      H1            -32.5339562818       20.6195948903       11.8065668953  W2        6686            0.0000000000
     16617      5539  TIP3      H2            -31.1177762818       20.5024648903       12.3286868953  W2        6686            0.0000000000
     16618      5540  TIP3      OH2           -36.7947262818       22.1915448903       10.3447268953  W2        6687            0.0000000000
     16619      5540  TIP3      H1            -37.6839262818       22.2910948903       10.0046868953  W2        6687            0.0000000000
     16620      5540  TIP3      H2            -36.4982362818       21.3498448903        9.9985168953  W2        6687            0.0000000000
     16621      5541  TIP3      OH2           -33.1415462818       22.1918048903        8.0011868953  W2        6688            0.0000000000
     16622      5541  TIP3      H1            -32.2099962818       22.3208048903        8.1794968953  W2        6688            0.0000000000
     16623      5541  TIP3      H2            -33.3565162818       22.8612348903        7.3516568953  W2        6688            0.0000000000
     16624      5542  TIP3      OH2           -27.2178762818       19.7975448903       14.7821468953  W2        6689            0.0000000000
     16625      5542  TIP3      H1            -27.8947162818       19.9288548903       15.4461168953  W2        6689            0.0000000000
     16626      5542  TIP3      H2            -27.7033862818       19.6424948903       13.9719168953  W2        6689            0.0000000000
     16627      5543  TIP3      OH2           -34.4675262818       23.3860248903        5.5677968953  W2        6690            0.0000000000
     16628      5543  TIP3      H1            -35.0100162818       23.0064048903        4.8765568953  W2        6690            0.0000000000
     16629      5543  TIP3      H2            -33.6340362818       23.5804948903        5.1392068953  W2        6690            0.0000000000
     16630      5544  TIP3      OH2           -30.3030962818       23.3502148903       13.4049268953  W2        6693            0.0000000000
     16631      5544  TIP3      H1            -29.7387562818       22.8038748903       12.8578868953  W2        6693            0.0000000000
     16632      5544  TIP3      H2            -30.4507562818       22.8284048903       14.1936868953  W2        6693            0.0000000000
     16633      5545  TIP3      OH2           -35.3011262818       19.4868248903        9.8234068953  W2        6694            0.0000000000
     16634      5545  TIP3      H1            -35.6181762818       18.5843548903        9.7879468953  W2        6694            0.0000000000
     16635      5545  TIP3      H2            -34.5197162818       19.4885648903        9.2705668953  W2        6694            0.0000000000
     16636      5546  TIP3      OH2           -31.1322462818       27.9515948903        7.5036068953  W2        6696            0.0000000000
     16637      5546  TIP3      H1            -31.8771462818       27.4441248903        7.1813968953  W2        6696            0.0000000000
     16638      5546  TIP3      H2            -31.2665262818       28.0003948903        8.4500868953  W2        6696            0.0000000000
     16639      5547  TIP3      OH2           -27.2345662818       20.7655848903        5.7028668953  W2        6698            0.0000000000
     16640      5547  TIP3      H1            -28.1731462818       20.8771448903        5.5517468953  W2        6698            0.0000000000
     16641      5547  TIP3      H2            -26.9373562818       21.6222748903        6.0094368953  W2        6698            0.0000000000
     16642      5548  TIP3      OH2           -26.5162162818       22.6328548903        7.3636068953  W2        6700            0.0000000000
     16643      5548  TIP3      H1            -25.6243162818       22.4953548903        7.6827268953  W2        6700            0.0000000000
     16644      5548  TIP3      H2            -26.4598562818       23.4234648903        6.8269568953  W2        6700            0.0000000000
     16645      5549  TIP3      OH2           -36.0074162818       27.2465948903       13.2733968953  W2        6701            0.0000000000
     16646      5549  TIP3      H1            -35.2626962818       27.2441648903       12.6720468953  W2        6701            0.0000000000
     16647      5549  TIP3      H2            -35.9297562818       26.4229748903       13.7549068953  W2        6701            0.0000000000
     16648      5550  TIP3      OH2           -29.0068362818       29.4100248903        6.5290668953  W2        6702            0.0000000000
     16649      5550  TIP3      H1            -29.3019962818       30.2368148903        6.9105468953  W2        6702            0.0000000000
     16650      5550  TIP3      H2            -29.7098362818       28.7907148903        6.7252068953  W2        6702            0.0000000000
     16651      5551  TIP3      OH2           -21.6313462818       22.8422648903        7.0582768953  W2        6706            0.0000000000
     16652      5551  TIP3      H1            -22.1857162818       22.4460648903        6.3860268953  W2        6706            0.0000000000
     16653      5551  TIP3      H2            -21.5309862818       23.7527848903        6.7806068953  W2        6706            0.0000000000
     16654      5552  TIP3      OH2           -23.3361762818       31.6283048903        7.5234868953  W2        6708            0.0000000000
     16655      5552  TIP3      H1            -23.7090662818       30.8026848903        7.8325468953  W2        6708            0.0000000000
     16656      5552  TIP3      H2            -23.0588262818       31.4452448903        6.6258268953  W2        6708            0.0000000000
     16657      5553  TIP3      OH2           -26.1757862818       26.4362548903       14.5446768953  W2        6709            0.0000000000
     16658      5553  TIP3      H1            -27.1040962818       26.2044448903       14.5176068953  W2        6709            0.0000000000
     16659      5553  TIP3      H2            -25.7246762818       25.6592348903       14.2145568953  W2        6709            0.0000000000
     16660      5554  TIP3      OH2           -33.6324762818       30.7644148903       10.6775468953  W2        6710            0.0000000000
     16661      5554  TIP3      H1            -33.1052562818       31.5378548903       10.4774268953  W2        6710            0.0000000000
     16662      5554  TIP3      H2            -34.5126262818       30.9893348903       10.3759468953  W2        6710            0.0000000000
     16663      5555  TIP3      OH2           -37.8777062818       25.6268248903        5.2647868953  W2        6711            0.0000000000
     16664      5555  TIP3      H1            -37.2617162818       26.2535448903        5.6442668953  W2        6711            0.0000000000
     16665      5555  TIP3      H2            -38.7394462818       25.9428048903        5.5364368953  W2        6711            0.0000000000
     16666      5556  TIP3      OH2           -32.2052462818       28.4274048903       10.2539768953  W2        6712            0.0000000000
     16667      5556  TIP3      H1            -32.4462462818       29.3528448903       10.2955068953  W2        6712            0.0000000000
     16668      5556  TIP3      H2            -32.9458862818       27.9685348903       10.6503668953  W2        6712            0.0000000000
     16669      5557  TIP3      OH2           -33.5221662818       33.4491648903        9.7991968953  W2        6714            0.0000000000
     16670      5557  TIP3      H1            -34.4721162818       33.5549048903        9.8505268953  W2        6714            0.0000000000
     16671      5557  TIP3      H2            -33.1703562818       34.2699048903       10.1439468953  W2        6714            0.0000000000
     16672      5558  TIP3      OH2           -25.9436162818       29.6048848903        5.3435468953  W2        6716            0.0000000000
     16673      5558  TIP3      H1            -25.5903062818       29.2248648903        6.1478968953  W2        6716            0.0000000000
     16674      5558  TIP3      H2            -26.8922662818       29.5113648903        5.4304768953  W2        6716            0.0000000000
     16675      5559  TIP3      OH2           -21.4401762818       34.0841348903        5.5445668953  W2        6718            0.0000000000
     16676      5559  TIP3      H1            -20.6963862818       34.6701848903        5.4047268953  W2        6718            0.0000000000
     16677      5559  TIP3      H2            -22.1343662818       34.6527148903        5.8778068953  W2        6718            0.0000000000
     16678      5560  TIP3      OH2           -25.0776862818       28.2770848903        7.5703368953  W2        6720            0.0000000000
     16679      5560  TIP3      H1            -25.3549262818       27.5490148903        8.1264468953  W2        6720            0.0000000000
     16680      5560  TIP3      H2            -24.1503862818       28.3962848903        7.7755968953  W2        6720            0.0000000000
     16681      5561  TIP3      OH2           -31.8528362818       30.7164948903        3.7905468953  W2        6722            0.0000000000
     16682      5561  TIP3      H1            -31.6138562818       29.9683048903        3.2434368953  W2        6722            0.0000000000
     16683      5561  TIP3      H2            -32.1217062818       30.3286648903        4.6233268953  W2        6722            0.0000000000
     16684      5562  TIP3      OH2           -32.9157762818       30.2868748903        6.2468068953  W2        6723            0.0000000000
     16685      5562  TIP3      H1            -32.7689762818       29.7668548903        7.0368968953  W2        6723            0.0000000000
     16686      5562  TIP3      H2            -32.9186062818       31.1936348903        6.5533968953  W2        6723            0.0000000000
     16687      5563  TIP3      OH2           -36.4626662818       27.5392048903        6.7573468953  W2        6724            0.0000000000
     16688      5563  TIP3      H1            -37.1487362818       27.8914548903        7.3243168953  W2        6724            0.0000000000
     16689      5563  TIP3      H2            -35.9398762818       28.3021648903        6.5107768953  W2        6724            0.0000000000
     16690      5564  TIP3      OH2           -27.8466662818       19.8537548903        8.1334768953  W2        6726            0.0000000000
     16691      5564  TIP3      H1            -27.6268362818       20.3252948903        7.3300168953  W2        6726            0.0000000000
     16692      5564  TIP3      H2            -27.2882662818       20.2480148903        8.8035368953  W2        6726            0.0000000000
     16693      5565  TIP3      OH2           -30.1780562818       31.9842348903        6.9962268953  W2        6727            0.0000000000
     16694      5565  TIP3      H1            -30.9944462818       32.4812048903        7.0486568953  W2        6727            0.0000000000
     16695      5565  TIP3      H2            -29.6484262818       32.4595848903        6.3561068953  W2        6727            0.0000000000
     16696      5566  TIP3      OH2           -30.6466762818       21.5816348903        8.9683168953  W2        6728            0.0000000000
     16697      5566  TIP3      H1            -29.8344162818       22.0859548903        9.0144868953  W2        6728            0.0000000000
     16698      5566  TIP3      H2            -30.8913762818       21.4366048903        9.8822768953  W2        6728            0.0000000000
     16699      5567  TIP3      OH2           -29.7630062818       18.6629348903        9.9064268953  W2        6730            0.0000000000
     16700      5567  TIP3      H1            -30.1096562818       19.2799948903       10.5508568953  W2        6730            0.0000000000
     16701      5567  TIP3      H2            -29.1043162818       19.1635048903        9.4249768953  W2        6730            0.0000000000
     16702      5568  TIP3      OH2           -32.8397462818       33.0279548903        6.9779168953  W2        6731            0.0000000000
     16703      5568  TIP3      H1            -32.6788762818       33.8277048903        6.4771768953  W2        6731            0.0000000000
     16704      5568  TIP3      H2            -33.0369662818       33.3345548903        7.8629768953  W2        6731            0.0000000000
     16705      5569  TIP3      OH2           -34.1053062818       19.7258748903        6.5936768953  W2        6732            0.0000000000
     16706      5569  TIP3      H1            -34.1888262818       20.6141848903        6.9403168953  W2        6732            0.0000000000
     16707      5569  TIP3      H2            -33.2152762818       19.4605448903        6.8253568953  W2        6732            0.0000000000
     16708      5570  TIP3      OH2           -25.3043562818       24.2250348903       13.0836768953  W2        6734            0.0000000000
     16709      5570  TIP3      H1            -26.1019162818       23.8100548903       12.7551768953  W2        6734            0.0000000000
     16710      5570  TIP3      H2            -24.8592462818       23.5344048903       13.5747268953  W2        6734            0.0000000000
     16711      5571  TIP3      OH2           -35.8467762818       30.1530948903        5.6541268953  W2        6735            0.0000000000
     16712      5571  TIP3      H1            -35.2546262818       30.8525748903        5.9303668953  W2        6735            0.0000000000
     16713      5571  TIP3      H2            -35.3874762818       29.7200448903        4.9345868953  W2        6735            0.0000000000
     16714      5572  TIP3      OH2           -37.5308562818       22.8173948903        4.7700668953  W2        6736            0.0000000000
     16715      5572  TIP3      H1            -37.5755962818       23.7567048903        4.9487668953  W2        6736            0.0000000000
     16716      5572  TIP3      H2            -38.4185362818       22.5818848903        4.5002768953  W2        6736            0.0000000000
     16717      5573  TIP3      OH2           -24.2178962818       33.4812848903       14.7060268953  W2        6737            0.0000000000
     16718      5573  TIP3      H1            -24.3734662818       34.1597248903       14.0489568953  W2        6737            0.0000000000
     16719      5573  TIP3      H2            -23.2852562818       33.5532148903       14.9090868953  W2        6737            0.0000000000
     16720      5574  TIP3      OH2           -36.7226562818       17.5990548903       13.4431668953  W2        6738            0.0000000000
     16721      5574  TIP3      H1            -36.9516762818       17.6583048903       12.5156668953  W2        6738            0.0000000000
     16722      5574  TIP3      H2            -37.1653162818       16.8076048903       13.7495768953  W2        6738            0.0000000000
     16723      5575  TIP3      OH2           -37.7923262818       31.5397648903        9.6037468953  W2        6739            0.0000000000
     16724      5575  TIP3      H1            -38.6244662818       32.0120348903        9.6308868953  W2        6739            0.0000000000
     16725      5575  TIP3      H2            -37.2464962818       32.0495248903        9.0050568953  W2        6739            0.0000000000
     16726      5576  TIP3      OH2           -29.8146562818       32.5796348903        3.9291468953  W2        6742            0.0000000000
     16727      5576  TIP3      H1            -30.4585562818       31.9484948903        4.2505168953  W2        6742            0.0000000000
     16728      5576  TIP3      H2            -29.0528262818       32.0484348903        3.6974968953  W2        6742            0.0000000000
     16729      5577  TIP3      OH2           -25.2103662818       32.3966248903        4.1629468953  W2        6744            0.0000000000
     16730      5577  TIP3      H1            -24.9273262818       31.6021448903        4.6156368953  W2        6744            0.0000000000
     16731      5577  TIP3      H2            -24.4705762818       32.6297248903        3.6020568953  W2        6744            0.0000000000
     16732      5578  TIP3      OH2           -34.2556362818       28.3061148903        4.0204368953  W2        6746            0.0000000000
     16733      5578  TIP3      H1            -34.1912262818       27.5120748903        4.5510768953  W2        6746            0.0000000000
     16734      5578  TIP3      H2            -33.6027162818       28.1873948903        3.3306368953  W2        6746            0.0000000000
     16735      5579  TIP3      OH2           -28.9032962818       29.3532848903        3.7562368953  W2        6748            0.0000000000
     16736      5579  TIP3      H1            -29.1718862818       29.5334948903        4.6571268953  W2        6748            0.0000000000
     16737      5579  TIP3      H2            -29.1097362818       28.4279048903        3.6248168953  W2        6748            0.0000000000
     16738      5580  TIP3      OH2           -33.1062562818       26.2787348903        6.3262368953  W2        6751            0.0000000000
     16739      5580  TIP3      H1            -33.5660562818       25.7945648903        7.0120868953  W2        6751            0.0000000000
     16740      5580  TIP3      H2            -32.8513862818       25.6102748903        5.6902868953  W2        6751            0.0000000000
     16741      5581  TIP3      OH2           -32.0352162818       24.5219148903        4.5885568953  W2        6753            0.0000000000
     16742      5581  TIP3      H1            -32.2157162818       24.3670348903        3.6613868953  W2        6753            0.0000000000
     16743      5581  TIP3      H2            -31.0851662818       24.6297848903        4.6333468953  W2        6753            0.0000000000
     16744      5582  TIP3      OH2           -22.6453862818       26.8763348903        4.0343668953  W2        6755            0.0000000000
     16745      5582  TIP3      H1            -22.9189062818       26.4518848903        3.2211968953  W2        6755            0.0000000000
     16746      5582  TIP3      H2            -22.6059762818       27.8077848903        3.8174068953  W2        6755            0.0000000000
     16747      5583  TIP3      OH2           -32.1380462818       35.2122848903        5.5899168953  W2        6769            0.0000000000
     16748      5583  TIP3      H1            -31.2049762818       35.3701548903        5.7337568953  W2        6769            0.0000000000
     16749      5583  TIP3      H2            -32.4021662818       35.8875848903        4.9650668953  W2        6769            0.0000000000
     16750      5584  TIP3      OH2           -38.5695562818       29.8486648903        5.0727268953  W2        6770            0.0000000000
     16751      5584  TIP3      H1            -37.6556362818       29.9275548903        5.3461168953  W2        6770            0.0000000000
     16752      5584  TIP3      H2            -38.5622462818       29.1616248903        4.4062868953  W2        6770            0.0000000000
     16753      5585  TIP3      OH2           -39.9204962818       35.2415148903       10.1501168953  W2        6771            0.0000000000
     16754      5585  TIP3      H1            -40.5677862818       34.7796848903        9.6172368953  W2        6771            0.0000000000
     16755      5585  TIP3      H2            -39.5660362818       34.5698448903       10.7327368953  W2        6771            0.0000000000
     16756      5586  TIP3      OH2           -39.0505762818       33.3222148903       11.9547368953  W2        6772            0.0000000000
     16757      5586  TIP3      H1            -39.3848962818       32.4419448903       12.1267568953  W2        6772            0.0000000000
     16758      5586  TIP3      H2            -38.8283362818       33.6677148903       12.8192968953  W2        6772            0.0000000000
     16759      5587  TIP3      OH2           -22.1871062818       27.7451448903        8.0094068953  W2        6776            0.0000000000
     16760      5587  TIP3      H1            -21.3369662818       28.1662348903        8.1365668953  W2        6776            0.0000000000
     16761      5587  TIP3      H2            -22.1815962818       27.0051548903        8.6165468953  W2        6776            0.0000000000
     16762      5588  TIP3      OH2           -21.7925462818       25.7988848903        9.8329768953  W2        6777            0.0000000000
     16763      5588  TIP3      H1            -22.5190862818       25.3191448903       10.2307368953  W2        6777            0.0000000000
     16764      5588  TIP3      H2            -21.2112162818       26.0043548903       10.5651368953  W2        6777            0.0000000000
     16765      5589  TIP3      OH2           -22.0334262818       28.5836348903       14.7807368953  W2        6778            0.0000000000
     16766      5589  TIP3      H1            -21.2000062818       28.2056348903       14.5000968953  W2        6778            0.0000000000
     16767      5589  TIP3      H2            -21.9213962818       29.5267548903       14.6616468953  W2        6778            0.0000000000
     16768      5590  TIP3      OH2           -21.5242362818       25.6997348903        6.2241068953  W2        6780            0.0000000000
     16769      5590  TIP3      H1            -22.0461262818       26.0561448903        5.5051968953  W2        6780            0.0000000000
     16770      5590  TIP3      H2            -21.5573162818       26.3745148903        6.9021968953  W2        6780            0.0000000000
     16771      5591  TIP3      OH2           -23.1753362818       22.9392948903        4.7748168953  W2        6781            0.0000000000
     16772      5591  TIP3      H1            -23.0788962818       23.6059948903        4.0947868953  W2        6781            0.0000000000
     16773      5591  TIP3      H2            -23.3153762818       22.1239248903        4.2933668953  W2        6781            0.0000000000
     16774      5592  TIP3      OH2           -24.0058662818       24.3195348903       10.3958468953  W2        6782            0.0000000000
     16775      5592  TIP3      H1            -24.1559862818       23.3743948903       10.3756268953  W2        6782            0.0000000000
     16776      5592  TIP3      H2            -24.3594162818       24.6006748903       11.2397568953  W2        6782            0.0000000000
     16777      5593  TIP3      OH2           -38.9706262818       26.3977548903       14.4062268953  W2        6783            0.0000000000
     16778      5593  TIP3      H1            -38.7863362818       26.3159248903       13.4705168953  W2        6783            0.0000000000
     16779      5593  TIP3      H2            -38.1213362818       26.2734548903       14.8298668953  W2        6783            0.0000000000
     16780      5594  TIP3      OH2           -23.9279562818       20.3472748903        3.8923668953  W2        6786            0.0000000000
     16781      5594  TIP3      H1            -23.3173762818       19.9759548903        4.5291868953  W2        6786            0.0000000000
     16782      5594  TIP3      H2            -24.7648062818       19.9259648903        4.0883668953  W2        6786            0.0000000000
     16783      5595  TIP3      OH2           -24.2953862818       21.9021148903        8.8583568953  W2        6787            0.0000000000
     16784      5595  TIP3      H1            -24.0156762818       20.9951548903        8.9825268953  W2        6787            0.0000000000
     16785      5595  TIP3      H2            -23.5362162818       22.3362648903        8.4692768953  W2        6787            0.0000000000
     16786      5596  TIP3      OH2           -23.6835562818       22.4838548903       14.2942468953  W2        6788            0.0000000000
     16787      5596  TIP3      H1            -22.7507562818       22.6958448903       14.2598468953  W2        6788            0.0000000000
     16788      5596  TIP3      H2            -23.9188062818       22.5850648903       15.2165468953  W2        6788            0.0000000000
     16789      5597  TIP3      OH2           -23.6819062818       19.1650448903        8.9065568953  W2        6792            0.0000000000
     16790      5597  TIP3      H1            -23.4994062818       18.7161948903        9.7320568953  W2        6792            0.0000000000
     16791      5597  TIP3      H2            -24.2816162818       18.5804848903        8.4430168953  W2        6792            0.0000000000
     16792      5598  TIP3      OH2           -38.1518962818       19.9804148903       13.4383968953  W2        6793            0.0000000000
     16793      5598  TIP3      H1            -37.7067362818       19.1886648903       13.7403668953  W2        6793            0.0000000000
     16794      5598  TIP3      H2            -37.6855962818       20.6969348903       13.8689568953  W2        6793            0.0000000000
     16795      5599  TIP3      OH2           -39.8478662818       22.9797148903       14.5074168953  W2        6794            0.0000000000
     16796      5599  TIP3      H1            -39.3558862818       22.7587648903       13.7166168953  W2        6794            0.0000000000
     16797      5599  TIP3      H2            -39.4857762818       23.8200548903       14.7883668953  W2        6794            0.0000000000
     16798      5600  TIP3      OH2           -21.8152862818       19.2328548903        5.4345868953  W2        6796            0.0000000000
     16799      5600  TIP3      H1            -21.4030262818       18.5114248903        4.9593868953  W2        6796            0.0000000000
     16800      5600  TIP3      H2            -21.1336362818       19.9023148903        5.4930168953  W2        6796            0.0000000000
     16801      5601  TIP3      OH2           -39.5342162818       19.2376248903        8.5616568953  W2        6797            0.0000000000
     16802      5601  TIP3      H1            -40.4593762818       19.4462848903        8.4322068953  W2        6797            0.0000000000
     16803      5601  TIP3      H2            -39.0802262818       19.7217048903        7.8718868953  W2        6797            0.0000000000
     16804      5602  TIP3      OH2           -24.7634962818       34.2217948903       10.5073968953  W2        6798            0.0000000000
     16805      5602  TIP3      H1            -24.1112062818       33.8740048903        9.8993068953  W2        6798            0.0000000000
     16806      5602  TIP3      H2            -24.2531162818       34.7101148903       11.1533668953  W2        6798            0.0000000000
     16807      5603  TIP3      OH2           -37.6079762818       34.0046948903       14.2665968953  W2        6810            0.0000000000
     16808      5603  TIP3      H1            -37.6263762818       33.5792048903       15.1238268953  W2        6810            0.0000000000
     16809      5603  TIP3      H2            -36.8031862818       33.6861948903       13.8578168953  W2        6810            0.0000000000
     16810      5604  TIP3      OH2           -35.4666662818       32.7145648903       12.9215868953  W2        6811            0.0000000000
     16811      5604  TIP3      H1            -35.6855962818       31.7983048903       13.0911868953  W2        6811            0.0000000000
     16812      5604  TIP3      H2            -34.6424462818       32.8546048903       13.3877268953  W2        6811            0.0000000000
     16813      5605  TIP3      OH2           -32.9294162818       33.1844948903       13.7703868953  W2        6812            0.0000000000
     16814      5605  TIP3      H1            -32.7168462818       32.2963948903       13.4834768953  W2        6812            0.0000000000
     16815      5605  TIP3      H2            -32.8649062818       33.1502648903       14.7247868953  W2        6812            0.0000000000
     16816      5606  TIP3      OH2           -29.4210462818       18.8485548903       12.9147168953  W2        6813            0.0000000000
     16817      5606  TIP3      H1            -30.0953662818       18.2191148903       13.1702968953  W2        6813            0.0000000000
     16818      5606  TIP3      H2            -28.8571262818       18.3644448903       12.3115068953  W2        6813            0.0000000000
     16819      5607  TIP3      OH2           -24.2783262818       16.9559548903       13.0274268953  W2        6814            0.0000000000
     16820      5607  TIP3      H1            -23.6745662818       17.5034948903       12.5255268953  W2        6814            0.0000000000
     16821      5607  TIP3      H2            -25.1481262818       17.2749948903       12.7868368953  W2        6814            0.0000000000
     16822      5608  TIP3      OH2           -22.5512862818       18.0948248903       11.3605168953  W2        6815            0.0000000000
     16823      5608  TIP3      H1            -21.9395362818       17.5803948903       10.8338768953  W2        6815            0.0000000000
     16824      5608  TIP3      H2            -22.1689462818       18.9720348903       11.3839568953  W2        6815            0.0000000000
     16825      5609  TIP3      OH2           -37.0942962818       17.4825848903       10.7367068953  W2        6816            0.0000000000
     16826      5609  TIP3      H1            -37.8713162818       17.2480748903       10.2292968953  W2        6816            0.0000000000
     16827      5609  TIP3      H2            -36.5639362818       16.6857948903       10.7455068953  W2        6816            0.0000000000
     16828      5610  TIP3      OH2           -38.2579562818       17.2803948903        6.5403168953  W2        6817            0.0000000000
     16829      5610  TIP3      H1            -37.8188862818       17.8914448903        5.9486668953  W2        6817            0.0000000000
     16830      5610  TIP3      H2            -38.8917162818       17.8188048903        7.0143168953  W2        6817            0.0000000000
     16831      5611  TIP3      OH2           -32.5150362818       17.4092948903       10.5500168953  W2        6818            0.0000000000
     16832      5611  TIP3      H1            -31.6406962818       17.7977248903       10.5204468953  W2        6818            0.0000000000
     16833      5611  TIP3      H2            -32.6509562818       17.1940748903       11.4727368953  W2        6818            0.0000000000
     16834      5612  TIP3      OH2           -26.9581962818       17.4392748903       12.1991868953  W2        6819            0.0000000000
     16835      5612  TIP3      H1            -26.8820362818       17.5344348903       11.2497868953  W2        6819            0.0000000000
     16836      5612  TIP3      H2            -27.2332762818       16.5315648903       12.3280968953  W2        6819            0.0000000000
     16837      5613  TIP3      OH2           -25.6049362818       17.4650548903        7.8916868953  W2        6820            0.0000000000
     16838      5613  TIP3      H1            -26.3078262818       18.0799748903        7.6818268953  W2        6820            0.0000000000
     16839      5613  TIP3      H2            -26.0497962818       16.6277248903        8.0227768953  W2        6820            0.0000000000
     16840      5614  TIP3      OH2           -38.3570062818       33.2286148903        7.4378268953  W2        6821            0.0000000000
     16841      5614  TIP3      H1            -39.0420162818       33.1905048903        6.7703368953  W2        6821            0.0000000000
     16842      5614  TIP3      H2            -38.3532862818       34.1413748903        7.7260368953  W2        6821            0.0000000000
     16843      5615  TIP3      OH2           -36.3970462818       19.1965448903        4.9827268953  W2        6822            0.0000000000
     16844      5615  TIP3      H1            -35.9057062818       18.5667848903        4.4552768953  W2        6822            0.0000000000
     16845      5615  TIP3      H2            -35.7734162818       19.4924848903        5.6458468953  W2        6822            0.0000000000
     16846      5616  TIP3      OH2           -31.3710362818       19.4896948903        7.4397768953  W2        6823            0.0000000000
     16847      5616  TIP3      H1            -31.1929062818       18.8430148903        8.1226368953  W2        6823            0.0000000000
     16848      5616  TIP3      H2            -31.4244162818       20.3234648903        7.9068868953  W2        6823            0.0000000000
     16849      5617  TIP3      OH2           -29.4926562818       34.4381048903        5.8354468953  W2        6824            0.0000000000
     16850      5617  TIP3      H1            -28.6266362818       34.8048448903        5.6572668953  W2        6824            0.0000000000
     16851      5617  TIP3      H2            -29.7393762818       33.9989048903        5.0215268953  W2        6824            0.0000000000
     16852      5618  TIP3      OH2           -22.7836962818       34.0011348903        8.5145568953  W2        6825            0.0000000000
     16853      5618  TIP3      H1            -22.9779862818       33.2533448903        7.9495168953  W2        6825            0.0000000000
     16854      5618  TIP3      H2            -22.8226862818       34.7591448903        7.9313468953  W2        6825            0.0000000000
     16855      5619  TIP3      OH2           -36.5388862818       34.1486948903        4.4630368953  W2        6828            0.0000000000
     16856      5619  TIP3      H1            -36.8064262818       34.4349848903        5.3363468953  W2        6828            0.0000000000
     16857      5619  TIP3      H2            -35.7676262818       33.6026148903        4.6152868953  W2        6828            0.0000000000
     16858      5620  TIP3      OH2            -9.1600362818       26.6388148903       10.6954568953  W2        6831            0.0000000000
     16859      5620  TIP3      H1             -9.0709262818       27.5826348903       10.5631668953  W2        6831            0.0000000000
     16860      5620  TIP3      H2             -9.7982762818       26.3634548903       10.0373968953  W2        6831            0.0000000000
     16861      5621  TIP3      OH2           -10.2269062818       25.8938848903       14.1142768953  W2        6832            0.0000000000
     16862      5621  TIP3      H1            -10.2651562818       25.2475148903       14.8192368953  W2        6832            0.0000000000
     16863      5621  TIP3      H2            -10.5492562818       25.4273248903       13.3431468953  W2        6832            0.0000000000
     16864      5622  TIP3      OH2            -6.5208862818       28.8329248903       12.4157868953  W2        6834            0.0000000000
     16865      5622  TIP3      H1             -6.9616162818       28.1125248903       12.8663468953  W2        6834            0.0000000000
     16866      5622  TIP3      H2             -6.5339162818       29.5536448903       13.0455568953  W2        6834            0.0000000000
     16867      5623  TIP3      OH2           -16.9350962818       29.9579848903       14.2421768953  W2        6835            0.0000000000
     16868      5623  TIP3      H1            -17.3045762818       29.1560348903       13.8726068953  W2        6835            0.0000000000
     16869      5623  TIP3      H2            -15.9939862818       29.7894748903       14.2885168953  W2        6835            0.0000000000
     16870      5624  TIP3      OH2           -20.3250462818       23.6182448903        9.6350568953  W2        6836            0.0000000000
     16871      5624  TIP3      H1            -20.7727062818       24.4641148903        9.6167068953  W2        6836            0.0000000000
     16872      5624  TIP3      H2            -20.8859262818       23.0386648903        9.1195668953  W2        6836            0.0000000000
     16873      5625  TIP3      OH2           -19.6144362818       25.7802048903       11.7608568953  W2        6837            0.0000000000
     16874      5625  TIP3      H1            -19.4010862818       25.0103648903       12.2881568953  W2        6837            0.0000000000
     16875      5625  TIP3      H2            -18.8766762818       25.8698748903       11.1576168953  W2        6837            0.0000000000
     16876      5626  TIP3      OH2            -9.4093362818       33.9370948903       12.6278268953  W2        6838            0.0000000000
     16877      5626  TIP3      H1             -8.7896962818       33.2605648903       12.3547468953  W2        6838            0.0000000000
     16878      5626  TIP3      H2             -9.6175962818       33.7191748903       13.5363168953  W2        6838            0.0000000000
     16879      5627  TIP3      OH2           -11.8374662818       28.3260248903       14.5203768953  W2        6839            0.0000000000
     16880      5627  TIP3      H1            -11.5336762818       27.6401648903       13.9257868953  W2        6839            0.0000000000
     16881      5627  TIP3      H2            -11.1160662818       28.4448948903       15.1381768953  W2        6839            0.0000000000
     16882      5628  TIP3      OH2            -8.6967662818       22.7202648903       14.8478568953  W2        6841            0.0000000000
     16883      5628  TIP3      H1             -8.5541762818       21.7739648903       14.8680168953  W2        6841            0.0000000000
     16884      5628  TIP3      H2             -8.8028662818       22.9272448903       13.9193468953  W2        6841            0.0000000000
     16885      5629  TIP3      OH2           -15.5419362818       20.8219048903       12.1203368953  W2        6842            0.0000000000
     16886      5629  TIP3      H1            -15.4988262818       21.6817548903       11.7019668953  W2        6842            0.0000000000
     16887      5629  TIP3      H2            -15.9995262818       20.2693748903       11.4866568953  W2        6842            0.0000000000
     16888      5630  TIP3      OH2            -7.8196662818       20.9524648903       10.5211668953  W2        6843            0.0000000000
     16889      5630  TIP3      H1             -7.1732362818       20.6237848903       11.1459268953  W2        6843            0.0000000000
     16890      5630  TIP3      H2             -7.3097262818       21.4703648903        9.8983068953  W2        6843            0.0000000000
     16891      5631  TIP3      OH2           -18.9217862818       23.2184848903       12.8824768953  W2        6844            0.0000000000
     16892      5631  TIP3      H1            -18.2681262818       22.6686548903       13.3144868953  W2        6844            0.0000000000
     16893      5631  TIP3      H2            -18.8978562818       22.9443848903       11.9656768953  W2        6844            0.0000000000
     16894      5632  TIP3      OH2           -13.7653362818       24.7686148903       12.0976268953  W2        6845            0.0000000000
     16895      5632  TIP3      H1            -13.1492362818       24.2421548903       12.6070268953  W2        6845            0.0000000000
     16896      5632  TIP3      H2            -14.3514562818       24.1284848903       11.6939868953  W2        6845            0.0000000000
     16897      5633  TIP3      OH2            -9.3627662818       29.2398548903        9.7383268953  W2        6848            0.0000000000
     16898      5633  TIP3      H1             -9.6582562818       28.9170848903        8.8870168953  W2        6848            0.0000000000
     16899      5633  TIP3      H2             -9.6869862818       30.1395248903        9.7795868953  W2        6848            0.0000000000
     16900      5634  TIP3      OH2            -6.0558262818       20.2433948903       12.5017568953  W2        6850            0.0000000000
     16901      5634  TIP3      H1             -6.2710262818       19.4777348903       13.0343568953  W2        6850            0.0000000000
     16902      5634  TIP3      H2             -5.4000862818       20.7158548903       13.0146068953  W2        6850            0.0000000000
     16903      5635  TIP3      OH2           -17.1380162818       21.6319248903       14.1466368953  W2        6851            0.0000000000
     16904      5635  TIP3      H1            -16.5243862818       22.2646848903       14.5198768953  W2        6851            0.0000000000
     16905      5635  TIP3      H2            -16.6259462818       21.1594248903       13.4903268953  W2        6851            0.0000000000
     16906      5636  TIP3      OH2           -19.6340862818       29.0504048903        8.0508668953  W2        6853            0.0000000000
     16907      5636  TIP3      H1            -19.9059962818       29.2795048903        7.1621568953  W2        6853            0.0000000000
     16908      5636  TIP3      H2            -19.5885162818       29.8882848903        8.5113968953  W2        6853            0.0000000000
     16909      5637  TIP3      OH2            -6.0091162818       30.6719948903       14.7637168953  W2        6854            0.0000000000
     16910      5637  TIP3      H1             -6.9507462818       30.7303848903       14.9254068953  W2        6854            0.0000000000
     16911      5637  TIP3      H2             -5.7325062818       31.5780448903       14.6266868953  W2        6854            0.0000000000
     16912      5638  TIP3      OH2           -12.7052762818       17.0452548903       13.6469068953  W2        6856            0.0000000000
     16913      5638  TIP3      H1            -12.8228562818       16.0968548903       13.5927368953  W2        6856            0.0000000000
     16914      5638  TIP3      H2            -13.5602662818       17.3778648903       13.9200168953  W2        6856            0.0000000000
     16915      5639  TIP3      OH2            -7.7569962818       32.4533448903       11.3888768953  W2        6857            0.0000000000
     16916      5639  TIP3      H1             -7.3317662818       31.7461348903       10.9038368953  W2        6857            0.0000000000
     16917      5639  TIP3      H2             -7.4399962818       33.2546148903       10.9720968953  W2        6857            0.0000000000
     16918      5640  TIP3      OH2            -6.5973462818       30.3541948903        9.8975368953  W2        6858            0.0000000000
     16919      5640  TIP3      H1             -6.8548662818       29.6642048903        9.2861268953  W2        6858            0.0000000000
     16920      5640  TIP3      H2             -6.5262662818       29.9113148903       10.7431268953  W2        6858            0.0000000000
     16921      5641  TIP3      OH2           -10.4387862818       25.8828148903        8.1474868953  W2        6860            0.0000000000
     16922      5641  TIP3      H1            -11.1502362818       26.4177848903        7.7955368953  W2        6860            0.0000000000
     16923      5641  TIP3      H2             -9.7478262818       25.9380248903        7.4873768953  W2        6860            0.0000000000
     16924      5642  TIP3      OH2           -10.3848662818       24.3402448903        5.1859868953  W2        6861            0.0000000000
     16925      5642  TIP3      H1             -9.6838762818       24.3629348903        5.8373868953  W2        6861            0.0000000000
     16926      5642  TIP3      H2            -10.0825762818       23.7122148903        4.5299168953  W2        6861            0.0000000000
     16927      5643  TIP3      OH2            -7.0330162818       26.0921448903        9.0990768953  W2        6863            0.0000000000
     16928      5643  TIP3      H1             -7.7649162818       26.3205148903        9.6721368953  W2        6863            0.0000000000
     16929      5643  TIP3      H2             -6.5857962818       25.3784148903        9.5538268953  W2        6863            0.0000000000
     16930      5644  TIP3      OH2           -15.3876462818       26.7227648903       10.9815768953  W2        6865            0.0000000000
     16931      5644  TIP3      H1            -15.7181262818       26.3521048903       10.1632768953  W2        6865            0.0000000000
     16932      5644  TIP3      H2            -14.7992362818       26.0521648903       11.3284068953  W2        6865            0.0000000000
     16933      5645  TIP3      OH2           -14.0208962818       30.1508248903       13.6627968953  W2        6866            0.0000000000
     16934      5645  TIP3      H1            -14.1157662818       29.5721348903       12.9062568953  W2        6866            0.0000000000
     16935      5645  TIP3      H2            -13.2915362818       29.7793948903       14.1590768953  W2        6866            0.0000000000
     16936      5646  TIP3      OH2           -15.0210962818       25.4913248903       14.6150768953  W2        6867            0.0000000000
     16937      5646  TIP3      H1            -14.4558462818       25.6127448903       13.8521968953  W2        6867            0.0000000000
     16938      5646  TIP3      H2            -14.7022062818       26.1288248903       15.2539268953  W2        6867            0.0000000000
     16939      5647  TIP3      OH2            -8.1620662818       25.2544348903        6.7841968953  W2        6870            0.0000000000
     16940      5647  TIP3      H1             -7.5825162818       25.4044648903        7.5310868953  W2        6870            0.0000000000
     16941      5647  TIP3      H2             -7.7480662818       25.7251748903        6.0608368953  W2        6870            0.0000000000
     16942      5648  TIP3      OH2           -10.4355762818       31.9912848903       10.2195068953  W2        6872            0.0000000000
     16943      5648  TIP3      H1             -9.9618162818       32.2869148903       10.9969268953  W2        6872            0.0000000000
     16944      5648  TIP3      H2            -10.9986462818       32.7294448903        9.9864668953  W2        6872            0.0000000000
     16945      5649  TIP3      OH2            -4.4632262818       17.0044748903        6.5971668953  W2        6874            0.0000000000
     16946      5649  TIP3      H1             -5.3631562818       17.1433748903        6.8922268953  W2        6874            0.0000000000
     16947      5649  TIP3      H2             -4.2113862818       17.8359348903        6.1953368953  W2        6874            0.0000000000
     16948      5650  TIP3      OH2           -16.3973762818       25.7921948903        8.5708568953  W2        6875            0.0000000000
     16949      5650  TIP3      H1            -16.6892462818       26.5603648903        8.0799868953  W2        6875            0.0000000000
     16950      5650  TIP3      H2            -17.0718562818       25.1328148903        8.4079968953  W2        6875            0.0000000000
     16951      5651  TIP3      OH2            -3.2740862818       31.3707148903        4.9735568953  W2        6876            0.0000000000
     16952      5651  TIP3      H1             -3.2007362818       32.3097348903        5.1440868953  W2        6876            0.0000000000
     16953      5651  TIP3      H2             -2.3685762818       31.0655748903        4.9172868953  W2        6876            0.0000000000
     16954      5652  TIP3      OH2           -20.5540962818       30.9354948903       14.2698568953  W2        6878            0.0000000000
     16955      5652  TIP3      H1            -19.6080362818       30.7911948903       14.2508068953  W2        6878            0.0000000000
     16956      5652  TIP3      H2            -20.6664662818       31.7197748903       14.8069768953  W2        6878            0.0000000000
     16957      5653  TIP3      OH2           -10.9632662818       34.9477548903        8.6344268953  W2        6881            0.0000000000
     16958      5653  TIP3      H1            -11.0386662818       34.8264748903        7.6879468953  W2        6881            0.0000000000
     16959      5653  TIP3      H2            -10.9303962818       35.8970248903        8.7528868953  W2        6881            0.0000000000
     16960      5654  TIP3      OH2           -17.3098862818       33.7364548903       10.4153268953  W2        6882            0.0000000000
     16961      5654  TIP3      H1            -17.1578462818       33.3884948903       11.2939768953  W2        6882            0.0000000000
     16962      5654  TIP3      H2            -18.1608462818       33.3801848903       10.1600468953  W2        6882            0.0000000000
     16963      5655  TIP3      OH2            -7.8616662818       34.1017748903        5.6366668953  W2        6883            0.0000000000
     16964      5655  TIP3      H1             -7.4868262818       33.3573848903        5.1659268953  W2        6883            0.0000000000
     16965      5655  TIP3      H2             -7.8572962818       33.8318348903        6.5549968953  W2        6883            0.0000000000
     16966      5656  TIP3      OH2            -8.1928562818       34.0274848903        8.3858868953  W2        6884            0.0000000000
     16967      5656  TIP3      H1             -9.1278762818       34.1276748903        8.5645868953  W2        6884            0.0000000000
     16968      5656  TIP3      H2             -7.9126662818       33.3180848903        8.9642068953  W2        6884            0.0000000000
     16969      5657  TIP3      OH2           -15.4365162818       17.9487048903       14.4245368953  W2        6887            0.0000000000
     16970      5657  TIP3      H1            -16.2981462818       17.8615248903       14.0168268953  W2        6887            0.0000000000
     16971      5657  TIP3      H2            -15.4589462818       18.8047148903       14.8522968953  W2        6887            0.0000000000
     16972      5658  TIP3      OH2            -6.6847562818       26.2872648903        4.4139868953  W2        6890            0.0000000000
     16973      5658  TIP3      H1             -6.6426762818       26.0646548903        3.4839868953  W2        6890            0.0000000000
     16974      5658  TIP3      H2             -5.8355462818       26.6859748903        4.6039768953  W2        6890            0.0000000000
     16975      5659  TIP3      OH2           -11.1120062818       20.1630848903        5.0843168953  W2        6891            0.0000000000
     16976      5659  TIP3      H1            -11.3655262818       20.1822448903        6.0071268953  W2        6891            0.0000000000
     16977      5659  TIP3      H2            -11.3687962818       19.2916248903        4.7829368953  W2        6891            0.0000000000
     16978      5660  TIP3      OH2           -15.3485962818       23.1351648903       10.4315568953  W2        6893            0.0000000000
     16979      5660  TIP3      H1            -16.2413062818       22.7947748903       10.3729368953  W2        6893            0.0000000000
     16980      5660  TIP3      H2            -14.8979362818       22.7582548903        9.6758768953  W2        6893            0.0000000000
     16981      5661  TIP3      OH2            -9.8130462818       23.5511948903        9.2486368953  W2        6894            0.0000000000
     16982      5661  TIP3      H1            -10.2220162818       24.3660548903        8.9571168953  W2        6894            0.0000000000
     16983      5661  TIP3      H2             -9.0924262818       23.4112048903        8.6343468953  W2        6894            0.0000000000
     16984      5662  TIP3      OH2            -8.8082762818       22.9972348903       12.0626068953  W2        6896            0.0000000000
     16985      5662  TIP3      H1             -9.0038262818       23.6029148903       11.3476668953  W2        6896            0.0000000000
     16986      5662  TIP3      H2             -8.6270162818       22.1637548903       11.6282368953  W2        6896            0.0000000000
     16987      5663  TIP3      OH2           -14.2297162818       20.6087348903        4.1853568953  W2        6898            0.0000000000
     16988      5663  TIP3      H1            -14.6606462818       20.1637448903        4.9150968953  W2        6898            0.0000000000
     16989      5663  TIP3      H2            -14.9478462818       20.9803648903        3.6731068953  W2        6898            0.0000000000
     16990      5664  TIP3      OH2           -20.9873762818       20.3506848903       11.2372268953  W2        6899            0.0000000000
     16991      5664  TIP3      H1            -20.3566062818       20.3218948903       11.9566168953  W2        6899            0.0000000000
     16992      5664  TIP3      H2            -20.5379462818       19.9255548903       10.5068168953  W2        6899            0.0000000000
     16993      5665  TIP3      OH2           -19.7131662818       21.0968848903        6.6612668953  W2        6900            0.0000000000
     16994      5665  TIP3      H1            -19.2389962818       21.6878748903        6.0763568953  W2        6900            0.0000000000
     16995      5665  TIP3      H2            -20.4305262818       21.6271748903        7.0082768953  W2        6900            0.0000000000
     16996      5666  TIP3      OH2           -12.7670662818       20.5629148903       11.5179668953  W2        6902            0.0000000000
     16997      5666  TIP3      H1            -13.6779562818       20.6195948903       11.8065668953  W2        6902            0.0000000000
     16998      5666  TIP3      H2            -12.2617762818       20.5024648903       12.3286868953  W2        6902            0.0000000000
     16999      5667  TIP3      OH2           -17.9387262818       22.1915448903       10.3447268953  W2        6903            0.0000000000
     17000      5667  TIP3      H1            -18.8279262818       22.2910948903       10.0046868953  W2        6903            0.0000000000
     17001      5667  TIP3      H2            -17.6422362818       21.3498448903        9.9985168953  W2        6903            0.0000000000
     17002      5668  TIP3      OH2           -14.2855462818       22.1918048903        8.0011868953  W2        6904            0.0000000000
     17003      5668  TIP3      H1            -13.3539962818       22.3208048903        8.1794968953  W2        6904            0.0000000000
     17004      5668  TIP3      H2            -14.5005162818       22.8612348903        7.3516568953  W2        6904            0.0000000000
     17005      5669  TIP3      OH2            -8.3618762818       19.7975448903       14.7821468953  W2        6905            0.0000000000
     17006      5669  TIP3      H1             -9.0387162818       19.9288548903       15.4461168953  W2        6905            0.0000000000
     17007      5669  TIP3      H2             -8.8473862818       19.6424948903       13.9719168953  W2        6905            0.0000000000
     17008      5670  TIP3      OH2           -15.6115262818       23.3860248903        5.5677968953  W2        6906            0.0000000000
     17009      5670  TIP3      H1            -16.1540162818       23.0064048903        4.8765568953  W2        6906            0.0000000000
     17010      5670  TIP3      H2            -14.7780362818       23.5804948903        5.1392068953  W2        6906            0.0000000000
     17011      5671  TIP3      OH2           -11.4470962818       23.3502148903       13.4049268953  W2        6909            0.0000000000
     17012      5671  TIP3      H1            -10.8827562818       22.8038748903       12.8578868953  W2        6909            0.0000000000
     17013      5671  TIP3      H2            -11.5947562818       22.8284048903       14.1936868953  W2        6909            0.0000000000
     17014      5672  TIP3      OH2           -16.4451262818       19.4868248903        9.8234068953  W2        6910            0.0000000000
     17015      5672  TIP3      H1            -16.7621762818       18.5843548903        9.7879468953  W2        6910            0.0000000000
     17016      5672  TIP3      H2            -15.6637162818       19.4885648903        9.2705668953  W2        6910            0.0000000000
     17017      5673  TIP3      OH2           -12.2762462818       27.9515948903        7.5036068953  W2        6912            0.0000000000
     17018      5673  TIP3      H1            -13.0211462818       27.4441248903        7.1813968953  W2        6912            0.0000000000
     17019      5673  TIP3      H2            -12.4105262818       28.0003948903        8.4500868953  W2        6912            0.0000000000
     17020      5674  TIP3      OH2            -8.3785662818       20.7655848903        5.7028668953  W2        6914            0.0000000000
     17021      5674  TIP3      H1             -9.3171462818       20.8771448903        5.5517468953  W2        6914            0.0000000000
     17022      5674  TIP3      H2             -8.0813562818       21.6222748903        6.0094368953  W2        6914            0.0000000000
     17023      5675  TIP3      OH2            -7.6602162818       22.6328548903        7.3636068953  W2        6916            0.0000000000
     17024      5675  TIP3      H1             -6.7683162818       22.4953548903        7.6827268953  W2        6916            0.0000000000
     17025      5675  TIP3      H2             -7.6038562818       23.4234648903        6.8269568953  W2        6916            0.0000000000
     17026      5676  TIP3      OH2           -17.1514162818       27.2465948903       13.2733968953  W2        6917            0.0000000000
     17027      5676  TIP3      H1            -16.4066962818       27.2441648903       12.6720468953  W2        6917            0.0000000000
     17028      5676  TIP3      H2            -17.0737562818       26.4229748903       13.7549068953  W2        6917            0.0000000000
     17029      5677  TIP3      OH2           -10.1508362818       29.4100248903        6.5290668953  W2        6918            0.0000000000
     17030      5677  TIP3      H1            -10.4459962818       30.2368148903        6.9105468953  W2        6918            0.0000000000
     17031      5677  TIP3      H2            -10.8538362818       28.7907148903        6.7252068953  W2        6918            0.0000000000
     17032      5678  TIP3      OH2            -2.7753462818       22.8422648903        7.0582768953  W2        6922            0.0000000000
     17033      5678  TIP3      H1             -3.3297162818       22.4460648903        6.3860268953  W2        6922            0.0000000000
     17034      5678  TIP3      H2             -2.6749862818       23.7527848903        6.7806068953  W2        6922            0.0000000000
     17035      5679  TIP3      OH2            -4.4801762818       31.6283048903        7.5234868953  W2        6924            0.0000000000
     17036      5679  TIP3      H1             -4.8530662818       30.8026848903        7.8325468953  W2        6924            0.0000000000
     17037      5679  TIP3      H2             -4.2028262818       31.4452448903        6.6258268953  W2        6924            0.0000000000
     17038      5680  TIP3      OH2            -7.3197862818       26.4362548903       14.5446768953  W2        6925            0.0000000000
     17039      5680  TIP3      H1             -8.2480962818       26.2044448903       14.5176068953  W2        6925            0.0000000000
     17040      5680  TIP3      H2             -6.8686762818       25.6592348903       14.2145568953  W2        6925            0.0000000000
     17041      5681  TIP3      OH2           -14.7764762818       30.7644148903       10.6775468953  W2        6926            0.0000000000
     17042      5681  TIP3      H1            -14.2492562818       31.5378548903       10.4774268953  W2        6926            0.0000000000
     17043      5681  TIP3      H2            -15.6566262818       30.9893348903       10.3759468953  W2        6926            0.0000000000
     17044      5682  TIP3      OH2           -19.0217062818       25.6268248903        5.2647868953  W2        6927            0.0000000000
     17045      5682  TIP3      H1            -18.4057162818       26.2535448903        5.6442668953  W2        6927            0.0000000000
     17046      5682  TIP3      H2            -19.8834462818       25.9428048903        5.5364368953  W2        6927            0.0000000000
     17047      5683  TIP3      OH2           -13.3492462818       28.4274048903       10.2539768953  W2        6928            0.0000000000
     17048      5683  TIP3      H1            -13.5902462818       29.3528448903       10.2955068953  W2        6928            0.0000000000
     17049      5683  TIP3      H2            -14.0898862818       27.9685348903       10.6503668953  W2        6928            0.0000000000
     17050      5684  TIP3      OH2           -14.6661662818       33.4491648903        9.7991968953  W2        6930            0.0000000000
     17051      5684  TIP3      H1            -15.6161162818       33.5549048903        9.8505268953  W2        6930            0.0000000000
     17052      5684  TIP3      H2            -14.3143562818       34.2699048903       10.1439468953  W2        6930            0.0000000000
     17053      5685  TIP3      OH2            -7.0876162818       29.6048848903        5.3435468953  W2        6932            0.0000000000
     17054      5685  TIP3      H1             -6.7343062818       29.2248648903        6.1478968953  W2        6932            0.0000000000
     17055      5685  TIP3      H2             -8.0362662818       29.5113648903        5.4304768953  W2        6932            0.0000000000
     17056      5686  TIP3      OH2            -2.5841762818       34.0841348903        5.5445668953  W2        6934            0.0000000000
     17057      5686  TIP3      H1             -1.8403862818       34.6701848903        5.4047268953  W2        6934            0.0000000000
     17058      5686  TIP3      H2             -3.2783662818       34.6527148903        5.8778068953  W2        6934            0.0000000000
     17059      5687  TIP3      OH2            -6.2216862818       28.2770848903        7.5703368953  W2        6936            0.0000000000
     17060      5687  TIP3      H1             -6.4989262818       27.5490148903        8.1264468953  W2        6936            0.0000000000
     17061      5687  TIP3      H2             -5.2943862818       28.3962848903        7.7755968953  W2        6936            0.0000000000
     17062      5688  TIP3      OH2           -12.9968362818       30.7164948903        3.7905468953  W2        6938            0.0000000000
     17063      5688  TIP3      H1            -12.7578562818       29.9683048903        3.2434368953  W2        6938            0.0000000000
     17064      5688  TIP3      H2            -13.2657062818       30.3286648903        4.6233268953  W2        6938            0.0000000000
     17065      5689  TIP3      OH2           -14.0597762818       30.2868748903        6.2468068953  W2        6939            0.0000000000
     17066      5689  TIP3      H1            -13.9129762818       29.7668548903        7.0368968953  W2        6939            0.0000000000
     17067      5689  TIP3      H2            -14.0626062818       31.1936348903        6.5533968953  W2        6939            0.0000000000
     17068      5690  TIP3      OH2           -17.6066662818       27.5392048903        6.7573468953  W2        6940            0.0000000000
     17069      5690  TIP3      H1            -18.2927362818       27.8914548903        7.3243168953  W2        6940            0.0000000000
     17070      5690  TIP3      H2            -17.0838762818       28.3021648903        6.5107768953  W2        6940            0.0000000000
     17071      5691  TIP3      OH2            -8.9906662818       19.8537548903        8.1334768953  W2        6942            0.0000000000
     17072      5691  TIP3      H1             -8.7708362818       20.3252948903        7.3300168953  W2        6942            0.0000000000
     17073      5691  TIP3      H2             -8.4322662818       20.2480148903        8.8035368953  W2        6942            0.0000000000
     17074      5692  TIP3      OH2           -11.3220562818       31.9842348903        6.9962268953  W2        6943            0.0000000000
     17075      5692  TIP3      H1            -12.1384462818       32.4812048903        7.0486568953  W2        6943            0.0000000000
     17076      5692  TIP3      H2            -10.7924262818       32.4595848903        6.3561068953  W2        6943            0.0000000000
     17077      5693  TIP3      OH2           -11.7906762818       21.5816348903        8.9683168953  W2        6944            0.0000000000
     17078      5693  TIP3      H1            -10.9784162818       22.0859548903        9.0144868953  W2        6944            0.0000000000
     17079      5693  TIP3      H2            -12.0353762818       21.4366048903        9.8822768953  W2        6944            0.0000000000
     17080      5694  TIP3      OH2           -10.9070062818       18.6629348903        9.9064268953  W2        6946            0.0000000000
     17081      5694  TIP3      H1            -11.2536562818       19.2799948903       10.5508568953  W2        6946            0.0000000000
     17082      5694  TIP3      H2            -10.2483162818       19.1635048903        9.4249768953  W2        6946            0.0000000000
     17083      5695  TIP3      OH2           -13.9837462818       33.0279548903        6.9779168953  W2        6947            0.0000000000
     17084      5695  TIP3      H1            -13.8228762818       33.8277048903        6.4771768953  W2        6947            0.0000000000
     17085      5695  TIP3      H2            -14.1809662818       33.3345548903        7.8629768953  W2        6947            0.0000000000
     17086      5696  TIP3      OH2           -15.2493062818       19.7258748903        6.5936768953  W2        6948            0.0000000000
     17087      5696  TIP3      H1            -15.3328262818       20.6141848903        6.9403168953  W2        6948            0.0000000000
     17088      5696  TIP3      H2            -14.3592762818       19.4605448903        6.8253568953  W2        6948            0.0000000000
     17089      5697  TIP3      OH2            -6.4483562818       24.2250348903       13.0836768953  W2        6950            0.0000000000
     17090      5697  TIP3      H1             -7.2459162818       23.8100548903       12.7551768953  W2        6950            0.0000000000
     17091      5697  TIP3      H2             -6.0032462818       23.5344048903       13.5747268953  W2        6950            0.0000000000
     17092      5698  TIP3      OH2           -16.9907762818       30.1530948903        5.6541268953  W2        6951            0.0000000000
     17093      5698  TIP3      H1            -16.3986262818       30.8525748903        5.9303668953  W2        6951            0.0000000000
     17094      5698  TIP3      H2            -16.5314762818       29.7200448903        4.9345868953  W2        6951            0.0000000000
     17095      5699  TIP3      OH2           -18.6748562818       22.8173948903        4.7700668953  W2        6952            0.0000000000
     17096      5699  TIP3      H1            -18.7195962818       23.7567048903        4.9487668953  W2        6952            0.0000000000
     17097      5699  TIP3      H2            -19.5625362818       22.5818848903        4.5002768953  W2        6952            0.0000000000
     17098      5700  TIP3      OH2            -5.3618962818       33.4812848903       14.7060268953  W2        6953            0.0000000000
     17099      5700  TIP3      H1             -5.5174662818       34.1597248903       14.0489568953  W2        6953            0.0000000000
     17100      5700  TIP3      H2             -4.4292562818       33.5532148903       14.9090868953  W2        6953            0.0000000000
     17101      5701  TIP3      OH2           -17.8666562818       17.5990548903       13.4431668953  W2        6954            0.0000000000
     17102      5701  TIP3      H1            -18.0956762818       17.6583048903       12.5156668953  W2        6954            0.0000000000
     17103      5701  TIP3      H2            -18.3093162818       16.8076048903       13.7495768953  W2        6954            0.0000000000
     17104      5702  TIP3      OH2           -18.9363262818       31.5397648903        9.6037468953  W2        6955            0.0000000000
     17105      5702  TIP3      H1            -19.7684662818       32.0120348903        9.6308868953  W2        6955            0.0000000000
     17106      5702  TIP3      H2            -18.3904962818       32.0495248903        9.0050568953  W2        6955            0.0000000000
     17107      5703  TIP3      OH2           -10.9586562818       32.5796348903        3.9291468953  W2        6958            0.0000000000
     17108      5703  TIP3      H1            -11.6025562818       31.9484948903        4.2505168953  W2        6958            0.0000000000
     17109      5703  TIP3      H2            -10.1968262818       32.0484348903        3.6974968953  W2        6958            0.0000000000
     17110      5704  TIP3      OH2            -6.3543662818       32.3966248903        4.1629468953  W2        6960            0.0000000000
     17111      5704  TIP3      H1             -6.0713262818       31.6021448903        4.6156368953  W2        6960            0.0000000000
     17112      5704  TIP3      H2             -5.6145762818       32.6297248903        3.6020568953  W2        6960            0.0000000000
     17113      5705  TIP3      OH2           -15.3996362818       28.3061148903        4.0204368953  W2        6962            0.0000000000
     17114      5705  TIP3      H1            -15.3352262818       27.5120748903        4.5510768953  W2        6962            0.0000000000
     17115      5705  TIP3      H2            -14.7467162818       28.1873948903        3.3306368953  W2        6962            0.0000000000
     17116      5706  TIP3      OH2           -10.0472962818       29.3532848903        3.7562368953  W2        6964            0.0000000000
     17117      5706  TIP3      H1            -10.3158862818       29.5334948903        4.6571268953  W2        6964            0.0000000000
     17118      5706  TIP3      H2            -10.2537362818       28.4279048903        3.6248168953  W2        6964            0.0000000000
     17119      5707  TIP3      OH2           -14.2502562818       26.2787348903        6.3262368953  W2        6967            0.0000000000
     17120      5707  TIP3      H1            -14.7100562818       25.7945648903        7.0120868953  W2        6967            0.0000000000
     17121      5707  TIP3      H2            -13.9953862818       25.6102748903        5.6902868953  W2        6967            0.0000000000
     17122      5708  TIP3      OH2           -13.1792162818       24.5219148903        4.5885568953  W2        6969            0.0000000000
     17123      5708  TIP3      H1            -13.3597162818       24.3670348903        3.6613868953  W2        6969            0.0000000000
     17124      5708  TIP3      H2            -12.2291662818       24.6297848903        4.6333468953  W2        6969            0.0000000000
     17125      5709  TIP3      OH2            -3.7893862818       26.8763348903        4.0343668953  W2        6971            0.0000000000
     17126      5709  TIP3      H1             -4.0629062818       26.4518848903        3.2211968953  W2        6971            0.0000000000
     17127      5709  TIP3      H2             -3.7499762818       27.8077848903        3.8174068953  W2        6971            0.0000000000
     17128      5710  TIP3      OH2           -13.2820462818       35.2122848903        5.5899168953  W2        6985            0.0000000000
     17129      5710  TIP3      H1            -12.3489762818       35.3701548903        5.7337568953  W2        6985            0.0000000000
     17130      5710  TIP3      H2            -13.5461662818       35.8875848903        4.9650668953  W2        6985            0.0000000000
     17131      5711  TIP3      OH2           -19.7135562818       29.8486648903        5.0727268953  W2        6986            0.0000000000
     17132      5711  TIP3      H1            -18.7996362818       29.9275548903        5.3461168953  W2        6986            0.0000000000
     17133      5711  TIP3      H2            -19.7062462818       29.1616248903        4.4062868953  W2        6986            0.0000000000
     17134      5712  TIP3      OH2           -21.0644962818       35.2415148903       10.1501168953  W2        6987            0.0000000000
     17135      5712  TIP3      H1            -21.7117862818       34.7796848903        9.6172368953  W2        6987            0.0000000000
     17136      5712  TIP3      H2            -20.7100362818       34.5698448903       10.7327368953  W2        6987            0.0000000000
     17137      5713  TIP3      OH2           -20.1945762818       33.3222148903       11.9547368953  W2        6988            0.0000000000
     17138      5713  TIP3      H1            -20.5288962818       32.4419448903       12.1267568953  W2        6988            0.0000000000
     17139      5713  TIP3      H2            -19.9723362818       33.6677148903       12.8192968953  W2        6988            0.0000000000
     17140      5714  TIP3      OH2            -3.3311062818       27.7451448903        8.0094068953  W2        6992            0.0000000000
     17141      5714  TIP3      H1             -2.4809662818       28.1662348903        8.1365668953  W2        6992            0.0000000000
     17142      5714  TIP3      H2             -3.3255962818       27.0051548903        8.6165468953  W2        6992            0.0000000000
     17143      5715  TIP3      OH2            -2.9365462818       25.7988848903        9.8329768953  W2        6993            0.0000000000
     17144      5715  TIP3      H1             -3.6630862818       25.3191448903       10.2307368953  W2        6993            0.0000000000
     17145      5715  TIP3      H2             -2.3552162818       26.0043548903       10.5651368953  W2        6993            0.0000000000
     17146      5716  TIP3      OH2            -3.1774262818       28.5836348903       14.7807368953  W2        6994            0.0000000000
     17147      5716  TIP3      H1             -2.3440062818       28.2056348903       14.5000968953  W2        6994            0.0000000000
     17148      5716  TIP3      H2             -3.0653962818       29.5267548903       14.6616468953  W2        6994            0.0000000000
     17149      5717  TIP3      OH2            -2.6682362818       25.6997348903        6.2241068953  W2        6996            0.0000000000
     17150      5717  TIP3      H1             -3.1901262818       26.0561448903        5.5051968953  W2        6996            0.0000000000
     17151      5717  TIP3      H2             -2.7013162818       26.3745148903        6.9021968953  W2        6996            0.0000000000
     17152      5718  TIP3      OH2            -4.3193362818       22.9392948903        4.7748168953  W2        6997            0.0000000000
     17153      5718  TIP3      H1             -4.2228962818       23.6059948903        4.0947868953  W2        6997            0.0000000000
     17154      5718  TIP3      H2             -4.4593762818       22.1239248903        4.2933668953  W2        6997            0.0000000000
     17155      5719  TIP3      OH2            -5.1498662818       24.3195348903       10.3958468953  W2        6998            0.0000000000
     17156      5719  TIP3      H1             -5.2999862818       23.3743948903       10.3756268953  W2        6998            0.0000000000
     17157      5719  TIP3      H2             -5.5034162818       24.6006748903       11.2397568953  W2        6998            0.0000000000
     17158      5720  TIP3      OH2           -20.1146262818       26.3977548903       14.4062268953  W2        6999            0.0000000000
     17159      5720  TIP3      H1            -19.9303362818       26.3159248903       13.4705168953  W2        6999            0.0000000000
     17160      5720  TIP3      H2            -19.2653362818       26.2734548903       14.8298668953  W2        6999            0.0000000000
     17161      5721  TIP3      OH2            -5.0719562818       20.3472748903        3.8923668953  W2        7002            0.0000000000
     17162      5721  TIP3      H1             -4.4613762818       19.9759548903        4.5291868953  W2        7002            0.0000000000
     17163      5721  TIP3      H2             -5.9088062818       19.9259648903        4.0883668953  W2        7002            0.0000000000
     17164      5722  TIP3      OH2            -5.4393862818       21.9021148903        8.8583568953  W2        7003            0.0000000000
     17165      5722  TIP3      H1             -5.1596762818       20.9951548903        8.9825268953  W2        7003            0.0000000000
     17166      5722  TIP3      H2             -4.6802162818       22.3362648903        8.4692768953  W2        7003            0.0000000000
     17167      5723  TIP3      OH2            -4.8275562818       22.4838548903       14.2942468953  W2        7004            0.0000000000
     17168      5723  TIP3      H1             -3.8947562818       22.6958448903       14.2598468953  W2        7004            0.0000000000
     17169      5723  TIP3      H2             -5.0628062818       22.5850648903       15.2165468953  W2        7004            0.0000000000
     17170      5724  TIP3      OH2            -4.8259062818       19.1650448903        8.9065568953  W2        7008            0.0000000000
     17171      5724  TIP3      H1             -4.6434062818       18.7161948903        9.7320568953  W2        7008            0.0000000000
     17172      5724  TIP3      H2             -5.4256162818       18.5804848903        8.4430168953  W2        7008            0.0000000000
     17173      5725  TIP3      OH2           -19.2958962818       19.9804148903       13.4383968953  W2        7009            0.0000000000
     17174      5725  TIP3      H1            -18.8507362818       19.1886648903       13.7403668953  W2        7009            0.0000000000
     17175      5725  TIP3      H2            -18.8295962818       20.6969348903       13.8689568953  W2        7009            0.0000000000
     17176      5726  TIP3      OH2           -20.9918662818       22.9797148903       14.5074168953  W2        7010            0.0000000000
     17177      5726  TIP3      H1            -20.4998862818       22.7587648903       13.7166168953  W2        7010            0.0000000000
     17178      5726  TIP3      H2            -20.6297762818       23.8200548903       14.7883668953  W2        7010            0.0000000000
     17179      5727  TIP3      OH2            -2.9592862818       19.2328548903        5.4345868953  W2        7012            0.0000000000
     17180      5727  TIP3      H1             -2.5470262818       18.5114248903        4.9593868953  W2        7012            0.0000000000
     17181      5727  TIP3      H2             -2.2776362818       19.9023148903        5.4930168953  W2        7012            0.0000000000
     17182      5728  TIP3      OH2           -20.6782162818       19.2376248903        8.5616568953  W2        7013            0.0000000000
     17183      5728  TIP3      H1            -21.6033762818       19.4462848903        8.4322068953  W2        7013            0.0000000000
     17184      5728  TIP3      H2            -20.2242262818       19.7217048903        7.8718868953  W2        7013            0.0000000000
     17185      5729  TIP3      OH2            -5.9074962818       34.2217948903       10.5073968953  W2        7014            0.0000000000
     17186      5729  TIP3      H1             -5.2552062818       33.8740048903        9.8993068953  W2        7014            0.0000000000
     17187      5729  TIP3      H2             -5.3971162818       34.7101148903       11.1533668953  W2        7014            0.0000000000
     17188      5730  TIP3      OH2           -18.7519762818       34.0046948903       14.2665968953  W2        7026            0.0000000000
     17189      5730  TIP3      H1            -18.7703762818       33.5792048903       15.1238268953  W2        7026            0.0000000000
     17190      5730  TIP3      H2            -17.9471862818       33.6861948903       13.8578168953  W2        7026            0.0000000000
     17191      5731  TIP3      OH2           -16.6106662818       32.7145648903       12.9215868953  W2        7027            0.0000000000
     17192      5731  TIP3      H1            -16.8295962818       31.7983048903       13.0911868953  W2        7027            0.0000000000
     17193      5731  TIP3      H2            -15.7864462818       32.8546048903       13.3877268953  W2        7027            0.0000000000
     17194      5732  TIP3      OH2           -14.0734162818       33.1844948903       13.7703868953  W2        7028            0.0000000000
     17195      5732  TIP3      H1            -13.8608462818       32.2963948903       13.4834768953  W2        7028            0.0000000000
     17196      5732  TIP3      H2            -14.0089062818       33.1502648903       14.7247868953  W2        7028            0.0000000000
     17197      5733  TIP3      OH2           -10.5650462818       18.8485548903       12.9147168953  W2        7029            0.0000000000
     17198      5733  TIP3      H1            -11.2393662818       18.2191148903       13.1702968953  W2        7029            0.0000000000
     17199      5733  TIP3      H2            -10.0011262818       18.3644448903       12.3115068953  W2        7029            0.0000000000
     17200      5734  TIP3      OH2            -5.4223262818       16.9559548903       13.0274268953  W2        7030            0.0000000000
     17201      5734  TIP3      H1             -4.8185662818       17.5034948903       12.5255268953  W2        7030            0.0000000000
     17202      5734  TIP3      H2             -6.2921262818       17.2749948903       12.7868368953  W2        7030            0.0000000000
     17203      5735  TIP3      OH2            -3.6952862818       18.0948248903       11.3605168953  W2        7031            0.0000000000
     17204      5735  TIP3      H1             -3.0835362818       17.5803948903       10.8338768953  W2        7031            0.0000000000
     17205      5735  TIP3      H2             -3.3129462818       18.9720348903       11.3839568953  W2        7031            0.0000000000
     17206      5736  TIP3      OH2           -18.2382962818       17.4825848903       10.7367068953  W2        7032            0.0000000000
     17207      5736  TIP3      H1            -19.0153162818       17.2480748903       10.2292968953  W2        7032            0.0000000000
     17208      5736  TIP3      H2            -17.7079362818       16.6857948903       10.7455068953  W2        7032            0.0000000000
     17209      5737  TIP3      OH2           -19.4019562818       17.2803948903        6.5403168953  W2        7033            0.0000000000
     17210      5737  TIP3      H1            -18.9628862818       17.8914448903        5.9486668953  W2        7033            0.0000000000
     17211      5737  TIP3      H2            -20.0357162818       17.8188048903        7.0143168953  W2        7033            0.0000000000
     17212      5738  TIP3      OH2           -13.6590362818       17.4092948903       10.5500168953  W2        7034            0.0000000000
     17213      5738  TIP3      H1            -12.7846962818       17.7977248903       10.5204468953  W2        7034            0.0000000000
     17214      5738  TIP3      H2            -13.7949562818       17.1940748903       11.4727368953  W2        7034            0.0000000000
     17215      5739  TIP3      OH2            -8.1021962818       17.4392748903       12.1991868953  W2        7035            0.0000000000
     17216      5739  TIP3      H1             -8.0260362818       17.5344348903       11.2497868953  W2        7035            0.0000000000
     17217      5739  TIP3      H2             -8.3772762818       16.5315648903       12.3280968953  W2        7035            0.0000000000
     17218      5740  TIP3      OH2            -6.7489362818       17.4650548903        7.8916868953  W2        7036            0.0000000000
     17219      5740  TIP3      H1             -7.4518262818       18.0799748903        7.6818268953  W2        7036            0.0000000000
     17220      5740  TIP3      H2             -7.1937962818       16.6277248903        8.0227768953  W2        7036            0.0000000000
     17221      5741  TIP3      OH2           -19.5010062818       33.2286148903        7.4378268953  W2        7037            0.0000000000
     17222      5741  TIP3      H1            -20.1860162818       33.1905048903        6.7703368953  W2        7037            0.0000000000
     17223      5741  TIP3      H2            -19.4972862818       34.1413748903        7.7260368953  W2        7037            0.0000000000
     17224      5742  TIP3      OH2           -17.5410462818       19.1965448903        4.9827268953  W2        7038            0.0000000000
     17225      5742  TIP3      H1            -17.0497062818       18.5667848903        4.4552768953  W2        7038            0.0000000000
     17226      5742  TIP3      H2            -16.9174162818       19.4924848903        5.6458468953  W2        7038            0.0000000000
     17227      5743  TIP3      OH2           -12.5150362818       19.4896948903        7.4397768953  W2        7039            0.0000000000
     17228      5743  TIP3      H1            -12.3369062818       18.8430148903        8.1226368953  W2        7039            0.0000000000
     17229      5743  TIP3      H2            -12.5684162818       20.3234648903        7.9068868953  W2        7039            0.0000000000
     17230      5744  TIP3      OH2           -10.6366562818       34.4381048903        5.8354468953  W2        7040            0.0000000000
     17231      5744  TIP3      H1             -9.7706362818       34.8048448903        5.6572668953  W2        7040            0.0000000000
     17232      5744  TIP3      H2            -10.8833762818       33.9989048903        5.0215268953  W2        7040            0.0000000000
     17233      5745  TIP3      OH2            -3.9276962818       34.0011348903        8.5145568953  W2        7041            0.0000000000
     17234      5745  TIP3      H1             -4.1219862818       33.2533448903        7.9495168953  W2        7041            0.0000000000
     17235      5745  TIP3      H2             -3.9666862818       34.7591448903        7.9313468953  W2        7041            0.0000000000
     17236      5746  TIP3      OH2           -17.6828862818       34.1486948903        4.4630368953  W2        7044            0.0000000000
     17237      5746  TIP3      H1            -17.9504262818       34.4349848903        5.3363468953  W2        7044            0.0000000000
     17238      5746  TIP3      H2            -16.9116262818       33.6026148903        4.6152868953  W2        7044            0.0000000000
     17239      5747  TIP3      OH2             9.6959637182       26.6388148903       10.6954568953  W2        7047            0.0000000000
     17240      5747  TIP3      H1              9.7850737182       27.5826348903       10.5631668953  W2        7047            0.0000000000
     17241      5747  TIP3      H2              9.0577237182       26.3634548903       10.0373968953  W2        7047            0.0000000000
     17242      5748  TIP3      OH2             8.6290937182       25.8938848903       14.1142768953  W2        7048            0.0000000000
     17243      5748  TIP3      H1              8.5908437182       25.2475148903       14.8192368953  W2        7048            0.0000000000
     17244      5748  TIP3      H2              8.3067437182       25.4273248903       13.3431468953  W2        7048            0.0000000000
     17245      5749  TIP3      OH2            12.3351137182       28.8329248903       12.4157868953  W2        7050            0.0000000000
     17246      5749  TIP3      H1             11.8943837182       28.1125248903       12.8663468953  W2        7050            0.0000000000
     17247      5749  TIP3      H2             12.3220837182       29.5536448903       13.0455568953  W2        7050            0.0000000000
     17248      5750  TIP3      OH2             1.9209037182       29.9579848903       14.2421768953  W2        7051            0.0000000000
     17249      5750  TIP3      H1              1.5514237182       29.1560348903       13.8726068953  W2        7051            0.0000000000
     17250      5750  TIP3      H2              2.8620137182       29.7894748903       14.2885168953  W2        7051            0.0000000000
     17251      5751  TIP3      OH2            -1.4690462818       23.6182448903        9.6350568953  W2        7052            0.0000000000
     17252      5751  TIP3      H1             -1.9167062818       24.4641148903        9.6167068953  W2        7052            0.0000000000
     17253      5751  TIP3      H2             -2.0299262818       23.0386648903        9.1195668953  W2        7052            0.0000000000
     17254      5752  TIP3      OH2            -0.7584362818       25.7802048903       11.7608568953  W2        7053            0.0000000000
     17255      5752  TIP3      H1             -0.5450862818       25.0103648903       12.2881568953  W2        7053            0.0000000000
     17256      5752  TIP3      H2             -0.0206762818       25.8698748903       11.1576168953  W2        7053            0.0000000000
     17257      5753  TIP3      OH2             9.4466637182       33.9370948903       12.6278268953  W2        7054            0.0000000000
     17258      5753  TIP3      H1             10.0663037182       33.2605648903       12.3547468953  W2        7054            0.0000000000
     17259      5753  TIP3      H2              9.2384037182       33.7191748903       13.5363168953  W2        7054            0.0000000000
     17260      5754  TIP3      OH2             7.0185337182       28.3260248903       14.5203768953  W2        7055            0.0000000000
     17261      5754  TIP3      H1              7.3223237182       27.6401648903       13.9257868953  W2        7055            0.0000000000
     17262      5754  TIP3      H2              7.7399337182       28.4448948903       15.1381768953  W2        7055            0.0000000000
     17263      5755  TIP3      OH2            10.1592337182       22.7202648903       14.8478568953  W2        7057            0.0000000000
     17264      5755  TIP3      H1             10.3018237182       21.7739648903       14.8680168953  W2        7057            0.0000000000
     17265      5755  TIP3      H2             10.0531337182       22.9272448903       13.9193468953  W2        7057            0.0000000000
     17266      5756  TIP3      OH2             3.3140637182       20.8219048903       12.1203368953  W2        7058            0.0000000000
     17267      5756  TIP3      H1              3.3571737182       21.6817548903       11.7019668953  W2        7058            0.0000000000
     17268      5756  TIP3      H2              2.8564737182       20.2693748903       11.4866568953  W2        7058            0.0000000000
     17269      5757  TIP3      OH2            11.0363337182       20.9524648903       10.5211668953  W2        7059            0.0000000000
     17270      5757  TIP3      H1             11.6827637182       20.6237848903       11.1459268953  W2        7059            0.0000000000
     17271      5757  TIP3      H2             11.5462737182       21.4703648903        9.8983068953  W2        7059            0.0000000000
     17272      5758  TIP3      OH2            -0.0657862818       23.2184848903       12.8824768953  W2        7060            0.0000000000
     17273      5758  TIP3      H1              0.5878737182       22.6686548903       13.3144868953  W2        7060            0.0000000000
     17274      5758  TIP3      H2             -0.0418562818       22.9443848903       11.9656768953  W2        7060            0.0000000000
     17275      5759  TIP3      OH2             5.0906637182       24.7686148903       12.0976268953  W2        7061            0.0000000000
     17276      5759  TIP3      H1              5.7067637182       24.2421548903       12.6070268953  W2        7061            0.0000000000
     17277      5759  TIP3      H2              4.5045437182       24.1284848903       11.6939868953  W2        7061            0.0000000000
     17278      5760  TIP3      OH2             9.4932337182       29.2398548903        9.7383268953  W2        7064            0.0000000000
     17279      5760  TIP3      H1              9.1977437182       28.9170848903        8.8870168953  W2        7064            0.0000000000
     17280      5760  TIP3      H2              9.1690137182       30.1395248903        9.7795868953  W2        7064            0.0000000000
     17281      5761  TIP3      OH2            12.8001737182       20.2433948903       12.5017568953  W2        7066            0.0000000000
     17282      5761  TIP3      H1             12.5849737182       19.4777348903       13.0343568953  W2        7066            0.0000000000
     17283      5761  TIP3      H2             13.4559137182       20.7158548903       13.0146068953  W2        7066            0.0000000000
     17284      5762  TIP3      OH2             1.7179837182       21.6319248903       14.1466368953  W2        7067            0.0000000000
     17285      5762  TIP3      H1              2.3316137182       22.2646848903       14.5198768953  W2        7067            0.0000000000
     17286      5762  TIP3      H2              2.2300537182       21.1594248903       13.4903268953  W2        7067            0.0000000000
     17287      5763  TIP3      OH2            -0.7780862818       29.0504048903        8.0508668953  W2        7069            0.0000000000
     17288      5763  TIP3      H1             -1.0499962818       29.2795048903        7.1621568953  W2        7069            0.0000000000
     17289      5763  TIP3      H2             -0.7325162818       29.8882848903        8.5113968953  W2        7069            0.0000000000
     17290      5764  TIP3      OH2            12.8468837182       30.6719948903       14.7637168953  W2        7070            0.0000000000
     17291      5764  TIP3      H1             11.9052537182       30.7303848903       14.9254068953  W2        7070            0.0000000000
     17292      5764  TIP3      H2             13.1234937182       31.5780448903       14.6266868953  W2        7070            0.0000000000
     17293      5765  TIP3      OH2             6.1507237182       17.0452548903       13.6469068953  W2        7072            0.0000000000
     17294      5765  TIP3      H1              6.0331437182       16.0968548903       13.5927368953  W2        7072            0.0000000000
     17295      5765  TIP3      H2              5.2957337182       17.3778648903       13.9200168953  W2        7072            0.0000000000
     17296      5766  TIP3      OH2            11.0990037182       32.4533448903       11.3888768953  W2        7073            0.0000000000
     17297      5766  TIP3      H1             11.5242337182       31.7461348903       10.9038368953  W2        7073            0.0000000000
     17298      5766  TIP3      H2             11.4160037182       33.2546148903       10.9720968953  W2        7073            0.0000000000
     17299      5767  TIP3      OH2            12.2586537182       30.3541948903        9.8975368953  W2        7074            0.0000000000
     17300      5767  TIP3      H1             12.0011337182       29.6642048903        9.2861268953  W2        7074            0.0000000000
     17301      5767  TIP3      H2             12.3297337182       29.9113148903       10.7431268953  W2        7074            0.0000000000
     17302      5768  TIP3      OH2             8.4172137182       25.8828148903        8.1474868953  W2        7076            0.0000000000
     17303      5768  TIP3      H1              7.7057637182       26.4177848903        7.7955368953  W2        7076            0.0000000000
     17304      5768  TIP3      H2              9.1081737182       25.9380248903        7.4873768953  W2        7076            0.0000000000
     17305      5769  TIP3      OH2             8.4711337182       24.3402448903        5.1859868953  W2        7077            0.0000000000
     17306      5769  TIP3      H1              9.1721237182       24.3629348903        5.8373868953  W2        7077            0.0000000000
     17307      5769  TIP3      H2              8.7734237182       23.7122148903        4.5299168953  W2        7077            0.0000000000
     17308      5770  TIP3      OH2            11.8229837182       26.0921448903        9.0990768953  W2        7079            0.0000000000
     17309      5770  TIP3      H1             11.0910837182       26.3205148903        9.6721368953  W2        7079            0.0000000000
     17310      5770  TIP3      H2             12.2702037182       25.3784148903        9.5538268953  W2        7079            0.0000000000
     17311      5771  TIP3      OH2             3.4683537182       26.7227648903       10.9815768953  W2        7081            0.0000000000
     17312      5771  TIP3      H1              3.1378737182       26.3521048903       10.1632768953  W2        7081            0.0000000000
     17313      5771  TIP3      H2              4.0567637182       26.0521648903       11.3284068953  W2        7081            0.0000000000
     17314      5772  TIP3      OH2             4.8351037182       30.1508248903       13.6627968953  W2        7082            0.0000000000
     17315      5772  TIP3      H1              4.7402337182       29.5721348903       12.9062568953  W2        7082            0.0000000000
     17316      5772  TIP3      H2              5.5644637182       29.7793948903       14.1590768953  W2        7082            0.0000000000
     17317      5773  TIP3      OH2             3.8349037182       25.4913248903       14.6150768953  W2        7083            0.0000000000
     17318      5773  TIP3      H1              4.4001537182       25.6127448903       13.8521968953  W2        7083            0.0000000000
     17319      5773  TIP3      H2              4.1537937182       26.1288248903       15.2539268953  W2        7083            0.0000000000
     17320      5774  TIP3      OH2            10.6939337182       25.2544348903        6.7841968953  W2        7086            0.0000000000
     17321      5774  TIP3      H1             11.2734837182       25.4044648903        7.5310868953  W2        7086            0.0000000000
     17322      5774  TIP3      H2             11.1079337182       25.7251748903        6.0608368953  W2        7086            0.0000000000
     17323      5775  TIP3      OH2             8.4204237182       31.9912848903       10.2195068953  W2        7088            0.0000000000
     17324      5775  TIP3      H1              8.8941837182       32.2869148903       10.9969268953  W2        7088            0.0000000000
     17325      5775  TIP3      H2              7.8573537182       32.7294448903        9.9864668953  W2        7088            0.0000000000
     17326      5776  TIP3      OH2            14.3927737182       17.0044748903        6.5971668953  W2        7090            0.0000000000
     17327      5776  TIP3      H1             13.4928437182       17.1433748903        6.8922268953  W2        7090            0.0000000000
     17328      5776  TIP3      H2             14.6446137182       17.8359348903        6.1953368953  W2        7090            0.0000000000
     17329      5777  TIP3      OH2             2.4586237182       25.7921948903        8.5708568953  W2        7091            0.0000000000
     17330      5777  TIP3      H1              2.1667537182       26.5603648903        8.0799868953  W2        7091            0.0000000000
     17331      5777  TIP3      H2              1.7841437182       25.1328148903        8.4079968953  W2        7091            0.0000000000
     17332      5778  TIP3      OH2            15.5819137182       31.3707148903        4.9735568953  W2        7092            0.0000000000
     17333      5778  TIP3      H1             15.6552637182       32.3097348903        5.1440868953  W2        7092            0.0000000000
     17334      5778  TIP3      H2             16.4874237182       31.0655748903        4.9172868953  W2        7092            0.0000000000
     17335      5779  TIP3      OH2            -1.6980962818       30.9354948903       14.2698568953  W2        7094            0.0000000000
     17336      5779  TIP3      H1             -0.7520362818       30.7911948903       14.2508068953  W2        7094            0.0000000000
     17337      5779  TIP3      H2             -1.8104662818       31.7197748903       14.8069768953  W2        7094            0.0000000000
     17338      5780  TIP3      OH2             7.8927337182       34.9477548903        8.6344268953  W2        7097            0.0000000000
     17339      5780  TIP3      H1              7.8173337182       34.8264748903        7.6879468953  W2        7097            0.0000000000
     17340      5780  TIP3      H2              7.9256037182       35.8970248903        8.7528868953  W2        7097            0.0000000000
     17341      5781  TIP3      OH2             1.5461137182       33.7364548903       10.4153268953  W2        7098            0.0000000000
     17342      5781  TIP3      H1              1.6981537182       33.3884948903       11.2939768953  W2        7098            0.0000000000
     17343      5781  TIP3      H2              0.6951537182       33.3801848903       10.1600468953  W2        7098            0.0000000000
     17344      5782  TIP3      OH2            10.9943337182       34.1017748903        5.6366668953  W2        7099            0.0000000000
     17345      5782  TIP3      H1             11.3691737182       33.3573848903        5.1659268953  W2        7099            0.0000000000
     17346      5782  TIP3      H2             10.9987037182       33.8318348903        6.5549968953  W2        7099            0.0000000000
     17347      5783  TIP3      OH2            10.6631437182       34.0274848903        8.3858868953  W2        7100            0.0000000000
     17348      5783  TIP3      H1              9.7281237182       34.1276748903        8.5645868953  W2        7100            0.0000000000
     17349      5783  TIP3      H2             10.9433337182       33.3180848903        8.9642068953  W2        7100            0.0000000000
     17350      5784  TIP3      OH2             3.4194837182       17.9487048903       14.4245368953  W2        7103            0.0000000000
     17351      5784  TIP3      H1              2.5578537182       17.8615248903       14.0168268953  W2        7103            0.0000000000
     17352      5784  TIP3      H2              3.3970537182       18.8047148903       14.8522968953  W2        7103            0.0000000000
     17353      5785  TIP3      OH2            12.1712437182       26.2872648903        4.4139868953  W2        7106            0.0000000000
     17354      5785  TIP3      H1             12.2133237182       26.0646548903        3.4839868953  W2        7106            0.0000000000
     17355      5785  TIP3      H2             13.0204537182       26.6859748903        4.6039768953  W2        7106            0.0000000000
     17356      5786  TIP3      OH2             7.7439937182       20.1630848903        5.0843168953  W2        7107            0.0000000000
     17357      5786  TIP3      H1              7.4904737182       20.1822448903        6.0071268953  W2        7107            0.0000000000
     17358      5786  TIP3      H2              7.4872037182       19.2916248903        4.7829368953  W2        7107            0.0000000000
     17359      5787  TIP3      OH2             3.5074037182       23.1351648903       10.4315568953  W2        7109            0.0000000000
     17360      5787  TIP3      H1              2.6146937182       22.7947748903       10.3729368953  W2        7109            0.0000000000
     17361      5787  TIP3      H2              3.9580637182       22.7582548903        9.6758768953  W2        7109            0.0000000000
     17362      5788  TIP3      OH2             9.0429537182       23.5511948903        9.2486368953  W2        7110            0.0000000000
     17363      5788  TIP3      H1              8.6339837182       24.3660548903        8.9571168953  W2        7110            0.0000000000
     17364      5788  TIP3      H2              9.7635737182       23.4112048903        8.6343468953  W2        7110            0.0000000000
     17365      5789  TIP3      OH2            10.0477237182       22.9972348903       12.0626068953  W2        7112            0.0000000000
     17366      5789  TIP3      H1              9.8521737182       23.6029148903       11.3476668953  W2        7112            0.0000000000
     17367      5789  TIP3      H2             10.2289837182       22.1637548903       11.6282368953  W2        7112            0.0000000000
     17368      5790  TIP3      OH2             4.6262837182       20.6087348903        4.1853568953  W2        7114            0.0000000000
     17369      5790  TIP3      H1              4.1953537182       20.1637448903        4.9150968953  W2        7114            0.0000000000
     17370      5790  TIP3      H2              3.9081537182       20.9803648903        3.6731068953  W2        7114            0.0000000000
     17371      5791  TIP3      OH2            -2.1313762818       20.3506848903       11.2372268953  W2        7115            0.0000000000
     17372      5791  TIP3      H1             -1.5006062818       20.3218948903       11.9566168953  W2        7115            0.0000000000
     17373      5791  TIP3      H2             -1.6819462818       19.9255548903       10.5068168953  W2        7115            0.0000000000
     17374      5792  TIP3      OH2            -0.8571662818       21.0968848903        6.6612668953  W2        7116            0.0000000000
     17375      5792  TIP3      H1             -0.3829962818       21.6878748903        6.0763568953  W2        7116            0.0000000000
     17376      5792  TIP3      H2             -1.5745262818       21.6271748903        7.0082768953  W2        7116            0.0000000000
     17377      5793  TIP3      OH2             6.0889337182       20.5629148903       11.5179668953  W2        7118            0.0000000000
     17378      5793  TIP3      H1              5.1780437182       20.6195948903       11.8065668953  W2        7118            0.0000000000
     17379      5793  TIP3      H2              6.5942237182       20.5024648903       12.3286868953  W2        7118            0.0000000000
     17380      5794  TIP3      OH2             0.9172737182       22.1915448903       10.3447268953  W2        7119            0.0000000000
     17381      5794  TIP3      H1              0.0280737182       22.2910948903       10.0046868953  W2        7119            0.0000000000
     17382      5794  TIP3      H2              1.2137637182       21.3498448903        9.9985168953  W2        7119            0.0000000000
     17383      5795  TIP3      OH2             4.5704537182       22.1918048903        8.0011868953  W2        7120            0.0000000000
     17384      5795  TIP3      H1              5.5020037182       22.3208048903        8.1794968953  W2        7120            0.0000000000
     17385      5795  TIP3      H2              4.3554837182       22.8612348903        7.3516568953  W2        7120            0.0000000000
     17386      5796  TIP3      OH2            10.4941237182       19.7975448903       14.7821468953  W2        7121            0.0000000000
     17387      5796  TIP3      H1              9.8172837182       19.9288548903       15.4461168953  W2        7121            0.0000000000
     17388      5796  TIP3      H2             10.0086137182       19.6424948903       13.9719168953  W2        7121            0.0000000000
     17389      5797  TIP3      OH2             3.2444737182       23.3860248903        5.5677968953  W2        7122            0.0000000000
     17390      5797  TIP3      H1              2.7019837182       23.0064048903        4.8765568953  W2        7122            0.0000000000
     17391      5797  TIP3      H2              4.0779637182       23.5804948903        5.1392068953  W2        7122            0.0000000000
     17392      5798  TIP3      OH2             7.4089037182       23.3502148903       13.4049268953  W2        7125            0.0000000000
     17393      5798  TIP3      H1              7.9732437182       22.8038748903       12.8578868953  W2        7125            0.0000000000
     17394      5798  TIP3      H2              7.2612437182       22.8284048903       14.1936868953  W2        7125            0.0000000000
     17395      5799  TIP3      OH2             2.4108737182       19.4868248903        9.8234068953  W2        7126            0.0000000000
     17396      5799  TIP3      H1              2.0938237182       18.5843548903        9.7879468953  W2        7126            0.0000000000
     17397      5799  TIP3      H2              3.1922837182       19.4885648903        9.2705668953  W2        7126            0.0000000000
     17398      5800  TIP3      OH2             6.5797537182       27.9515948903        7.5036068953  W2        7128            0.0000000000
     17399      5800  TIP3      H1              5.8348537182       27.4441248903        7.1813968953  W2        7128            0.0000000000
     17400      5800  TIP3      H2              6.4454737182       28.0003948903        8.4500868953  W2        7128            0.0000000000
     17401      5801  TIP3      OH2            10.4774337182       20.7655848903        5.7028668953  W2        7130            0.0000000000
     17402      5801  TIP3      H1              9.5388537182       20.8771448903        5.5517468953  W2        7130            0.0000000000
     17403      5801  TIP3      H2             10.7746437182       21.6222748903        6.0094368953  W2        7130            0.0000000000
     17404      5802  TIP3      OH2            11.1957837182       22.6328548903        7.3636068953  W2        7132            0.0000000000
     17405      5802  TIP3      H1             12.0876837182       22.4953548903        7.6827268953  W2        7132            0.0000000000
     17406      5802  TIP3      H2             11.2521437182       23.4234648903        6.8269568953  W2        7132            0.0000000000
     17407      5803  TIP3      OH2             1.7045837182       27.2465948903       13.2733968953  W2        7133            0.0000000000
     17408      5803  TIP3      H1              2.4493037182       27.2441648903       12.6720468953  W2        7133            0.0000000000
     17409      5803  TIP3      H2              1.7822437182       26.4229748903       13.7549068953  W2        7133            0.0000000000
     17410      5804  TIP3      OH2             8.7051637182       29.4100248903        6.5290668953  W2        7134            0.0000000000
     17411      5804  TIP3      H1              8.4100037182       30.2368148903        6.9105468953  W2        7134            0.0000000000
     17412      5804  TIP3      H2              8.0021637182       28.7907148903        6.7252068953  W2        7134            0.0000000000
     17413      5805  TIP3      OH2            16.0806537182       22.8422648903        7.0582768953  W2        7138            0.0000000000
     17414      5805  TIP3      H1             15.5262837182       22.4460648903        6.3860268953  W2        7138            0.0000000000
     17415      5805  TIP3      H2             16.1810137182       23.7527848903        6.7806068953  W2        7138            0.0000000000
     17416      5806  TIP3      OH2            14.3758237182       31.6283048903        7.5234868953  W2        7140            0.0000000000
     17417      5806  TIP3      H1             14.0029337182       30.8026848903        7.8325468953  W2        7140            0.0000000000
     17418      5806  TIP3      H2             14.6531737182       31.4452448903        6.6258268953  W2        7140            0.0000000000
     17419      5807  TIP3      OH2            11.5362137182       26.4362548903       14.5446768953  W2        7141            0.0000000000
     17420      5807  TIP3      H1             10.6079037182       26.2044448903       14.5176068953  W2        7141            0.0000000000
     17421      5807  TIP3      H2             11.9873237182       25.6592348903       14.2145568953  W2        7141            0.0000000000
     17422      5808  TIP3      OH2             4.0795237182       30.7644148903       10.6775468953  W2        7142            0.0000000000
     17423      5808  TIP3      H1              4.6067437182       31.5378548903       10.4774268953  W2        7142            0.0000000000
     17424      5808  TIP3      H2              3.1993737182       30.9893348903       10.3759468953  W2        7142            0.0000000000
     17425      5809  TIP3      OH2            -0.1657062818       25.6268248903        5.2647868953  W2        7143            0.0000000000
     17426      5809  TIP3      H1              0.4502837182       26.2535448903        5.6442668953  W2        7143            0.0000000000
     17427      5809  TIP3      H2             -1.0274462818       25.9428048903        5.5364368953  W2        7143            0.0000000000
     17428      5810  TIP3      OH2             5.5067537182       28.4274048903       10.2539768953  W2        7144            0.0000000000
     17429      5810  TIP3      H1              5.2657537182       29.3528448903       10.2955068953  W2        7144            0.0000000000
     17430      5810  TIP3      H2              4.7661137182       27.9685348903       10.6503668953  W2        7144            0.0000000000
     17431      5811  TIP3      OH2             4.1898337182       33.4491648903        9.7991968953  W2        7146            0.0000000000
     17432      5811  TIP3      H1              3.2398837182       33.5549048903        9.8505268953  W2        7146            0.0000000000
     17433      5811  TIP3      H2              4.5416437182       34.2699048903       10.1439468953  W2        7146            0.0000000000
     17434      5812  TIP3      OH2            11.7683837182       29.6048848903        5.3435468953  W2        7148            0.0000000000
     17435      5812  TIP3      H1             12.1216937182       29.2248648903        6.1478968953  W2        7148            0.0000000000
     17436      5812  TIP3      H2             10.8197337182       29.5113648903        5.4304768953  W2        7148            0.0000000000
     17437      5813  TIP3      OH2            16.2718237182       34.0841348903        5.5445668953  W2        7150            0.0000000000
     17438      5813  TIP3      H1             17.0156137182       34.6701848903        5.4047268953  W2        7150            0.0000000000
     17439      5813  TIP3      H2             15.5776337182       34.6527148903        5.8778068953  W2        7150            0.0000000000
     17440      5814  TIP3      OH2            12.6343137182       28.2770848903        7.5703368953  W2        7152            0.0000000000
     17441      5814  TIP3      H1             12.3570737182       27.5490148903        8.1264468953  W2        7152            0.0000000000
     17442      5814  TIP3      H2             13.5616137182       28.3962848903        7.7755968953  W2        7152            0.0000000000
     17443      5815  TIP3      OH2             5.8591637182       30.7164948903        3.7905468953  W2        7154            0.0000000000
     17444      5815  TIP3      H1              6.0981437182       29.9683048903        3.2434368953  W2        7154            0.0000000000
     17445      5815  TIP3      H2              5.5902937182       30.3286648903        4.6233268953  W2        7154            0.0000000000
     17446      5816  TIP3      OH2             4.7962237182       30.2868748903        6.2468068953  W2        7155            0.0000000000
     17447      5816  TIP3      H1              4.9430237182       29.7668548903        7.0368968953  W2        7155            0.0000000000
     17448      5816  TIP3      H2              4.7933937182       31.1936348903        6.5533968953  W2        7155            0.0000000000
     17449      5817  TIP3      OH2             1.2493337182       27.5392048903        6.7573468953  W2        7156            0.0000000000
     17450      5817  TIP3      H1              0.5632637182       27.8914548903        7.3243168953  W2        7156            0.0000000000
     17451      5817  TIP3      H2              1.7721237182       28.3021648903        6.5107768953  W2        7156            0.0000000000
     17452      5818  TIP3      OH2             9.8653337182       19.8537548903        8.1334768953  W2        7158            0.0000000000
     17453      5818  TIP3      H1             10.0851637182       20.3252948903        7.3300168953  W2        7158            0.0000000000
     17454      5818  TIP3      H2             10.4237337182       20.2480148903        8.8035368953  W2        7158            0.0000000000
     17455      5819  TIP3      OH2             7.5339437182       31.9842348903        6.9962268953  W2        7159            0.0000000000
     17456      5819  TIP3      H1              6.7175537182       32.4812048903        7.0486568953  W2        7159            0.0000000000
     17457      5819  TIP3      H2              8.0635737182       32.4595848903        6.3561068953  W2        7159            0.0000000000
     17458      5820  TIP3      OH2             7.0653237182       21.5816348903        8.9683168953  W2        7160            0.0000000000
     17459      5820  TIP3      H1              7.8775837182       22.0859548903        9.0144868953  W2        7160            0.0000000000
     17460      5820  TIP3      H2              6.8206237182       21.4366048903        9.8822768953  W2        7160            0.0000000000
     17461      5821  TIP3      OH2             7.9489937182       18.6629348903        9.9064268953  W2        7162            0.0000000000
     17462      5821  TIP3      H1              7.6023437182       19.2799948903       10.5508568953  W2        7162            0.0000000000
     17463      5821  TIP3      H2              8.6076837182       19.1635048903        9.4249768953  W2        7162            0.0000000000
     17464      5822  TIP3      OH2             4.8722537182       33.0279548903        6.9779168953  W2        7163            0.0000000000
     17465      5822  TIP3      H1              5.0331237182       33.8277048903        6.4771768953  W2        7163            0.0000000000
     17466      5822  TIP3      H2              4.6750337182       33.3345548903        7.8629768953  W2        7163            0.0000000000
     17467      5823  TIP3      OH2             3.6066937182       19.7258748903        6.5936768953  W2        7164            0.0000000000
     17468      5823  TIP3      H1              3.5231737182       20.6141848903        6.9403168953  W2        7164            0.0000000000
     17469      5823  TIP3      H2              4.4967237182       19.4605448903        6.8253568953  W2        7164            0.0000000000
     17470      5824  TIP3      OH2            12.4076437182       24.2250348903       13.0836768953  W2        7166            0.0000000000
     17471      5824  TIP3      H1             11.6100837182       23.8100548903       12.7551768953  W2        7166            0.0000000000
     17472      5824  TIP3      H2             12.8527537182       23.5344048903       13.5747268953  W2        7166            0.0000000000
     17473      5825  TIP3      OH2             1.8652237182       30.1530948903        5.6541268953  W2        7167            0.0000000000
     17474      5825  TIP3      H1              2.4573737182       30.8525748903        5.9303668953  W2        7167            0.0000000000
     17475      5825  TIP3      H2              2.3245237182       29.7200448903        4.9345868953  W2        7167            0.0000000000
     17476      5826  TIP3      OH2             0.1811437182       22.8173948903        4.7700668953  W2        7168            0.0000000000
     17477      5826  TIP3      H1              0.1364037182       23.7567048903        4.9487668953  W2        7168            0.0000000000
     17478      5826  TIP3      H2             -0.7065362818       22.5818848903        4.5002768953  W2        7168            0.0000000000
     17479      5827  TIP3      OH2            13.4941037182       33.4812848903       14.7060268953  W2        7169            0.0000000000
     17480      5827  TIP3      H1             13.3385337182       34.1597248903       14.0489568953  W2        7169            0.0000000000
     17481      5827  TIP3      H2             14.4267437182       33.5532148903       14.9090868953  W2        7169            0.0000000000
     17482      5828  TIP3      OH2             0.9893437182       17.5990548903       13.4431668953  W2        7170            0.0000000000
     17483      5828  TIP3      H1              0.7603237182       17.6583048903       12.5156668953  W2        7170            0.0000000000
     17484      5828  TIP3      H2              0.5466837182       16.8076048903       13.7495768953  W2        7170            0.0000000000
     17485      5829  TIP3      OH2            -0.0803262818       31.5397648903        9.6037468953  W2        7171            0.0000000000
     17486      5829  TIP3      H1             -0.9124662818       32.0120348903        9.6308868953  W2        7171            0.0000000000
     17487      5829  TIP3      H2              0.4655037182       32.0495248903        9.0050568953  W2        7171            0.0000000000
     17488      5830  TIP3      OH2             7.8973437182       32.5796348903        3.9291468953  W2        7174            0.0000000000
     17489      5830  TIP3      H1              7.2534437182       31.9484948903        4.2505168953  W2        7174            0.0000000000
     17490      5830  TIP3      H2              8.6591737182       32.0484348903        3.6974968953  W2        7174            0.0000000000
     17491      5831  TIP3      OH2            12.5016337182       32.3966248903        4.1629468953  W2        7176            0.0000000000
     17492      5831  TIP3      H1             12.7846737182       31.6021448903        4.6156368953  W2        7176            0.0000000000
     17493      5831  TIP3      H2             13.2414237182       32.6297248903        3.6020568953  W2        7176            0.0000000000
     17494      5832  TIP3      OH2             3.4563637182       28.3061148903        4.0204368953  W2        7178            0.0000000000
     17495      5832  TIP3      H1              3.5207737182       27.5120748903        4.5510768953  W2        7178            0.0000000000
     17496      5832  TIP3      H2              4.1092837182       28.1873948903        3.3306368953  W2        7178            0.0000000000
     17497      5833  TIP3      OH2             8.8087037182       29.3532848903        3.7562368953  W2        7180            0.0000000000
     17498      5833  TIP3      H1              8.5401137182       29.5334948903        4.6571268953  W2        7180            0.0000000000
     17499      5833  TIP3      H2              8.6022637182       28.4279048903        3.6248168953  W2        7180            0.0000000000
     17500      5834  TIP3      OH2             4.6057437182       26.2787348903        6.3262368953  W2        7183            0.0000000000
     17501      5834  TIP3      H1              4.1459437182       25.7945648903        7.0120868953  W2        7183            0.0000000000
     17502      5834  TIP3      H2              4.8606137182       25.6102748903        5.6902868953  W2        7183            0.0000000000
     17503      5835  TIP3      OH2             5.6767837182       24.5219148903        4.5885568953  W2        7185            0.0000000000
     17504      5835  TIP3      H1              5.4962837182       24.3670348903        3.6613868953  W2        7185            0.0000000000
     17505      5835  TIP3      H2              6.6268337182       24.6297848903        4.6333468953  W2        7185            0.0000000000
     17506      5836  TIP3      OH2            15.0666137182       26.8763348903        4.0343668953  W2        7187            0.0000000000
     17507      5836  TIP3      H1             14.7930937182       26.4518848903        3.2211968953  W2        7187            0.0000000000
     17508      5836  TIP3      H2             15.1060237182       27.8077848903        3.8174068953  W2        7187            0.0000000000
     17509      5837  TIP3      OH2             5.5739537182       35.2122848903        5.5899168953  W2        7201            0.0000000000
     17510      5837  TIP3      H1              6.5070237182       35.3701548903        5.7337568953  W2        7201            0.0000000000
     17511      5837  TIP3      H2              5.3098337182       35.8875848903        4.9650668953  W2        7201            0.0000000000
     17512      5838  TIP3      OH2            -0.8575562818       29.8486648903        5.0727268953  W2        7202            0.0000000000
     17513      5838  TIP3      H1              0.0563637182       29.9275548903        5.3461168953  W2        7202            0.0000000000
     17514      5838  TIP3      H2             -0.8502462818       29.1616248903        4.4062868953  W2        7202            0.0000000000
     17515      5839  TIP3      OH2            -2.2084962818       35.2415148903       10.1501168953  W2        7203            0.0000000000
     17516      5839  TIP3      H1             -2.8557862818       34.7796848903        9.6172368953  W2        7203            0.0000000000
     17517      5839  TIP3      H2             -1.8540362818       34.5698448903       10.7327368953  W2        7203            0.0000000000
     17518      5840  TIP3      OH2            -1.3385762818       33.3222148903       11.9547368953  W2        7204            0.0000000000
     17519      5840  TIP3      H1             -1.6728962818       32.4419448903       12.1267568953  W2        7204            0.0000000000
     17520      5840  TIP3      H2             -1.1163362818       33.6677148903       12.8192968953  W2        7204            0.0000000000
     17521      5841  TIP3      OH2            15.5248937182       27.7451448903        8.0094068953  W2        7208            0.0000000000
     17522      5841  TIP3      H1             16.3750337182       28.1662348903        8.1365668953  W2        7208            0.0000000000
     17523      5841  TIP3      H2             15.5304037182       27.0051548903        8.6165468953  W2        7208            0.0000000000
     17524      5842  TIP3      OH2            15.9194537182       25.7988848903        9.8329768953  W2        7209            0.0000000000
     17525      5842  TIP3      H1             15.1929137182       25.3191448903       10.2307368953  W2        7209            0.0000000000
     17526      5842  TIP3      H2             16.5007837182       26.0043548903       10.5651368953  W2        7209            0.0000000000
     17527      5843  TIP3      OH2            15.6785737182       28.5836348903       14.7807368953  W2        7210            0.0000000000
     17528      5843  TIP3      H1             16.5119937182       28.2056348903       14.5000968953  W2        7210            0.0000000000
     17529      5843  TIP3      H2             15.7906037182       29.5267548903       14.6616468953  W2        7210            0.0000000000
     17530      5844  TIP3      OH2            16.1877637182       25.6997348903        6.2241068953  W2        7212            0.0000000000
     17531      5844  TIP3      H1             15.6658737182       26.0561448903        5.5051968953  W2        7212            0.0000000000
     17532      5844  TIP3      H2             16.1546837182       26.3745148903        6.9021968953  W2        7212            0.0000000000
     17533      5845  TIP3      OH2            14.5366637182       22.9392948903        4.7748168953  W2        7213            0.0000000000
     17534      5845  TIP3      H1             14.6331037182       23.6059948903        4.0947868953  W2        7213            0.0000000000
     17535      5845  TIP3      H2             14.3966237182       22.1239248903        4.2933668953  W2        7213            0.0000000000
     17536      5846  TIP3      OH2            13.7061337182       24.3195348903       10.3958468953  W2        7214            0.0000000000
     17537      5846  TIP3      H1             13.5560137182       23.3743948903       10.3756268953  W2        7214            0.0000000000
     17538      5846  TIP3      H2             13.3525837182       24.6006748903       11.2397568953  W2        7214            0.0000000000
     17539      5847  TIP3      OH2            -1.2586262818       26.3977548903       14.4062268953  W2        7215            0.0000000000
     17540      5847  TIP3      H1             -1.0743362818       26.3159248903       13.4705168953  W2        7215            0.0000000000
     17541      5847  TIP3      H2             -0.4093362818       26.2734548903       14.8298668953  W2        7215            0.0000000000
     17542      5848  TIP3      OH2            13.7840437182       20.3472748903        3.8923668953  W2        7218            0.0000000000
     17543      5848  TIP3      H1             14.3946237182       19.9759548903        4.5291868953  W2        7218            0.0000000000
     17544      5848  TIP3      H2             12.9471937182       19.9259648903        4.0883668953  W2        7218            0.0000000000
     17545      5849  TIP3      OH2            13.4166137182       21.9021148903        8.8583568953  W2        7219            0.0000000000
     17546      5849  TIP3      H1             13.6963237182       20.9951548903        8.9825268953  W2        7219            0.0000000000
     17547      5849  TIP3      H2             14.1757837182       22.3362648903        8.4692768953  W2        7219            0.0000000000
     17548      5850  TIP3      OH2            14.0284437182       22.4838548903       14.2942468953  W2        7220            0.0000000000
     17549      5850  TIP3      H1             14.9612437182       22.6958448903       14.2598468953  W2        7220            0.0000000000
     17550      5850  TIP3      H2             13.7931937182       22.5850648903       15.2165468953  W2        7220            0.0000000000
     17551      5851  TIP3      OH2            14.0300937182       19.1650448903        8.9065568953  W2        7224            0.0000000000
     17552      5851  TIP3      H1             14.2125937182       18.7161948903        9.7320568953  W2        7224            0.0000000000
     17553      5851  TIP3      H2             13.4303837182       18.5804848903        8.4430168953  W2        7224            0.0000000000
     17554      5852  TIP3      OH2            -0.4398962818       19.9804148903       13.4383968953  W2        7225            0.0000000000
     17555      5852  TIP3      H1              0.0052637182       19.1886648903       13.7403668953  W2        7225            0.0000000000
     17556      5852  TIP3      H2              0.0264037182       20.6969348903       13.8689568953  W2        7225            0.0000000000
     17557      5853  TIP3      OH2            -2.1358662818       22.9797148903       14.5074168953  W2        7226            0.0000000000
     17558      5853  TIP3      H1             -1.6438862818       22.7587648903       13.7166168953  W2        7226            0.0000000000
     17559      5853  TIP3      H2             -1.7737762818       23.8200548903       14.7883668953  W2        7226            0.0000000000
     17560      5854  TIP3      OH2            15.8967137182       19.2328548903        5.4345868953  W2        7228            0.0000000000
     17561      5854  TIP3      H1             16.3089737182       18.5114248903        4.9593868953  W2        7228            0.0000000000
     17562      5854  TIP3      H2             16.5783637182       19.9023148903        5.4930168953  W2        7228            0.0000000000
     17563      5855  TIP3      OH2            -1.8222162818       19.2376248903        8.5616568953  W2        7229            0.0000000000
     17564      5855  TIP3      H1             -2.7473762818       19.4462848903        8.4322068953  W2        7229            0.0000000000
     17565      5855  TIP3      H2             -1.3682262818       19.7217048903        7.8718868953  W2        7229            0.0000000000
     17566      5856  TIP3      OH2            12.9485037182       34.2217948903       10.5073968953  W2        7230            0.0000000000
     17567      5856  TIP3      H1             13.6007937182       33.8740048903        9.8993068953  W2        7230            0.0000000000
     17568      5856  TIP3      H2             13.4588837182       34.7101148903       11.1533668953  W2        7230            0.0000000000
     17569      5857  TIP3      OH2             0.1040237182       34.0046948903       14.2665968953  W2        7242            0.0000000000
     17570      5857  TIP3      H1              0.0856237182       33.5792048903       15.1238268953  W2        7242            0.0000000000
     17571      5857  TIP3      H2              0.9088137182       33.6861948903       13.8578168953  W2        7242            0.0000000000
     17572      5858  TIP3      OH2             2.2453337182       32.7145648903       12.9215868953  W2        7243            0.0000000000
     17573      5858  TIP3      H1              2.0264037182       31.7983048903       13.0911868953  W2        7243            0.0000000000
     17574      5858  TIP3      H2              3.0695537182       32.8546048903       13.3877268953  W2        7243            0.0000000000
     17575      5859  TIP3      OH2             4.7825837182       33.1844948903       13.7703868953  W2        7244            0.0000000000
     17576      5859  TIP3      H1              4.9951537182       32.2963948903       13.4834768953  W2        7244            0.0000000000
     17577      5859  TIP3      H2              4.8470937182       33.1502648903       14.7247868953  W2        7244            0.0000000000
     17578      5860  TIP3      OH2             8.2909537182       18.8485548903       12.9147168953  W2        7245            0.0000000000
     17579      5860  TIP3      H1              7.6166337182       18.2191148903       13.1702968953  W2        7245            0.0000000000
     17580      5860  TIP3      H2              8.8548737182       18.3644448903       12.3115068953  W2        7245            0.0000000000
     17581      5861  TIP3      OH2            13.4336737182       16.9559548903       13.0274268953  W2        7246            0.0000000000
     17582      5861  TIP3      H1             14.0374337182       17.5034948903       12.5255268953  W2        7246            0.0000000000
     17583      5861  TIP3      H2             12.5638737182       17.2749948903       12.7868368953  W2        7246            0.0000000000
     17584      5862  TIP3      OH2            15.1607137182       18.0948248903       11.3605168953  W2        7247            0.0000000000
     17585      5862  TIP3      H1             15.7724637182       17.5803948903       10.8338768953  W2        7247            0.0000000000
     17586      5862  TIP3      H2             15.5430537182       18.9720348903       11.3839568953  W2        7247            0.0000000000
     17587      5863  TIP3      OH2             0.6177037182       17.4825848903       10.7367068953  W2        7248            0.0000000000
     17588      5863  TIP3      H1             -0.1593162818       17.2480748903       10.2292968953  W2        7248            0.0000000000
     17589      5863  TIP3      H2              1.1480637182       16.6857948903       10.7455068953  W2        7248            0.0000000000
     17590      5864  TIP3      OH2            -0.5459562818       17.2803948903        6.5403168953  W2        7249            0.0000000000
     17591      5864  TIP3      H1             -0.1068862818       17.8914448903        5.9486668953  W2        7249            0.0000000000
     17592      5864  TIP3      H2             -1.1797162818       17.8188048903        7.0143168953  W2        7249            0.0000000000
     17593      5865  TIP3      OH2             5.1969637182       17.4092948903       10.5500168953  W2        7250            0.0000000000
     17594      5865  TIP3      H1              6.0713037182       17.7977248903       10.5204468953  W2        7250            0.0000000000
     17595      5865  TIP3      H2              5.0610437182       17.1940748903       11.4727368953  W2        7250            0.0000000000
     17596      5866  TIP3      OH2            10.7538037182       17.4392748903       12.1991868953  W2        7251            0.0000000000
     17597      5866  TIP3      H1             10.8299637182       17.5344348903       11.2497868953  W2        7251            0.0000000000
     17598      5866  TIP3      H2             10.4787237182       16.5315648903       12.3280968953  W2        7251            0.0000000000
     17599      5867  TIP3      OH2            12.1070637182       17.4650548903        7.8916868953  W2        7252            0.0000000000
     17600      5867  TIP3      H1             11.4041737182       18.0799748903        7.6818268953  W2        7252            0.0000000000
     17601      5867  TIP3      H2             11.6622037182       16.6277248903        8.0227768953  W2        7252            0.0000000000
     17602      5868  TIP3      OH2            -0.6450062818       33.2286148903        7.4378268953  W2        7253            0.0000000000
     17603      5868  TIP3      H1             -1.3300162818       33.1905048903        6.7703368953  W2        7253            0.0000000000
     17604      5868  TIP3      H2             -0.6412862818       34.1413748903        7.7260368953  W2        7253            0.0000000000
     17605      5869  TIP3      OH2             1.3149537182       19.1965448903        4.9827268953  W2        7254            0.0000000000
     17606      5869  TIP3      H1              1.8062937182       18.5667848903        4.4552768953  W2        7254            0.0000000000
     17607      5869  TIP3      H2              1.9385837182       19.4924848903        5.6458468953  W2        7254            0.0000000000
     17608      5870  TIP3      OH2             6.3409637182       19.4896948903        7.4397768953  W2        7255            0.0000000000
     17609      5870  TIP3      H1              6.5190937182       18.8430148903        8.1226368953  W2        7255            0.0000000000
     17610      5870  TIP3      H2              6.2875837182       20.3234648903        7.9068868953  W2        7255            0.0000000000
     17611      5871  TIP3      OH2             8.2193437182       34.4381048903        5.8354468953  W2        7256            0.0000000000
     17612      5871  TIP3      H1              9.0853637182       34.8048448903        5.6572668953  W2        7256            0.0000000000
     17613      5871  TIP3      H2              7.9726237182       33.9989048903        5.0215268953  W2        7256            0.0000000000
     17614      5872  TIP3      OH2            14.9283037182       34.0011348903        8.5145568953  W2        7257            0.0000000000
     17615      5872  TIP3      H1             14.7340137182       33.2533448903        7.9495168953  W2        7257            0.0000000000
     17616      5872  TIP3      H2             14.8893137182       34.7591448903        7.9313468953  W2        7257            0.0000000000
     17617      5873  TIP3      OH2             1.1731137182       34.1486948903        4.4630368953  W2        7260            0.0000000000
     17618      5873  TIP3      H1              0.9055737182       34.4349848903        5.3363468953  W2        7260            0.0000000000
     17619      5873  TIP3      H2              1.9443737182       33.6026148903        4.6152868953  W2        7260            0.0000000000
     17620      5874  TIP3      OH2            28.5519637182       26.6388148903       10.6954568953  W2        7263            0.0000000000
     17621      5874  TIP3      H1             28.6410737182       27.5826348903       10.5631668953  W2        7263            0.0000000000
     17622      5874  TIP3      H2             27.9137237182       26.3634548903       10.0373968953  W2        7263            0.0000000000
     17623      5875  TIP3      OH2            27.4850937182       25.8938848903       14.1142768953  W2        7264            0.0000000000
     17624      5875  TIP3      H1             27.4468437182       25.2475148903       14.8192368953  W2        7264            0.0000000000
     17625      5875  TIP3      H2             27.1627437182       25.4273248903       13.3431468953  W2        7264            0.0000000000
     17626      5876  TIP3      OH2            31.1911137182       28.8329248903       12.4157868953  W2        7266            0.0000000000
     17627      5876  TIP3      H1             30.7503837182       28.1125248903       12.8663468953  W2        7266            0.0000000000
     17628      5876  TIP3      H2             31.1780837182       29.5536448903       13.0455568953  W2        7266            0.0000000000
     17629      5877  TIP3      OH2            20.7769037182       29.9579848903       14.2421768953  W2        7267            0.0000000000
     17630      5877  TIP3      H1             20.4074237182       29.1560348903       13.8726068953  W2        7267            0.0000000000
     17631      5877  TIP3      H2             21.7180137182       29.7894748903       14.2885168953  W2        7267            0.0000000000
     17632      5878  TIP3      OH2            17.3869537182       23.6182448903        9.6350568953  W2        7268            0.0000000000
     17633      5878  TIP3      H1             16.9392937182       24.4641148903        9.6167068953  W2        7268            0.0000000000
     17634      5878  TIP3      H2             16.8260737182       23.0386648903        9.1195668953  W2        7268            0.0000000000
     17635      5879  TIP3      OH2            18.0975637182       25.7802048903       11.7608568953  W2        7269            0.0000000000
     17636      5879  TIP3      H1             18.3109137182       25.0103648903       12.2881568953  W2        7269            0.0000000000
     17637      5879  TIP3      H2             18.8353237182       25.8698748903       11.1576168953  W2        7269            0.0000000000
     17638      5880  TIP3      OH2            28.3026637182       33.9370948903       12.6278268953  W2        7270            0.0000000000
     17639      5880  TIP3      H1             28.9223037182       33.2605648903       12.3547468953  W2        7270            0.0000000000
     17640      5880  TIP3      H2             28.0944037182       33.7191748903       13.5363168953  W2        7270            0.0000000000
     17641      5881  TIP3      OH2            25.8745337182       28.3260248903       14.5203768953  W2        7271            0.0000000000
     17642      5881  TIP3      H1             26.1783237182       27.6401648903       13.9257868953  W2        7271            0.0000000000
     17643      5881  TIP3      H2             26.5959337182       28.4448948903       15.1381768953  W2        7271            0.0000000000
     17644      5882  TIP3      OH2            29.0152337182       22.7202648903       14.8478568953  W2        7273            0.0000000000
     17645      5882  TIP3      H1             29.1578237182       21.7739648903       14.8680168953  W2        7273            0.0000000000
     17646      5882  TIP3      H2             28.9091337182       22.9272448903       13.9193468953  W2        7273            0.0000000000
     17647      5883  TIP3      OH2            22.1700637182       20.8219048903       12.1203368953  W2        7274            0.0000000000
     17648      5883  TIP3      H1             22.2131737182       21.6817548903       11.7019668953  W2        7274            0.0000000000
     17649      5883  TIP3      H2             21.7124737182       20.2693748903       11.4866568953  W2        7274            0.0000000000
     17650      5884  TIP3      OH2            29.8923337182       20.9524648903       10.5211668953  W2        7275            0.0000000000
     17651      5884  TIP3      H1             30.5387637182       20.6237848903       11.1459268953  W2        7275            0.0000000000
     17652      5884  TIP3      H2             30.4022737182       21.4703648903        9.8983068953  W2        7275            0.0000000000
     17653      5885  TIP3      OH2            18.7902137182       23.2184848903       12.8824768953  W2        7276            0.0000000000
     17654      5885  TIP3      H1             19.4438737182       22.6686548903       13.3144868953  W2        7276            0.0000000000
     17655      5885  TIP3      H2             18.8141437182       22.9443848903       11.9656768953  W2        7276            0.0000000000
     17656      5886  TIP3      OH2            23.9466637182       24.7686148903       12.0976268953  W2        7277            0.0000000000
     17657      5886  TIP3      H1             24.5627637182       24.2421548903       12.6070268953  W2        7277            0.0000000000
     17658      5886  TIP3      H2             23.3605437182       24.1284848903       11.6939868953  W2        7277            0.0000000000
     17659      5887  TIP3      OH2            28.3492337182       29.2398548903        9.7383268953  W2        7280            0.0000000000
     17660      5887  TIP3      H1             28.0537437182       28.9170848903        8.8870168953  W2        7280            0.0000000000
     17661      5887  TIP3      H2             28.0250137182       30.1395248903        9.7795868953  W2        7280            0.0000000000
     17662      5888  TIP3      OH2            31.6561737182       20.2433948903       12.5017568953  W2        7282            0.0000000000
     17663      5888  TIP3      H1             31.4409737182       19.4777348903       13.0343568953  W2        7282            0.0000000000
     17664      5888  TIP3      H2             32.3119137182       20.7158548903       13.0146068953  W2        7282            0.0000000000
     17665      5889  TIP3      OH2            20.5739837182       21.6319248903       14.1466368953  W2        7283            0.0000000000
     17666      5889  TIP3      H1             21.1876137182       22.2646848903       14.5198768953  W2        7283            0.0000000000
     17667      5889  TIP3      H2             21.0860537182       21.1594248903       13.4903268953  W2        7283            0.0000000000
     17668      5890  TIP3      OH2            18.0779137182       29.0504048903        8.0508668953  W2        7285            0.0000000000
     17669      5890  TIP3      H1             17.8060037182       29.2795048903        7.1621568953  W2        7285            0.0000000000
     17670      5890  TIP3      H2             18.1234837182       29.8882848903        8.5113968953  W2        7285            0.0000000000
     17671      5891  TIP3      OH2            31.7028837182       30.6719948903       14.7637168953  W2        7286            0.0000000000
     17672      5891  TIP3      H1             30.7612537182       30.7303848903       14.9254068953  W2        7286            0.0000000000
     17673      5891  TIP3      H2             31.9794937182       31.5780448903       14.6266868953  W2        7286            0.0000000000
     17674      5892  TIP3      OH2            25.0067237182       17.0452548903       13.6469068953  W2        7288            0.0000000000
     17675      5892  TIP3      H1             24.8891437182       16.0968548903       13.5927368953  W2        7288            0.0000000000
     17676      5892  TIP3      H2             24.1517337182       17.3778648903       13.9200168953  W2        7288            0.0000000000
     17677      5893  TIP3      OH2            29.9550037182       32.4533448903       11.3888768953  W2        7289            0.0000000000
     17678      5893  TIP3      H1             30.3802337182       31.7461348903       10.9038368953  W2        7289            0.0000000000
     17679      5893  TIP3      H2             30.2720037182       33.2546148903       10.9720968953  W2        7289            0.0000000000
     17680      5894  TIP3      OH2            31.1146537182       30.3541948903        9.8975368953  W2        7290            0.0000000000
     17681      5894  TIP3      H1             30.8571337182       29.6642048903        9.2861268953  W2        7290            0.0000000000
     17682      5894  TIP3      H2             31.1857337182       29.9113148903       10.7431268953  W2        7290            0.0000000000
     17683      5895  TIP3      OH2            27.2732137182       25.8828148903        8.1474868953  W2        7292            0.0000000000
     17684      5895  TIP3      H1             26.5617637182       26.4177848903        7.7955368953  W2        7292            0.0000000000
     17685      5895  TIP3      H2             27.9641737182       25.9380248903        7.4873768953  W2        7292            0.0000000000
     17686      5896  TIP3      OH2            27.3271337182       24.3402448903        5.1859868953  W2        7293            0.0000000000
     17687      5896  TIP3      H1             28.0281237182       24.3629348903        5.8373868953  W2        7293            0.0000000000
     17688      5896  TIP3      H2             27.6294237182       23.7122148903        4.5299168953  W2        7293            0.0000000000
     17689      5897  TIP3      OH2            30.6789837182       26.0921448903        9.0990768953  W2        7295            0.0000000000
     17690      5897  TIP3      H1             29.9470837182       26.3205148903        9.6721368953  W2        7295            0.0000000000
     17691      5897  TIP3      H2             31.1262037182       25.3784148903        9.5538268953  W2        7295            0.0000000000
     17692      5898  TIP3      OH2            22.3243537182       26.7227648903       10.9815768953  W2        7297            0.0000000000
     17693      5898  TIP3      H1             21.9938737182       26.3521048903       10.1632768953  W2        7297            0.0000000000
     17694      5898  TIP3      H2             22.9127637182       26.0521648903       11.3284068953  W2        7297            0.0000000000
     17695      5899  TIP3      OH2            23.6911037182       30.1508248903       13.6627968953  W2        7298            0.0000000000
     17696      5899  TIP3      H1             23.5962337182       29.5721348903       12.9062568953  W2        7298            0.0000000000
     17697      5899  TIP3      H2             24.4204637182       29.7793948903       14.1590768953  W2        7298            0.0000000000
     17698      5900  TIP3      OH2            22.6909037182       25.4913248903       14.6150768953  W2        7299            0.0000000000
     17699      5900  TIP3      H1             23.2561537182       25.6127448903       13.8521968953  W2        7299            0.0000000000
     17700      5900  TIP3      H2             23.0097937182       26.1288248903       15.2539268953  W2        7299            0.0000000000
     17701      5901  TIP3      OH2            29.5499337182       25.2544348903        6.7841968953  W2        7302            0.0000000000
     17702      5901  TIP3      H1             30.1294837182       25.4044648903        7.5310868953  W2        7302            0.0000000000
     17703      5901  TIP3      H2             29.9639337182       25.7251748903        6.0608368953  W2        7302            0.0000000000
     17704      5902  TIP3      OH2            27.2764237182       31.9912848903       10.2195068953  W2        7304            0.0000000000
     17705      5902  TIP3      H1             27.7501837182       32.2869148903       10.9969268953  W2        7304            0.0000000000
     17706      5902  TIP3      H2             26.7133537182       32.7294448903        9.9864668953  W2        7304            0.0000000000
     17707      5903  TIP3      OH2            33.2487737182       17.0044748903        6.5971668953  W2        7306            0.0000000000
     17708      5903  TIP3      H1             32.3488437182       17.1433748903        6.8922268953  W2        7306            0.0000000000
     17709      5903  TIP3      H2             33.5006137182       17.8359348903        6.1953368953  W2        7306            0.0000000000
     17710      5904  TIP3      OH2            21.3146237182       25.7921948903        8.5708568953  W2        7307            0.0000000000
     17711      5904  TIP3      H1             21.0227537182       26.5603648903        8.0799868953  W2        7307            0.0000000000
     17712      5904  TIP3      H2             20.6401437182       25.1328148903        8.4079968953  W2        7307            0.0000000000
     17713      5905  TIP3      OH2            34.4379137182       31.3707148903        4.9735568953  W2        7308            0.0000000000
     17714      5905  TIP3      H1             34.5112637182       32.3097348903        5.1440868953  W2        7308            0.0000000000
     17715      5905  TIP3      H2             35.3434237182       31.0655748903        4.9172868953  W2        7308            0.0000000000
     17716      5906  TIP3      OH2            17.1579037182       30.9354948903       14.2698568953  W2        7310            0.0000000000
     17717      5906  TIP3      H1             18.1039637182       30.7911948903       14.2508068953  W2        7310            0.0000000000
     17718      5906  TIP3      H2             17.0455337182       31.7197748903       14.8069768953  W2        7310            0.0000000000
     17719      5907  TIP3      OH2            26.7487337182       34.9477548903        8.6344268953  W2        7313            0.0000000000
     17720      5907  TIP3      H1             26.6733337182       34.8264748903        7.6879468953  W2        7313            0.0000000000
     17721      5907  TIP3      H2             26.7816037182       35.8970248903        8.7528868953  W2        7313            0.0000000000
     17722      5908  TIP3      OH2            20.4021137182       33.7364548903       10.4153268953  W2        7314            0.0000000000
     17723      5908  TIP3      H1             20.5541537182       33.3884948903       11.2939768953  W2        7314            0.0000000000
     17724      5908  TIP3      H2             19.5511537182       33.3801848903       10.1600468953  W2        7314            0.0000000000
     17725      5909  TIP3      OH2            29.8503337182       34.1017748903        5.6366668953  W2        7315            0.0000000000
     17726      5909  TIP3      H1             30.2251737182       33.3573848903        5.1659268953  W2        7315            0.0000000000
     17727      5909  TIP3      H2             29.8547037182       33.8318348903        6.5549968953  W2        7315            0.0000000000
     17728      5910  TIP3      OH2            29.5191437182       34.0274848903        8.3858868953  W2        7316            0.0000000000
     17729      5910  TIP3      H1             28.5841237182       34.1276748903        8.5645868953  W2        7316            0.0000000000
     17730      5910  TIP3      H2             29.7993337182       33.3180848903        8.9642068953  W2        7316            0.0000000000
     17731      5911  TIP3      OH2            22.2754837182       17.9487048903       14.4245368953  W2        7319            0.0000000000
     17732      5911  TIP3      H1             21.4138537182       17.8615248903       14.0168268953  W2        7319            0.0000000000
     17733      5911  TIP3      H2             22.2530537182       18.8047148903       14.8522968953  W2        7319            0.0000000000
     17734      5912  TIP3      OH2            31.0272437182       26.2872648903        4.4139868953  W2        7322            0.0000000000
     17735      5912  TIP3      H1             31.0693237182       26.0646548903        3.4839868953  W2        7322            0.0000000000
     17736      5912  TIP3      H2             31.8764537182       26.6859748903        4.6039768953  W2        7322            0.0000000000
     17737      5913  TIP3      OH2            26.5999937182       20.1630848903        5.0843168953  W2        7323            0.0000000000
     17738      5913  TIP3      H1             26.3464737182       20.1822448903        6.0071268953  W2        7323            0.0000000000
     17739      5913  TIP3      H2             26.3432037182       19.2916248903        4.7829368953  W2        7323            0.0000000000
     17740      5914  TIP3      OH2            22.3634037182       23.1351648903       10.4315568953  W2        7325            0.0000000000
     17741      5914  TIP3      H1             21.4706937182       22.7947748903       10.3729368953  W2        7325            0.0000000000
     17742      5914  TIP3      H2             22.8140637182       22.7582548903        9.6758768953  W2        7325            0.0000000000
     17743      5915  TIP3      OH2            27.8989537182       23.5511948903        9.2486368953  W2        7326            0.0000000000
     17744      5915  TIP3      H1             27.4899837182       24.3660548903        8.9571168953  W2        7326            0.0000000000
     17745      5915  TIP3      H2             28.6195737182       23.4112048903        8.6343468953  W2        7326            0.0000000000
     17746      5916  TIP3      OH2            28.9037237182       22.9972348903       12.0626068953  W2        7328            0.0000000000
     17747      5916  TIP3      H1             28.7081737182       23.6029148903       11.3476668953  W2        7328            0.0000000000
     17748      5916  TIP3      H2             29.0849837182       22.1637548903       11.6282368953  W2        7328            0.0000000000
     17749      5917  TIP3      OH2            23.4822837182       20.6087348903        4.1853568953  W2        7330            0.0000000000
     17750      5917  TIP3      H1             23.0513537182       20.1637448903        4.9150968953  W2        7330            0.0000000000
     17751      5917  TIP3      H2             22.7641537182       20.9803648903        3.6731068953  W2        7330            0.0000000000
     17752      5918  TIP3      OH2            16.7246237182       20.3506848903       11.2372268953  W2        7331            0.0000000000
     17753      5918  TIP3      H1             17.3553937182       20.3218948903       11.9566168953  W2        7331            0.0000000000
     17754      5918  TIP3      H2             17.1740537182       19.9255548903       10.5068168953  W2        7331            0.0000000000
     17755      5919  TIP3      OH2            17.9988337182       21.0968848903        6.6612668953  W2        7332            0.0000000000
     17756      5919  TIP3      H1             18.4730037182       21.6878748903        6.0763568953  W2        7332            0.0000000000
     17757      5919  TIP3      H2             17.2814737182       21.6271748903        7.0082768953  W2        7332            0.0000000000
     17758      5920  TIP3      OH2            24.9449337182       20.5629148903       11.5179668953  W2        7334            0.0000000000
     17759      5920  TIP3      H1             24.0340437182       20.6195948903       11.8065668953  W2        7334            0.0000000000
     17760      5920  TIP3      H2             25.4502237182       20.5024648903       12.3286868953  W2        7334            0.0000000000
     17761      5921  TIP3      OH2            19.7732737182       22.1915448903       10.3447268953  W2        7335            0.0000000000
     17762      5921  TIP3      H1             18.8840737182       22.2910948903       10.0046868953  W2        7335            0.0000000000
     17763      5921  TIP3      H2             20.0697637182       21.3498448903        9.9985168953  W2        7335            0.0000000000
     17764      5922  TIP3      OH2            23.4264537182       22.1918048903        8.0011868953  W2        7336            0.0000000000
     17765      5922  TIP3      H1             24.3580037182       22.3208048903        8.1794968953  W2        7336            0.0000000000
     17766      5922  TIP3      H2             23.2114837182       22.8612348903        7.3516568953  W2        7336            0.0000000000
     17767      5923  TIP3      OH2            29.3501237182       19.7975448903       14.7821468953  W2        7337            0.0000000000
     17768      5923  TIP3      H1             28.6732837182       19.9288548903       15.4461168953  W2        7337            0.0000000000
     17769      5923  TIP3      H2             28.8646137182       19.6424948903       13.9719168953  W2        7337            0.0000000000
     17770      5924  TIP3      OH2            22.1004737182       23.3860248903        5.5677968953  W2        7338            0.0000000000
     17771      5924  TIP3      H1             21.5579837182       23.0064048903        4.8765568953  W2        7338            0.0000000000
     17772      5924  TIP3      H2             22.9339637182       23.5804948903        5.1392068953  W2        7338            0.0000000000
     17773      5925  TIP3      OH2            26.2649037182       23.3502148903       13.4049268953  W2        7341            0.0000000000
     17774      5925  TIP3      H1             26.8292437182       22.8038748903       12.8578868953  W2        7341            0.0000000000
     17775      5925  TIP3      H2             26.1172437182       22.8284048903       14.1936868953  W2        7341            0.0000000000
     17776      5926  TIP3      OH2            21.2668737182       19.4868248903        9.8234068953  W2        7342            0.0000000000
     17777      5926  TIP3      H1             20.9498237182       18.5843548903        9.7879468953  W2        7342            0.0000000000
     17778      5926  TIP3      H2             22.0482837182       19.4885648903        9.2705668953  W2        7342            0.0000000000
     17779      5927  TIP3      OH2            25.4357537182       27.9515948903        7.5036068953  W2        7344            0.0000000000
     17780      5927  TIP3      H1             24.6908537182       27.4441248903        7.1813968953  W2        7344            0.0000000000
     17781      5927  TIP3      H2             25.3014737182       28.0003948903        8.4500868953  W2        7344            0.0000000000
     17782      5928  TIP3      OH2            29.3334337182       20.7655848903        5.7028668953  W2        7346            0.0000000000
     17783      5928  TIP3      H1             28.3948537182       20.8771448903        5.5517468953  W2        7346            0.0000000000
     17784      5928  TIP3      H2             29.6306437182       21.6222748903        6.0094368953  W2        7346            0.0000000000
     17785      5929  TIP3      OH2            30.0517837182       22.6328548903        7.3636068953  W2        7348            0.0000000000
     17786      5929  TIP3      H1             30.9436837182       22.4953548903        7.6827268953  W2        7348            0.0000000000
     17787      5929  TIP3      H2             30.1081437182       23.4234648903        6.8269568953  W2        7348            0.0000000000
     17788      5930  TIP3      OH2            20.5605837182       27.2465948903       13.2733968953  W2        7349            0.0000000000
     17789      5930  TIP3      H1             21.3053037182       27.2441648903       12.6720468953  W2        7349            0.0000000000
     17790      5930  TIP3      H2             20.6382437182       26.4229748903       13.7549068953  W2        7349            0.0000000000
     17791      5931  TIP3      OH2            27.5611637182       29.4100248903        6.5290668953  W2        7350            0.0000000000
     17792      5931  TIP3      H1             27.2660037182       30.2368148903        6.9105468953  W2        7350            0.0000000000
     17793      5931  TIP3      H2             26.8581637182       28.7907148903        6.7252068953  W2        7350            0.0000000000
     17794      5932  TIP3      OH2            34.9366537182       22.8422648903        7.0582768953  W2        7354            0.0000000000
     17795      5932  TIP3      H1             34.3822837182       22.4460648903        6.3860268953  W2        7354            0.0000000000
     17796      5932  TIP3      H2             35.0370137182       23.7527848903        6.7806068953  W2        7354            0.0000000000
     17797      5933  TIP3      OH2            33.2318237182       31.6283048903        7.5234868953  W2        7356            0.0000000000
     17798      5933  TIP3      H1             32.8589337182       30.8026848903        7.8325468953  W2        7356            0.0000000000
     17799      5933  TIP3      H2             33.5091737182       31.4452448903        6.6258268953  W2        7356            0.0000000000
     17800      5934  TIP3      OH2            30.3922137182       26.4362548903       14.5446768953  W2        7357            0.0000000000
     17801      5934  TIP3      H1             29.4639037182       26.2044448903       14.5176068953  W2        7357            0.0000000000
     17802      5934  TIP3      H2             30.8433237182       25.6592348903       14.2145568953  W2        7357            0.0000000000
     17803      5935  TIP3      OH2            22.9355237182       30.7644148903       10.6775468953  W2        7358            0.0000000000
     17804      5935  TIP3      H1             23.4627437182       31.5378548903       10.4774268953  W2        7358            0.0000000000
     17805      5935  TIP3      H2             22.0553737182       30.9893348903       10.3759468953  W2        7358            0.0000000000
     17806      5936  TIP3      OH2            18.6902937182       25.6268248903        5.2647868953  W2        7359            0.0000000000
     17807      5936  TIP3      H1             19.3062837182       26.2535448903        5.6442668953  W2        7359            0.0000000000
     17808      5936  TIP3      H2             17.8285537182       25.9428048903        5.5364368953  W2        7359            0.0000000000
     17809      5937  TIP3      OH2            24.3627537182       28.4274048903       10.2539768953  W2        7360            0.0000000000
     17810      5937  TIP3      H1             24.1217537182       29.3528448903       10.2955068953  W2        7360            0.0000000000
     17811      5937  TIP3      H2             23.6221137182       27.9685348903       10.6503668953  W2        7360            0.0000000000
     17812      5938  TIP3      OH2            23.0458337182       33.4491648903        9.7991968953  W2        7362            0.0000000000
     17813      5938  TIP3      H1             22.0958837182       33.5549048903        9.8505268953  W2        7362            0.0000000000
     17814      5938  TIP3      H2             23.3976437182       34.2699048903       10.1439468953  W2        7362            0.0000000000
     17815      5939  TIP3      OH2            30.6243837182       29.6048848903        5.3435468953  W2        7364            0.0000000000
     17816      5939  TIP3      H1             30.9776937182       29.2248648903        6.1478968953  W2        7364            0.0000000000
     17817      5939  TIP3      H2             29.6757337182       29.5113648903        5.4304768953  W2        7364            0.0000000000
     17818      5940  TIP3      OH2            35.1278237182       34.0841348903        5.5445668953  W2        7366            0.0000000000
     17819      5940  TIP3      H1             35.8716137182       34.6701848903        5.4047268953  W2        7366            0.0000000000
     17820      5940  TIP3      H2             34.4336337182       34.6527148903        5.8778068953  W2        7366            0.0000000000
     17821      5941  TIP3      OH2            31.4903137182       28.2770848903        7.5703368953  W2        7368            0.0000000000
     17822      5941  TIP3      H1             31.2130737182       27.5490148903        8.1264468953  W2        7368            0.0000000000
     17823      5941  TIP3      H2             32.4176137182       28.3962848903        7.7755968953  W2        7368            0.0000000000
     17824      5942  TIP3      OH2            24.7151637182       30.7164948903        3.7905468953  W2        7370            0.0000000000
     17825      5942  TIP3      H1             24.9541437182       29.9683048903        3.2434368953  W2        7370            0.0000000000
     17826      5942  TIP3      H2             24.4462937182       30.3286648903        4.6233268953  W2        7370            0.0000000000
     17827      5943  TIP3      OH2            23.6522237182       30.2868748903        6.2468068953  W2        7371            0.0000000000
     17828      5943  TIP3      H1             23.7990237182       29.7668548903        7.0368968953  W2        7371            0.0000000000
     17829      5943  TIP3      H2             23.6493937182       31.1936348903        6.5533968953  W2        7371            0.0000000000
     17830      5944  TIP3      OH2            20.1053337182       27.5392048903        6.7573468953  W2        7372            0.0000000000
     17831      5944  TIP3      H1             19.4192637182       27.8914548903        7.3243168953  W2        7372            0.0000000000
     17832      5944  TIP3      H2             20.6281237182       28.3021648903        6.5107768953  W2        7372            0.0000000000
     17833      5945  TIP3      OH2            28.7213337182       19.8537548903        8.1334768953  W2        7374            0.0000000000
     17834      5945  TIP3      H1             28.9411637182       20.3252948903        7.3300168953  W2        7374            0.0000000000
     17835      5945  TIP3      H2             29.2797337182       20.2480148903        8.8035368953  W2        7374            0.0000000000
     17836      5946  TIP3      OH2            26.3899437182       31.9842348903        6.9962268953  W2        7375            0.0000000000
     17837      5946  TIP3      H1             25.5735537182       32.4812048903        7.0486568953  W2        7375            0.0000000000
     17838      5946  TIP3      H2             26.9195737182       32.4595848903        6.3561068953  W2        7375            0.0000000000
     17839      5947  TIP3      OH2            25.9213237182       21.5816348903        8.9683168953  W2        7376            0.0000000000
     17840      5947  TIP3      H1             26.7335837182       22.0859548903        9.0144868953  W2        7376            0.0000000000
     17841      5947  TIP3      H2             25.6766237182       21.4366048903        9.8822768953  W2        7376            0.0000000000
     17842      5948  TIP3      OH2            26.8049937182       18.6629348903        9.9064268953  W2        7378            0.0000000000
     17843      5948  TIP3      H1             26.4583437182       19.2799948903       10.5508568953  W2        7378            0.0000000000
     17844      5948  TIP3      H2             27.4636837182       19.1635048903        9.4249768953  W2        7378            0.0000000000
     17845      5949  TIP3      OH2            23.7282537182       33.0279548903        6.9779168953  W2        7379            0.0000000000
     17846      5949  TIP3      H1             23.8891237182       33.8277048903        6.4771768953  W2        7379            0.0000000000
     17847      5949  TIP3      H2             23.5310337182       33.3345548903        7.8629768953  W2        7379            0.0000000000
     17848      5950  TIP3      OH2            22.4626937182       19.7258748903        6.5936768953  W2        7380            0.0000000000
     17849      5950  TIP3      H1             22.3791737182       20.6141848903        6.9403168953  W2        7380            0.0000000000
     17850      5950  TIP3      H2             23.3527237182       19.4605448903        6.8253568953  W2        7380            0.0000000000
     17851      5951  TIP3      OH2            31.2636437182       24.2250348903       13.0836768953  W2        7382            0.0000000000
     17852      5951  TIP3      H1             30.4660837182       23.8100548903       12.7551768953  W2        7382            0.0000000000
     17853      5951  TIP3      H2             31.7087537182       23.5344048903       13.5747268953  W2        7382            0.0000000000
     17854      5952  TIP3      OH2            20.7212237182       30.1530948903        5.6541268953  W2        7383            0.0000000000
     17855      5952  TIP3      H1             21.3133737182       30.8525748903        5.9303668953  W2        7383            0.0000000000
     17856      5952  TIP3      H2             21.1805237182       29.7200448903        4.9345868953  W2        7383            0.0000000000
     17857      5953  TIP3      OH2            19.0371437182       22.8173948903        4.7700668953  W2        7384            0.0000000000
     17858      5953  TIP3      H1             18.9924037182       23.7567048903        4.9487668953  W2        7384            0.0000000000
     17859      5953  TIP3      H2             18.1494637182       22.5818848903        4.5002768953  W2        7384            0.0000000000
     17860      5954  TIP3      OH2            32.3501037182       33.4812848903       14.7060268953  W2        7385            0.0000000000
     17861      5954  TIP3      H1             32.1945337182       34.1597248903       14.0489568953  W2        7385            0.0000000000
     17862      5954  TIP3      H2             33.2827437182       33.5532148903       14.9090868953  W2        7385            0.0000000000
     17863      5955  TIP3      OH2            19.8453437182       17.5990548903       13.4431668953  W2        7386            0.0000000000
     17864      5955  TIP3      H1             19.6163237182       17.6583048903       12.5156668953  W2        7386            0.0000000000
     17865      5955  TIP3      H2             19.4026837182       16.8076048903       13.7495768953  W2        7386            0.0000000000
     17866      5956  TIP3      OH2            18.7756737182       31.5397648903        9.6037468953  W2        7387            0.0000000000
     17867      5956  TIP3      H1             17.9435337182       32.0120348903        9.6308868953  W2        7387            0.0000000000
     17868      5956  TIP3      H2             19.3215037182       32.0495248903        9.0050568953  W2        7387            0.0000000000
     17869      5957  TIP3      OH2            26.7533437182       32.5796348903        3.9291468953  W2        7390            0.0000000000
     17870      5957  TIP3      H1             26.1094437182       31.9484948903        4.2505168953  W2        7390            0.0000000000
     17871      5957  TIP3      H2             27.5151737182       32.0484348903        3.6974968953  W2        7390            0.0000000000
     17872      5958  TIP3      OH2            31.3576337182       32.3966248903        4.1629468953  W2        7392            0.0000000000
     17873      5958  TIP3      H1             31.6406737182       31.6021448903        4.6156368953  W2        7392            0.0000000000
     17874      5958  TIP3      H2             32.0974237182       32.6297248903        3.6020568953  W2        7392            0.0000000000
     17875      5959  TIP3      OH2            22.3123637182       28.3061148903        4.0204368953  W2        7394            0.0000000000
     17876      5959  TIP3      H1             22.3767737182       27.5120748903        4.5510768953  W2        7394            0.0000000000
     17877      5959  TIP3      H2             22.9652837182       28.1873948903        3.3306368953  W2        7394            0.0000000000
     17878      5960  TIP3      OH2            27.6647037182       29.3532848903        3.7562368953  W2        7396            0.0000000000
     17879      5960  TIP3      H1             27.3961137182       29.5334948903        4.6571268953  W2        7396            0.0000000000
     17880      5960  TIP3      H2             27.4582637182       28.4279048903        3.6248168953  W2        7396            0.0000000000
     17881      5961  TIP3      OH2            23.4617437182       26.2787348903        6.3262368953  W2        7399            0.0000000000
     17882      5961  TIP3      H1             23.0019437182       25.7945648903        7.0120868953  W2        7399            0.0000000000
     17883      5961  TIP3      H2             23.7166137182       25.6102748903        5.6902868953  W2        7399            0.0000000000
     17884      5962  TIP3      OH2            24.5327837182       24.5219148903        4.5885568953  W2        7401            0.0000000000
     17885      5962  TIP3      H1             24.3522837182       24.3670348903        3.6613868953  W2        7401            0.0000000000
     17886      5962  TIP3      H2             25.4828337182       24.6297848903        4.6333468953  W2        7401            0.0000000000
     17887      5963  TIP3      OH2            33.9226137182       26.8763348903        4.0343668953  W2        7403            0.0000000000
     17888      5963  TIP3      H1             33.6490937182       26.4518848903        3.2211968953  W2        7403            0.0000000000
     17889      5963  TIP3      H2             33.9620237182       27.8077848903        3.8174068953  W2        7403            0.0000000000
     17890      5964  TIP3      OH2            24.4299537182       35.2122848903        5.5899168953  W2        7417            0.0000000000
     17891      5964  TIP3      H1             25.3630237182       35.3701548903        5.7337568953  W2        7417            0.0000000000
     17892      5964  TIP3      H2             24.1658337182       35.8875848903        4.9650668953  W2        7417            0.0000000000
     17893      5965  TIP3      OH2            17.9984437182       29.8486648903        5.0727268953  W2        7418            0.0000000000
     17894      5965  TIP3      H1             18.9123637182       29.9275548903        5.3461168953  W2        7418            0.0000000000
     17895      5965  TIP3      H2             18.0057537182       29.1616248903        4.4062868953  W2        7418            0.0000000000
     17896      5966  TIP3      OH2            16.6475037182       35.2415148903       10.1501168953  W2        7419            0.0000000000
     17897      5966  TIP3      H1             16.0002137182       34.7796848903        9.6172368953  W2        7419            0.0000000000
     17898      5966  TIP3      H2             17.0019637182       34.5698448903       10.7327368953  W2        7419            0.0000000000
     17899      5967  TIP3      OH2            17.5174237182       33.3222148903       11.9547368953  W2        7420            0.0000000000
     17900      5967  TIP3      H1             17.1831037182       32.4419448903       12.1267568953  W2        7420            0.0000000000
     17901      5967  TIP3      H2             17.7396637182       33.6677148903       12.8192968953  W2        7420            0.0000000000
     17902      5968  TIP3      OH2            34.3808937182       27.7451448903        8.0094068953  W2        7424            0.0000000000
     17903      5968  TIP3      H1             35.2310337182       28.1662348903        8.1365668953  W2        7424            0.0000000000
     17904      5968  TIP3      H2             34.3864037182       27.0051548903        8.6165468953  W2        7424            0.0000000000
     17905      5969  TIP3      OH2            34.7754537182       25.7988848903        9.8329768953  W2        7425            0.0000000000
     17906      5969  TIP3      H1             34.0489137182       25.3191448903       10.2307368953  W2        7425            0.0000000000
     17907      5969  TIP3      H2             35.3567837182       26.0043548903       10.5651368953  W2        7425            0.0000000000
     17908      5970  TIP3      OH2            34.5345737182       28.5836348903       14.7807368953  W2        7426            0.0000000000
     17909      5970  TIP3      H1             35.3679937182       28.2056348903       14.5000968953  W2        7426            0.0000000000
     17910      5970  TIP3      H2             34.6466037182       29.5267548903       14.6616468953  W2        7426            0.0000000000
     17911      5971  TIP3      OH2            35.0437637182       25.6997348903        6.2241068953  W2        7428            0.0000000000
     17912      5971  TIP3      H1             34.5218737182       26.0561448903        5.5051968953  W2        7428            0.0000000000
     17913      5971  TIP3      H2             35.0106837182       26.3745148903        6.9021968953  W2        7428            0.0000000000
     17914      5972  TIP3      OH2            33.3926637182       22.9392948903        4.7748168953  W2        7429            0.0000000000
     17915      5972  TIP3      H1             33.4891037182       23.6059948903        4.0947868953  W2        7429            0.0000000000
     17916      5972  TIP3      H2             33.2526237182       22.1239248903        4.2933668953  W2        7429            0.0000000000
     17917      5973  TIP3      OH2            32.5621337182       24.3195348903       10.3958468953  W2        7430            0.0000000000
     17918      5973  TIP3      H1             32.4120137182       23.3743948903       10.3756268953  W2        7430            0.0000000000
     17919      5973  TIP3      H2             32.2085837182       24.6006748903       11.2397568953  W2        7430            0.0000000000
     17920      5974  TIP3      OH2            17.5973737182       26.3977548903       14.4062268953  W2        7431            0.0000000000
     17921      5974  TIP3      H1             17.7816637182       26.3159248903       13.4705168953  W2        7431            0.0000000000
     17922      5974  TIP3      H2             18.4466637182       26.2734548903       14.8298668953  W2        7431            0.0000000000
     17923      5975  TIP3      OH2            32.6400437182       20.3472748903        3.8923668953  W2        7434            0.0000000000
     17924      5975  TIP3      H1             33.2506237182       19.9759548903        4.5291868953  W2        7434            0.0000000000
     17925      5975  TIP3      H2             31.8031937182       19.9259648903        4.0883668953  W2        7434            0.0000000000
     17926      5976  TIP3      OH2            32.2726137182       21.9021148903        8.8583568953  W2        7435            0.0000000000
     17927      5976  TIP3      H1             32.5523237182       20.9951548903        8.9825268953  W2        7435            0.0000000000
     17928      5976  TIP3      H2             33.0317837182       22.3362648903        8.4692768953  W2        7435            0.0000000000
     17929      5977  TIP3      OH2            32.8844437182       22.4838548903       14.2942468953  W2        7436            0.0000000000
     17930      5977  TIP3      H1             33.8172437182       22.6958448903       14.2598468953  W2        7436            0.0000000000
     17931      5977  TIP3      H2             32.6491937182       22.5850648903       15.2165468953  W2        7436            0.0000000000
     17932      5978  TIP3      OH2            32.8860937182       19.1650448903        8.9065568953  W2        7440            0.0000000000
     17933      5978  TIP3      H1             33.0685937182       18.7161948903        9.7320568953  W2        7440            0.0000000000
     17934      5978  TIP3      H2             32.2863837182       18.5804848903        8.4430168953  W2        7440            0.0000000000
     17935      5979  TIP3      OH2            18.4161037182       19.9804148903       13.4383968953  W2        7441            0.0000000000
     17936      5979  TIP3      H1             18.8612637182       19.1886648903       13.7403668953  W2        7441            0.0000000000
     17937      5979  TIP3      H2             18.8824037182       20.6969348903       13.8689568953  W2        7441            0.0000000000
     17938      5980  TIP3      OH2            16.7201337182       22.9797148903       14.5074168953  W2        7442            0.0000000000
     17939      5980  TIP3      H1             17.2121137182       22.7587648903       13.7166168953  W2        7442            0.0000000000
     17940      5980  TIP3      H2             17.0822237182       23.8200548903       14.7883668953  W2        7442            0.0000000000
     17941      5981  TIP3      OH2            34.7527137182       19.2328548903        5.4345868953  W2        7444            0.0000000000
     17942      5981  TIP3      H1             35.1649737182       18.5114248903        4.9593868953  W2        7444            0.0000000000
     17943      5981  TIP3      H2             35.4343637182       19.9023148903        5.4930168953  W2        7444            0.0000000000
     17944      5982  TIP3      OH2            17.0337837182       19.2376248903        8.5616568953  W2        7445            0.0000000000
     17945      5982  TIP3      H1             16.1086237182       19.4462848903        8.4322068953  W2        7445            0.0000000000
     17946      5982  TIP3      H2             17.4877737182       19.7217048903        7.8718868953  W2        7445            0.0000000000
     17947      5983  TIP3      OH2            31.8045037182       34.2217948903       10.5073968953  W2        7446            0.0000000000
     17948      5983  TIP3      H1             32.4567937182       33.8740048903        9.8993068953  W2        7446            0.0000000000
     17949      5983  TIP3      H2             32.3148837182       34.7101148903       11.1533668953  W2        7446            0.0000000000
     17950      5984  TIP3      OH2            18.9600237182       34.0046948903       14.2665968953  W2        7458            0.0000000000
     17951      5984  TIP3      H1             18.9416237182       33.5792048903       15.1238268953  W2        7458            0.0000000000
     17952      5984  TIP3      H2             19.7648137182       33.6861948903       13.8578168953  W2        7458            0.0000000000
     17953      5985  TIP3      OH2            21.1013337182       32.7145648903       12.9215868953  W2        7459            0.0000000000
     17954      5985  TIP3      H1             20.8824037182       31.7983048903       13.0911868953  W2        7459            0.0000000000
     17955      5985  TIP3      H2             21.9255537182       32.8546048903       13.3877268953  W2        7459            0.0000000000
     17956      5986  TIP3      OH2            23.6385837182       33.1844948903       13.7703868953  W2        7460            0.0000000000
     17957      5986  TIP3      H1             23.8511537182       32.2963948903       13.4834768953  W2        7460            0.0000000000
     17958      5986  TIP3      H2             23.7030937182       33.1502648903       14.7247868953  W2        7460            0.0000000000
     17959      5987  TIP3      OH2            27.1469537182       18.8485548903       12.9147168953  W2        7461            0.0000000000
     17960      5987  TIP3      H1             26.4726337182       18.2191148903       13.1702968953  W2        7461            0.0000000000
     17961      5987  TIP3      H2             27.7108737182       18.3644448903       12.3115068953  W2        7461            0.0000000000
     17962      5988  TIP3      OH2            32.2896737182       16.9559548903       13.0274268953  W2        7462            0.0000000000
     17963      5988  TIP3      H1             32.8934337182       17.5034948903       12.5255268953  W2        7462            0.0000000000
     17964      5988  TIP3      H2             31.4198737182       17.2749948903       12.7868368953  W2        7462            0.0000000000
     17965      5989  TIP3      OH2            34.0167137182       18.0948248903       11.3605168953  W2        7463            0.0000000000
     17966      5989  TIP3      H1             34.6284637182       17.5803948903       10.8338768953  W2        7463            0.0000000000
     17967      5989  TIP3      H2             34.3990537182       18.9720348903       11.3839568953  W2        7463            0.0000000000
     17968      5990  TIP3      OH2            19.4737037182       17.4825848903       10.7367068953  W2        7464            0.0000000000
     17969      5990  TIP3      H1             18.6966837182       17.2480748903       10.2292968953  W2        7464            0.0000000000
     17970      5990  TIP3      H2             20.0040637182       16.6857948903       10.7455068953  W2        7464            0.0000000000
     17971      5991  TIP3      OH2            18.3100437182       17.2803948903        6.5403168953  W2        7465            0.0000000000
     17972      5991  TIP3      H1             18.7491137182       17.8914448903        5.9486668953  W2        7465            0.0000000000
     17973      5991  TIP3      H2             17.6762837182       17.8188048903        7.0143168953  W2        7465            0.0000000000
     17974      5992  TIP3      OH2            24.0529637182       17.4092948903       10.5500168953  W2        7466            0.0000000000
     17975      5992  TIP3      H1             24.9273037182       17.7977248903       10.5204468953  W2        7466            0.0000000000
     17976      5992  TIP3      H2             23.9170437182       17.1940748903       11.4727368953  W2        7466            0.0000000000
     17977      5993  TIP3      OH2            29.6098037182       17.4392748903       12.1991868953  W2        7467            0.0000000000
     17978      5993  TIP3      H1             29.6859637182       17.5344348903       11.2497868953  W2        7467            0.0000000000
     17979      5993  TIP3      H2             29.3347237182       16.5315648903       12.3280968953  W2        7467            0.0000000000
     17980      5994  TIP3      OH2            30.9630637182       17.4650548903        7.8916868953  W2        7468            0.0000000000
     17981      5994  TIP3      H1             30.2601737182       18.0799748903        7.6818268953  W2        7468            0.0000000000
     17982      5994  TIP3      H2             30.5182037182       16.6277248903        8.0227768953  W2        7468            0.0000000000
     17983      5995  TIP3      OH2            18.2109937182       33.2286148903        7.4378268953  W2        7469            0.0000000000
     17984      5995  TIP3      H1             17.5259837182       33.1905048903        6.7703368953  W2        7469            0.0000000000
     17985      5995  TIP3      H2             18.2147137182       34.1413748903        7.7260368953  W2        7469            0.0000000000
     17986      5996  TIP3      OH2            20.1709537182       19.1965448903        4.9827268953  W2        7470            0.0000000000
     17987      5996  TIP3      H1             20.6622937182       18.5667848903        4.4552768953  W2        7470            0.0000000000
     17988      5996  TIP3      H2             20.7945837182       19.4924848903        5.6458468953  W2        7470            0.0000000000
     17989      5997  TIP3      OH2            25.1969637182       19.4896948903        7.4397768953  W2        7471            0.0000000000
     17990      5997  TIP3      H1             25.3750937182       18.8430148903        8.1226368953  W2        7471            0.0000000000
     17991      5997  TIP3      H2             25.1435837182       20.3234648903        7.9068868953  W2        7471            0.0000000000
     17992      5998  TIP3      OH2            27.0753437182       34.4381048903        5.8354468953  W2        7472            0.0000000000
     17993      5998  TIP3      H1             27.9413637182       34.8048448903        5.6572668953  W2        7472            0.0000000000
     17994      5998  TIP3      H2             26.8286237182       33.9989048903        5.0215268953  W2        7472            0.0000000000
     17995      5999  TIP3      OH2            33.7843037182       34.0011348903        8.5145568953  W2        7473            0.0000000000
     17996      5999  TIP3      H1             33.5900137182       33.2533448903        7.9495168953  W2        7473            0.0000000000
     17997      5999  TIP3      H2             33.7453137182       34.7591448903        7.9313468953  W2        7473            0.0000000000
     17998      6000  TIP3      OH2            20.0291137182       34.1486948903        4.4630368953  W2        7476            0.0000000000
     17999      6000  TIP3      H1             19.7615737182       34.4349848903        5.3363468953  W2        7476            0.0000000000
     18000      6000  TIP3      H2             20.8003737182       33.6026148903        4.6152868953  W2        7476            0.0000000000
     18001      6001  TIP3      OH2            39.6329037182       29.9579848903       14.2421768953  W2        7480            0.0000000000
     18002      6001  TIP3      H1             39.2634237182       29.1560348903       13.8726068953  W2        7480            0.0000000000
     18003      6001  TIP3      H2             40.5740137182       29.7894748903       14.2885168953  W2        7480            0.0000000000
     18004      6002  TIP3      OH2            36.2429537182       23.6182448903        9.6350568953  W2        7481            0.0000000000
     18005      6002  TIP3      H1             35.7952937182       24.4641148903        9.6167068953  W2        7481            0.0000000000
     18006      6002  TIP3      H2             35.6820737182       23.0386648903        9.1195668953  W2        7481            0.0000000000
     18007      6003  TIP3      OH2            36.9535637182       25.7802048903       11.7608568953  W2        7482            0.0000000000
     18008      6003  TIP3      H1             37.1669137182       25.0103648903       12.2881568953  W2        7482            0.0000000000
     18009      6003  TIP3      H2             37.6913237182       25.8698748903       11.1576168953  W2        7482            0.0000000000
     18010      6004  TIP3      OH2            37.6462137182       23.2184848903       12.8824768953  W2        7483            0.0000000000
     18011      6004  TIP3      H1             38.2998737182       22.6686548903       13.3144868953  W2        7483            0.0000000000
     18012      6004  TIP3      H2             37.6701437182       22.9443848903       11.9656768953  W2        7483            0.0000000000
     18013      6005  TIP3      OH2            39.4299837182       21.6319248903       14.1466368953  W2        7484            0.0000000000
     18014      6005  TIP3      H1             40.0436137182       22.2646848903       14.5198768953  W2        7484            0.0000000000
     18015      6005  TIP3      H2             39.9420537182       21.1594248903       13.4903268953  W2        7484            0.0000000000
     18016      6006  TIP3      OH2            36.9339137182       29.0504048903        8.0508668953  W2        7485            0.0000000000
     18017      6006  TIP3      H1             36.6620037182       29.2795048903        7.1621568953  W2        7485            0.0000000000
     18018      6006  TIP3      H2             36.9794837182       29.8882848903        8.5113968953  W2        7485            0.0000000000
     18019      6007  TIP3      OH2            36.0139037182       30.9354948903       14.2698568953  W2        7488            0.0000000000
     18020      6007  TIP3      H1             36.9599637182       30.7911948903       14.2508068953  W2        7488            0.0000000000
     18021      6007  TIP3      H2             35.9015337182       31.7197748903       14.8069768953  W2        7488            0.0000000000
     18022      6008  TIP3      OH2            39.2581137182       33.7364548903       10.4153268953  W2        7489            0.0000000000
     18023      6008  TIP3      H1             39.4101537182       33.3884948903       11.2939768953  W2        7489            0.0000000000
     18024      6008  TIP3      H2             38.4071537182       33.3801848903       10.1600468953  W2        7489            0.0000000000
     18025      6009  TIP3      OH2            35.5806237182       20.3506848903       11.2372268953  W2        7492            0.0000000000
     18026      6009  TIP3      H1             36.2113937182       20.3218948903       11.9566168953  W2        7492            0.0000000000
     18027      6009  TIP3      H2             36.0300537182       19.9255548903       10.5068168953  W2        7492            0.0000000000
     18028      6010  TIP3      OH2            36.8548337182       21.0968848903        6.6612668953  W2        7493            0.0000000000
     18029      6010  TIP3      H1             37.3290037182       21.6878748903        6.0763568953  W2        7493            0.0000000000
     18030      6010  TIP3      H2             36.1374737182       21.6271748903        7.0082768953  W2        7493            0.0000000000
     18031      6011  TIP3      OH2            38.6292737182       22.1915448903       10.3447268953  W2        7494            0.0000000000
     18032      6011  TIP3      H1             37.7400737182       22.2910948903       10.0046868953  W2        7494            0.0000000000
     18033      6011  TIP3      H2             38.9257637182       21.3498448903        9.9985168953  W2        7494            0.0000000000
     18034      6012  TIP3      OH2            39.4165837182       27.2465948903       13.2733968953  W2        7496            0.0000000000
     18035      6012  TIP3      H1             40.1613037182       27.2441648903       12.6720468953  W2        7496            0.0000000000
     18036      6012  TIP3      H2             39.4942437182       26.4229748903       13.7549068953  W2        7496            0.0000000000
     18037      6013  TIP3      OH2            37.5462937182       25.6268248903        5.2647868953  W2        7498            0.0000000000
     18038      6013  TIP3      H1             38.1622837182       26.2535448903        5.6442668953  W2        7498            0.0000000000
     18039      6013  TIP3      H2             36.6845537182       25.9428048903        5.5364368953  W2        7498            0.0000000000
     18040      6014  TIP3      OH2            38.9613337182       27.5392048903        6.7573468953  W2        7501            0.0000000000
     18041      6014  TIP3      H1             38.2752637182       27.8914548903        7.3243168953  W2        7501            0.0000000000
     18042      6014  TIP3      H2             39.4841237182       28.3021648903        6.5107768953  W2        7501            0.0000000000
     18043      6015  TIP3      OH2            39.5772237182       30.1530948903        5.6541268953  W2        7502            0.0000000000
     18044      6015  TIP3      H1             40.1693737182       30.8525748903        5.9303668953  W2        7502            0.0000000000
     18045      6015  TIP3      H2             40.0365237182       29.7200448903        4.9345868953  W2        7502            0.0000000000
     18046      6016  TIP3      OH2            37.8931437182       22.8173948903        4.7700668953  W2        7503            0.0000000000
     18047      6016  TIP3      H1             37.8484037182       23.7567048903        4.9487668953  W2        7503            0.0000000000
     18048      6016  TIP3      H2             37.0054637182       22.5818848903        4.5002768953  W2        7503            0.0000000000
     18049      6017  TIP3      OH2            38.7013437182       17.5990548903       13.4431668953  W2        7504            0.0000000000
     18050      6017  TIP3      H1             38.4723237182       17.6583048903       12.5156668953  W2        7504            0.0000000000
     18051      6017  TIP3      H2             38.2586837182       16.8076048903       13.7495768953  W2        7504            0.0000000000
     18052      6018  TIP3      OH2            37.6316737182       31.5397648903        9.6037468953  W2        7505            0.0000000000
     18053      6018  TIP3      H1             36.7995337182       32.0120348903        9.6308868953  W2        7505            0.0000000000
     18054      6018  TIP3      H2             38.1775037182       32.0495248903        9.0050568953  W2        7505            0.0000000000
     18055      6019  TIP3      OH2            36.8544437182       29.8486648903        5.0727268953  W2        7510            0.0000000000
     18056      6019  TIP3      H1             37.7683637182       29.9275548903        5.3461168953  W2        7510            0.0000000000
     18057      6019  TIP3      H2             36.8617537182       29.1616248903        4.4062868953  W2        7510            0.0000000000
     18058      6020  TIP3      OH2            35.5035037182       35.2415148903       10.1501168953  W2        7511            0.0000000000
     18059      6020  TIP3      H1             34.8562137182       34.7796848903        9.6172368953  W2        7511            0.0000000000
     18060      6020  TIP3      H2             35.8579637182       34.5698448903       10.7327368953  W2        7511            0.0000000000
     18061      6021  TIP3      OH2            36.3734237182       33.3222148903       11.9547368953  W2        7512            0.0000000000
     18062      6021  TIP3      H1             36.0391037182       32.4419448903       12.1267568953  W2        7512            0.0000000000
     18063      6021  TIP3      H2             36.5956637182       33.6677148903       12.8192968953  W2        7512            0.0000000000
     18064      6022  TIP3      OH2            36.4533737182       26.3977548903       14.4062268953  W2        7513            0.0000000000
     18065      6022  TIP3      H1             36.6376637182       26.3159248903       13.4705168953  W2        7513            0.0000000000
     18066      6022  TIP3      H2             37.3026637182       26.2734548903       14.8298668953  W2        7513            0.0000000000
     18067      6023  TIP3      OH2            37.2721037182       19.9804148903       13.4383968953  W2        7515            0.0000000000
     18068      6023  TIP3      H1             37.7172637182       19.1886648903       13.7403668953  W2        7515            0.0000000000
     18069      6023  TIP3      H2             37.7384037182       20.6969348903       13.8689568953  W2        7515            0.0000000000
     18070      6024  TIP3      OH2            35.5761337182       22.9797148903       14.5074168953  W2        7516            0.0000000000
     18071      6024  TIP3      H1             36.0681137182       22.7587648903       13.7166168953  W2        7516            0.0000000000
     18072      6024  TIP3      H2             35.9382237182       23.8200548903       14.7883668953  W2        7516            0.0000000000
     18073      6025  TIP3      OH2            35.8897837182       19.2376248903        8.5616568953  W2        7517            0.0000000000
     18074      6025  TIP3      H1             34.9646237182       19.4462848903        8.4322068953  W2        7517            0.0000000000
     18075      6025  TIP3      H2             36.3437737182       19.7217048903        7.8718868953  W2        7517            0.0000000000
     18076      6026  TIP3      OH2            37.8160237182       34.0046948903       14.2665968953  W2        7521            0.0000000000
     18077      6026  TIP3      H1             37.7976237182       33.5792048903       15.1238268953  W2        7521            0.0000000000
     18078      6026  TIP3      H2             38.6208137182       33.6861948903       13.8578168953  W2        7521            0.0000000000
     18079      6027  TIP3      OH2            38.3297037182       17.4825848903       10.7367068953  W2        7522            0.0000000000
     18080      6027  TIP3      H1             37.5526837182       17.2480748903       10.2292968953  W2        7522            0.0000000000
     18081      6027  TIP3      H2             38.8600637182       16.6857948903       10.7455068953  W2        7522            0.0000000000
     18082      6028  TIP3      OH2            37.1660437182       17.2803948903        6.5403168953  W2        7523            0.0000000000
     18083      6028  TIP3      H1             37.6051137182       17.8914448903        5.9486668953  W2        7523            0.0000000000
     18084      6028  TIP3      H2             36.5322837182       17.8188048903        7.0143168953  W2        7523            0.0000000000
     18085      6029  TIP3      OH2            37.0669937182       33.2286148903        7.4378268953  W2        7524            0.0000000000
     18086      6029  TIP3      H1             36.3819837182       33.1905048903        6.7703368953  W2        7524            0.0000000000
     18087      6029  TIP3      H2             37.0707137182       34.1413748903        7.7260368953  W2        7524            0.0000000000
     18088      6030  TIP3      OH2            39.0269537182       19.1965448903        4.9827268953  W2        7525            0.0000000000
     18089      6030  TIP3      H1             39.5182937182       18.5667848903        4.4552768953  W2        7525            0.0000000000
     18090      6030  TIP3      H2             39.6505837182       19.4924848903        5.6458468953  W2        7525            0.0000000000
     18091      6031  TIP3      OH2            38.8851137182       34.1486948903        4.4630368953  W2        7527            0.0000000000
     18092      6031  TIP3      H1             38.6175737182       34.4349848903        5.3363468953  W2        7527            0.0000000000
     18093      6031  TIP3      H2             39.6563737182       33.6026148903        4.6152868953  W2        7527            0.0000000000
     18094      6032  TIP3      OH2           -34.3979362818       39.6779048903       12.1203368953  W2        7529            0.0000000000
     18095      6032  TIP3      H1            -34.3548262818       40.5377548903       11.7019668953  W2        7529            0.0000000000
     18096      6032  TIP3      H2            -34.8555262818       39.1253748903       11.4866568953  W2        7529            0.0000000000
     18097      6033  TIP3      OH2           -26.6756662818       39.8084648903       10.5211668953  W2        7530            0.0000000000
     18098      6033  TIP3      H1            -26.0292362818       39.4797848903       11.1459268953  W2        7530            0.0000000000
     18099      6033  TIP3      H2            -26.1657262818       40.3263648903        9.8983068953  W2        7530            0.0000000000
     18100      6034  TIP3      OH2           -24.9118262818       39.0993948903       12.5017568953  W2        7532            0.0000000000
     18101      6034  TIP3      H1            -25.1270262818       38.3337348903       13.0343568953  W2        7532            0.0000000000
     18102      6034  TIP3      H2            -24.2560862818       39.5718548903       13.0146068953  W2        7532            0.0000000000
     18103      6035  TIP3      OH2           -31.5612762818       35.9012548903       13.6469068953  W2        7534            0.0000000000
     18104      6035  TIP3      H1            -31.6788562818       34.9528548903       13.5927368953  W2        7534            0.0000000000
     18105      6035  TIP3      H2            -32.4162662818       36.2338648903       13.9200168953  W2        7534            0.0000000000
     18106      6036  TIP3      OH2           -23.3192262818       35.8604748903        6.5971668953  W2        7535            0.0000000000
     18107      6036  TIP3      H1            -24.2191562818       35.9993748903        6.8922268953  W2        7535            0.0000000000
     18108      6036  TIP3      H2            -23.0673862818       36.6919348903        6.1953368953  W2        7535            0.0000000000
     18109      6037  TIP3      OH2           -34.2925162818       36.8047048903       14.4245368953  W2        7536            0.0000000000
     18110      6037  TIP3      H1            -35.1541462818       36.7175248903       14.0168268953  W2        7536            0.0000000000
     18111      6037  TIP3      H2            -34.3149462818       37.6607148903       14.8522968953  W2        7536            0.0000000000
     18112      6038  TIP3      OH2           -29.9680062818       39.0190848903        5.0843168953  W2        7538            0.0000000000
     18113      6038  TIP3      H1            -30.2215262818       39.0382448903        6.0071268953  W2        7538            0.0000000000
     18114      6038  TIP3      H2            -30.2247962818       38.1476248903        4.7829368953  W2        7538            0.0000000000
     18115      6039  TIP3      OH2           -33.0857162818       39.4647348903        4.1853568953  W2        7539            0.0000000000
     18116      6039  TIP3      H1            -33.5166462818       39.0197448903        4.9150968953  W2        7539            0.0000000000
     18117      6039  TIP3      H2            -33.8038462818       39.8363648903        3.6731068953  W2        7539            0.0000000000
     18118      6040  TIP3      OH2           -39.8433762818       39.2066848903       11.2372268953  W2        7540            0.0000000000
     18119      6040  TIP3      H1            -39.2126062818       39.1778948903       11.9566168953  W2        7540            0.0000000000
     18120      6040  TIP3      H2            -39.3939462818       38.7815548903       10.5068168953  W2        7540            0.0000000000
     18121      6041  TIP3      OH2           -31.6230662818       39.4189148903       11.5179668953  W2        7541            0.0000000000
     18122      6041  TIP3      H1            -32.5339562818       39.4755948903       11.8065668953  W2        7541            0.0000000000
     18123      6041  TIP3      H2            -31.1177762818       39.3584648903       12.3286868953  W2        7541            0.0000000000
     18124      6042  TIP3      OH2           -27.2178762818       38.6535448903       14.7821468953  W2        7542            0.0000000000
     18125      6042  TIP3      H1            -27.8947162818       38.7848548903       15.4461168953  W2        7542            0.0000000000
     18126      6042  TIP3      H2            -27.7033862818       38.4984948903       13.9719168953  W2        7542            0.0000000000
     18127      6043  TIP3      OH2           -35.3011262818       38.3428248903        9.8234068953  W2        7543            0.0000000000
     18128      6043  TIP3      H1            -35.6181762818       37.4403548903        9.7879468953  W2        7543            0.0000000000
     18129      6043  TIP3      H2            -34.5197162818       38.3445648903        9.2705668953  W2        7543            0.0000000000
     18130      6044  TIP3      OH2           -27.2345662818       39.6215848903        5.7028668953  W2        7544            0.0000000000
     18131      6044  TIP3      H1            -28.1731462818       39.7331448903        5.5517468953  W2        7544            0.0000000000
     18132      6044  TIP3      H2            -26.9373562818       40.4782748903        6.0094368953  W2        7544            0.0000000000
     18133      6045  TIP3      OH2           -27.8466662818       38.7097548903        8.1334768953  W2        7547            0.0000000000
     18134      6045  TIP3      H1            -27.6268362818       39.1812948903        7.3300168953  W2        7547            0.0000000000
     18135      6045  TIP3      H2            -27.2882662818       39.1040148903        8.8035368953  W2        7547            0.0000000000
     18136      6046  TIP3      OH2           -29.7630062818       37.5189348903        9.9064268953  W2        7548            0.0000000000
     18137      6046  TIP3      H1            -30.1096562818       38.1359948903       10.5508568953  W2        7548            0.0000000000
     18138      6046  TIP3      H2            -29.1043162818       38.0195048903        9.4249768953  W2        7548            0.0000000000
     18139      6047  TIP3      OH2           -34.1053062818       38.5818748903        6.5936768953  W2        7549            0.0000000000
     18140      6047  TIP3      H1            -34.1888262818       39.4701848903        6.9403168953  W2        7549            0.0000000000
     18141      6047  TIP3      H2            -33.2152762818       38.3165448903        6.8253568953  W2        7549            0.0000000000
     18142      6048  TIP3      OH2           -36.7226562818       36.4550548903       13.4431668953  W2        7551            0.0000000000
     18143      6048  TIP3      H1            -36.9516762818       36.5143048903       12.5156668953  W2        7551            0.0000000000
     18144      6048  TIP3      H2            -37.1653162818       35.6636048903       13.7495768953  W2        7551            0.0000000000
     18145      6049  TIP3      OH2           -23.9279562818       39.2032748903        3.8923668953  W2        7559            0.0000000000
     18146      6049  TIP3      H1            -23.3173762818       38.8319548903        4.5291868953  W2        7559            0.0000000000
     18147      6049  TIP3      H2            -24.7648062818       38.7819648903        4.0883668953  W2        7559            0.0000000000
     18148      6050  TIP3      OH2           -23.6819062818       38.0210448903        8.9065568953  W2        7561            0.0000000000
     18149      6050  TIP3      H1            -23.4994062818       37.5721948903        9.7320568953  W2        7561            0.0000000000
     18150      6050  TIP3      H2            -24.2816162818       37.4364848903        8.4430168953  W2        7561            0.0000000000
     18151      6051  TIP3      OH2           -38.1518962818       38.8364148903       13.4383968953  W2        7562            0.0000000000
     18152      6051  TIP3      H1            -37.7067362818       38.0446648903       13.7403668953  W2        7562            0.0000000000
     18153      6051  TIP3      H2            -37.6855962818       39.5529348903       13.8689568953  W2        7562            0.0000000000
     18154      6052  TIP3      OH2           -21.8152862818       38.0888548903        5.4345868953  W2        7564            0.0000000000
     18155      6052  TIP3      H1            -21.4030262818       37.3674248903        4.9593868953  W2        7564            0.0000000000
     18156      6052  TIP3      H2            -21.1336362818       38.7583148903        5.4930168953  W2        7564            0.0000000000
     18157      6053  TIP3      OH2           -39.5342162818       38.0936248903        8.5616568953  W2        7565            0.0000000000
     18158      6053  TIP3      H1            -40.4593762818       38.3022848903        8.4322068953  W2        7565            0.0000000000
     18159      6053  TIP3      H2            -39.0802262818       38.5777048903        7.8718868953  W2        7565            0.0000000000
     18160      6054  TIP3      OH2           -29.4210462818       37.7045548903       12.9147168953  W2        7568            0.0000000000
     18161      6054  TIP3      H1            -30.0953662818       37.0751148903       13.1702968953  W2        7568            0.0000000000
     18162      6054  TIP3      H2            -28.8571262818       37.2204448903       12.3115068953  W2        7568            0.0000000000
     18163      6055  TIP3      OH2           -24.2783262818       35.8119548903       13.0274268953  W2        7569            0.0000000000
     18164      6055  TIP3      H1            -23.6745662818       36.3594948903       12.5255268953  W2        7569            0.0000000000
     18165      6055  TIP3      H2            -25.1481262818       36.1309948903       12.7868368953  W2        7569            0.0000000000
     18166      6056  TIP3      OH2           -22.5512862818       36.9508248903       11.3605168953  W2        7570            0.0000000000
     18167      6056  TIP3      H1            -21.9395362818       36.4363948903       10.8338768953  W2        7570            0.0000000000
     18168      6056  TIP3      H2            -22.1689462818       37.8280348903       11.3839568953  W2        7570            0.0000000000
     18169      6057  TIP3      OH2           -37.0942962818       36.3385848903       10.7367068953  W2        7571            0.0000000000
     18170      6057  TIP3      H1            -37.8713162818       36.1040748903       10.2292968953  W2        7571            0.0000000000
     18171      6057  TIP3      H2            -36.5639362818       35.5417948903       10.7455068953  W2        7571            0.0000000000
     18172      6058  TIP3      OH2           -38.2579562818       36.1363948903        6.5403168953  W2        7572            0.0000000000
     18173      6058  TIP3      H1            -37.8188862818       36.7474448903        5.9486668953  W2        7572            0.0000000000
     18174      6058  TIP3      H2            -38.8917162818       36.6748048903        7.0143168953  W2        7572            0.0000000000
     18175      6059  TIP3      OH2           -32.5150362818       36.2652948903       10.5500168953  W2        7573            0.0000000000
     18176      6059  TIP3      H1            -31.6406962818       36.6537248903       10.5204468953  W2        7573            0.0000000000
     18177      6059  TIP3      H2            -32.6509562818       36.0500748903       11.4727368953  W2        7573            0.0000000000
     18178      6060  TIP3      OH2           -26.9581962818       36.2952748903       12.1991868953  W2        7574            0.0000000000
     18179      6060  TIP3      H1            -26.8820362818       36.3904348903       11.2497868953  W2        7574            0.0000000000
     18180      6060  TIP3      H2            -27.2332762818       35.3875648903       12.3280968953  W2        7574            0.0000000000
     18181      6061  TIP3      OH2           -25.6049362818       36.3210548903        7.8916868953  W2        7575            0.0000000000
     18182      6061  TIP3      H1            -26.3078262818       36.9359748903        7.6818268953  W2        7575            0.0000000000
     18183      6061  TIP3      H2            -26.0497962818       35.4837248903        8.0227768953  W2        7575            0.0000000000
     18184      6062  TIP3      OH2           -36.3970462818       38.0525448903        4.9827268953  W2        7576            0.0000000000
     18185      6062  TIP3      H1            -35.9057062818       37.4227848903        4.4552768953  W2        7576            0.0000000000
     18186      6062  TIP3      H2            -35.7734162818       38.3484848903        5.6458468953  W2        7576            0.0000000000
     18187      6063  TIP3      OH2           -31.3710362818       38.3456948903        7.4397768953  W2        7577            0.0000000000
     18188      6063  TIP3      H1            -31.1929062818       37.6990148903        8.1226368953  W2        7577            0.0000000000
     18189      6063  TIP3      H2            -31.4244162818       39.1794648903        7.9068868953  W2        7577            0.0000000000
     18190      6064  TIP3      OH2           -15.5419362818       39.6779048903       12.1203368953  W2        7582            0.0000000000
     18191      6064  TIP3      H1            -15.4988262818       40.5377548903       11.7019668953  W2        7582            0.0000000000
     18192      6064  TIP3      H2            -15.9995262818       39.1253748903       11.4866568953  W2        7582            0.0000000000
     18193      6065  TIP3      OH2            -7.8196662818       39.8084648903       10.5211668953  W2        7583            0.0000000000
     18194      6065  TIP3      H1             -7.1732362818       39.4797848903       11.1459268953  W2        7583            0.0000000000
     18195      6065  TIP3      H2             -7.3097262818       40.3263648903        9.8983068953  W2        7583            0.0000000000
     18196      6066  TIP3      OH2            -6.0558262818       39.0993948903       12.5017568953  W2        7585            0.0000000000
     18197      6066  TIP3      H1             -6.2710262818       38.3337348903       13.0343568953  W2        7585            0.0000000000
     18198      6066  TIP3      H2             -5.4000862818       39.5718548903       13.0146068953  W2        7585            0.0000000000
     18199      6067  TIP3      OH2           -12.7052762818       35.9012548903       13.6469068953  W2        7587            0.0000000000
     18200      6067  TIP3      H1            -12.8228562818       34.9528548903       13.5927368953  W2        7587            0.0000000000
     18201      6067  TIP3      H2            -13.5602662818       36.2338648903       13.9200168953  W2        7587            0.0000000000
     18202      6068  TIP3      OH2            -4.4632262818       35.8604748903        6.5971668953  W2        7588            0.0000000000
     18203      6068  TIP3      H1             -5.3631562818       35.9993748903        6.8922268953  W2        7588            0.0000000000
     18204      6068  TIP3      H2             -4.2113862818       36.6919348903        6.1953368953  W2        7588            0.0000000000
     18205      6069  TIP3      OH2           -15.4365162818       36.8047048903       14.4245368953  W2        7589            0.0000000000
     18206      6069  TIP3      H1            -16.2981462818       36.7175248903       14.0168268953  W2        7589            0.0000000000
     18207      6069  TIP3      H2            -15.4589462818       37.6607148903       14.8522968953  W2        7589            0.0000000000
     18208      6070  TIP3      OH2           -11.1120062818       39.0190848903        5.0843168953  W2        7591            0.0000000000
     18209      6070  TIP3      H1            -11.3655262818       39.0382448903        6.0071268953  W2        7591            0.0000000000
     18210      6070  TIP3      H2            -11.3687962818       38.1476248903        4.7829368953  W2        7591            0.0000000000
     18211      6071  TIP3      OH2           -14.2297162818       39.4647348903        4.1853568953  W2        7592            0.0000000000
     18212      6071  TIP3      H1            -14.6606462818       39.0197448903        4.9150968953  W2        7592            0.0000000000
     18213      6071  TIP3      H2            -14.9478462818       39.8363648903        3.6731068953  W2        7592            0.0000000000
     18214      6072  TIP3      OH2           -20.9873762818       39.2066848903       11.2372268953  W2        7593            0.0000000000
     18215      6072  TIP3      H1            -20.3566062818       39.1778948903       11.9566168953  W2        7593            0.0000000000
     18216      6072  TIP3      H2            -20.5379462818       38.7815548903       10.5068168953  W2        7593            0.0000000000
     18217      6073  TIP3      OH2           -12.7670662818       39.4189148903       11.5179668953  W2        7594            0.0000000000
     18218      6073  TIP3      H1            -13.6779562818       39.4755948903       11.8065668953  W2        7594            0.0000000000
     18219      6073  TIP3      H2            -12.2617762818       39.3584648903       12.3286868953  W2        7594            0.0000000000
     18220      6074  TIP3      OH2            -8.3618762818       38.6535448903       14.7821468953  W2        7595            0.0000000000
     18221      6074  TIP3      H1             -9.0387162818       38.7848548903       15.4461168953  W2        7595            0.0000000000
     18222      6074  TIP3      H2             -8.8473862818       38.4984948903       13.9719168953  W2        7595            0.0000000000
     18223      6075  TIP3      OH2           -16.4451262818       38.3428248903        9.8234068953  W2        7596            0.0000000000
     18224      6075  TIP3      H1            -16.7621762818       37.4403548903        9.7879468953  W2        7596            0.0000000000
     18225      6075  TIP3      H2            -15.6637162818       38.3445648903        9.2705668953  W2        7596            0.0000000000
     18226      6076  TIP3      OH2            -8.3785662818       39.6215848903        5.7028668953  W2        7597            0.0000000000
     18227      6076  TIP3      H1             -9.3171462818       39.7331448903        5.5517468953  W2        7597            0.0000000000
     18228      6076  TIP3      H2             -8.0813562818       40.4782748903        6.0094368953  W2        7597            0.0000000000
     18229      6077  TIP3      OH2            -8.9906662818       38.7097548903        8.1334768953  W2        7600            0.0000000000
     18230      6077  TIP3      H1             -8.7708362818       39.1812948903        7.3300168953  W2        7600            0.0000000000
     18231      6077  TIP3      H2             -8.4322662818       39.1040148903        8.8035368953  W2        7600            0.0000000000
     18232      6078  TIP3      OH2           -10.9070062818       37.5189348903        9.9064268953  W2        7601            0.0000000000
     18233      6078  TIP3      H1            -11.2536562818       38.1359948903       10.5508568953  W2        7601            0.0000000000
     18234      6078  TIP3      H2            -10.2483162818       38.0195048903        9.4249768953  W2        7601            0.0000000000
     18235      6079  TIP3      OH2           -15.2493062818       38.5818748903        6.5936768953  W2        7602            0.0000000000
     18236      6079  TIP3      H1            -15.3328262818       39.4701848903        6.9403168953  W2        7602            0.0000000000
     18237      6079  TIP3      H2            -14.3592762818       38.3165448903        6.8253568953  W2        7602            0.0000000000
     18238      6080  TIP3      OH2           -17.8666562818       36.4550548903       13.4431668953  W2        7604            0.0000000000
     18239      6080  TIP3      H1            -18.0956762818       36.5143048903       12.5156668953  W2        7604            0.0000000000
     18240      6080  TIP3      H2            -18.3093162818       35.6636048903       13.7495768953  W2        7604            0.0000000000
     18241      6081  TIP3      OH2            -5.0719562818       39.2032748903        3.8923668953  W2        7612            0.0000000000
     18242      6081  TIP3      H1             -4.4613762818       38.8319548903        4.5291868953  W2        7612            0.0000000000
     18243      6081  TIP3      H2             -5.9088062818       38.7819648903        4.0883668953  W2        7612            0.0000000000
     18244      6082  TIP3      OH2            -4.8259062818       38.0210448903        8.9065568953  W2        7614            0.0000000000
     18245      6082  TIP3      H1             -4.6434062818       37.5721948903        9.7320568953  W2        7614            0.0000000000
     18246      6082  TIP3      H2             -5.4256162818       37.4364848903        8.4430168953  W2        7614            0.0000000000
     18247      6083  TIP3      OH2           -19.2958962818       38.8364148903       13.4383968953  W2        7615            0.0000000000
     18248      6083  TIP3      H1            -18.8507362818       38.0446648903       13.7403668953  W2        7615            0.0000000000
     18249      6083  TIP3      H2            -18.8295962818       39.5529348903       13.8689568953  W2        7615            0.0000000000
     18250      6084  TIP3      OH2            -2.9592862818       38.0888548903        5.4345868953  W2        7617            0.0000000000
     18251      6084  TIP3      H1             -2.5470262818       37.3674248903        4.9593868953  W2        7617            0.0000000000
     18252      6084  TIP3      H2             -2.2776362818       38.7583148903        5.4930168953  W2        7617            0.0000000000
     18253      6085  TIP3      OH2           -20.6782162818       38.0936248903        8.5616568953  W2        7618            0.0000000000
     18254      6085  TIP3      H1            -21.6033762818       38.3022848903        8.4322068953  W2        7618            0.0000000000
     18255      6085  TIP3      H2            -20.2242262818       38.5777048903        7.8718868953  W2        7618            0.0000000000
     18256      6086  TIP3      OH2           -10.5650462818       37.7045548903       12.9147168953  W2        7621            0.0000000000
     18257      6086  TIP3      H1            -11.2393662818       37.0751148903       13.1702968953  W2        7621            0.0000000000
     18258      6086  TIP3      H2            -10.0011262818       37.2204448903       12.3115068953  W2        7621            0.0000000000
     18259      6087  TIP3      OH2            -5.4223262818       35.8119548903       13.0274268953  W2        7622            0.0000000000
     18260      6087  TIP3      H1             -4.8185662818       36.3594948903       12.5255268953  W2        7622            0.0000000000
     18261      6087  TIP3      H2             -6.2921262818       36.1309948903       12.7868368953  W2        7622            0.0000000000
     18262      6088  TIP3      OH2            -3.6952862818       36.9508248903       11.3605168953  W2        7623            0.0000000000
     18263      6088  TIP3      H1             -3.0835362818       36.4363948903       10.8338768953  W2        7623            0.0000000000
     18264      6088  TIP3      H2             -3.3129462818       37.8280348903       11.3839568953  W2        7623            0.0000000000
     18265      6089  TIP3      OH2           -18.2382962818       36.3385848903       10.7367068953  W2        7624            0.0000000000
     18266      6089  TIP3      H1            -19.0153162818       36.1040748903       10.2292968953  W2        7624            0.0000000000
     18267      6089  TIP3      H2            -17.7079362818       35.5417948903       10.7455068953  W2        7624            0.0000000000
     18268      6090  TIP3      OH2           -19.4019562818       36.1363948903        6.5403168953  W2        7625            0.0000000000
     18269      6090  TIP3      H1            -18.9628862818       36.7474448903        5.9486668953  W2        7625            0.0000000000
     18270      6090  TIP3      H2            -20.0357162818       36.6748048903        7.0143168953  W2        7625            0.0000000000
     18271      6091  TIP3      OH2           -13.6590362818       36.2652948903       10.5500168953  W2        7626            0.0000000000
     18272      6091  TIP3      H1            -12.7846962818       36.6537248903       10.5204468953  W2        7626            0.0000000000
     18273      6091  TIP3      H2            -13.7949562818       36.0500748903       11.4727368953  W2        7626            0.0000000000
     18274      6092  TIP3      OH2            -8.1021962818       36.2952748903       12.1991868953  W2        7627            0.0000000000
     18275      6092  TIP3      H1             -8.0260362818       36.3904348903       11.2497868953  W2        7627            0.0000000000
     18276      6092  TIP3      H2             -8.3772762818       35.3875648903       12.3280968953  W2        7627            0.0000000000
     18277      6093  TIP3      OH2            -6.7489362818       36.3210548903        7.8916868953  W2        7628            0.0000000000
     18278      6093  TIP3      H1             -7.4518262818       36.9359748903        7.6818268953  W2        7628            0.0000000000
     18279      6093  TIP3      H2             -7.1937962818       35.4837248903        8.0227768953  W2        7628            0.0000000000
     18280      6094  TIP3      OH2           -17.5410462818       38.0525448903        4.9827268953  W2        7629            0.0000000000
     18281      6094  TIP3      H1            -17.0497062818       37.4227848903        4.4552768953  W2        7629            0.0000000000
     18282      6094  TIP3      H2            -16.9174162818       38.3484848903        5.6458468953  W2        7629            0.0000000000
     18283      6095  TIP3      OH2           -12.5150362818       38.3456948903        7.4397768953  W2        7630            0.0000000000
     18284      6095  TIP3      H1            -12.3369062818       37.6990148903        8.1226368953  W2        7630            0.0000000000
     18285      6095  TIP3      H2            -12.5684162818       39.1794648903        7.9068868953  W2        7630            0.0000000000
     18286      6096  TIP3      OH2             3.3140637182       39.6779048903       12.1203368953  W2        7635            0.0000000000
     18287      6096  TIP3      H1              3.3571737182       40.5377548903       11.7019668953  W2        7635            0.0000000000
     18288      6096  TIP3      H2              2.8564737182       39.1253748903       11.4866568953  W2        7635            0.0000000000
     18289      6097  TIP3      OH2            11.0363337182       39.8084648903       10.5211668953  W2        7636            0.0000000000
     18290      6097  TIP3      H1             11.6827637182       39.4797848903       11.1459268953  W2        7636            0.0000000000
     18291      6097  TIP3      H2             11.5462737182       40.3263648903        9.8983068953  W2        7636            0.0000000000
     18292      6098  TIP3      OH2            12.8001737182       39.0993948903       12.5017568953  W2        7638            0.0000000000
     18293      6098  TIP3      H1             12.5849737182       38.3337348903       13.0343568953  W2        7638            0.0000000000
     18294      6098  TIP3      H2             13.4559137182       39.5718548903       13.0146068953  W2        7638            0.0000000000
     18295      6099  TIP3      OH2             6.1507237182       35.9012548903       13.6469068953  W2        7640            0.0000000000
     18296      6099  TIP3      H1              6.0331437182       34.9528548903       13.5927368953  W2        7640            0.0000000000
     18297      6099  TIP3      H2              5.2957337182       36.2338648903       13.9200168953  W2        7640            0.0000000000
     18298      6100  TIP3      OH2            14.3927737182       35.8604748903        6.5971668953  W2        7641            0.0000000000
     18299      6100  TIP3      H1             13.4928437182       35.9993748903        6.8922268953  W2        7641            0.0000000000
     18300      6100  TIP3      H2             14.6446137182       36.6919348903        6.1953368953  W2        7641            0.0000000000
     18301      6101  TIP3      OH2             3.4194837182       36.8047048903       14.4245368953  W2        7642            0.0000000000
     18302      6101  TIP3      H1              2.5578537182       36.7175248903       14.0168268953  W2        7642            0.0000000000
     18303      6101  TIP3      H2              3.3970537182       37.6607148903       14.8522968953  W2        7642            0.0000000000
     18304      6102  TIP3      OH2             7.7439937182       39.0190848903        5.0843168953  W2        7644            0.0000000000
     18305      6102  TIP3      H1              7.4904737182       39.0382448903        6.0071268953  W2        7644            0.0000000000
     18306      6102  TIP3      H2              7.4872037182       38.1476248903        4.7829368953  W2        7644            0.0000000000
     18307      6103  TIP3      OH2             4.6262837182       39.4647348903        4.1853568953  W2        7645            0.0000000000
     18308      6103  TIP3      H1              4.1953537182       39.0197448903        4.9150968953  W2        7645            0.0000000000
     18309      6103  TIP3      H2              3.9081537182       39.8363648903        3.6731068953  W2        7645            0.0000000000
     18310      6104  TIP3      OH2            -2.1313762818       39.2066848903       11.2372268953  W2        7646            0.0000000000
     18311      6104  TIP3      H1             -1.5006062818       39.1778948903       11.9566168953  W2        7646            0.0000000000
     18312      6104  TIP3      H2             -1.6819462818       38.7815548903       10.5068168953  W2        7646            0.0000000000
     18313      6105  TIP3      OH2             6.0889337182       39.4189148903       11.5179668953  W2        7647            0.0000000000
     18314      6105  TIP3      H1              5.1780437182       39.4755948903       11.8065668953  W2        7647            0.0000000000
     18315      6105  TIP3      H2              6.5942237182       39.3584648903       12.3286868953  W2        7647            0.0000000000
     18316      6106  TIP3      OH2            10.4941237182       38.6535448903       14.7821468953  W2        7648            0.0000000000
     18317      6106  TIP3      H1              9.8172837182       38.7848548903       15.4461168953  W2        7648            0.0000000000
     18318      6106  TIP3      H2             10.0086137182       38.4984948903       13.9719168953  W2        7648            0.0000000000
     18319      6107  TIP3      OH2             2.4108737182       38.3428248903        9.8234068953  W2        7649            0.0000000000
     18320      6107  TIP3      H1              2.0938237182       37.4403548903        9.7879468953  W2        7649            0.0000000000
     18321      6107  TIP3      H2              3.1922837182       38.3445648903        9.2705668953  W2        7649            0.0000000000
     18322      6108  TIP3      OH2            10.4774337182       39.6215848903        5.7028668953  W2        7650            0.0000000000
     18323      6108  TIP3      H1              9.5388537182       39.7331448903        5.5517468953  W2        7650            0.0000000000
     18324      6108  TIP3      H2             10.7746437182       40.4782748903        6.0094368953  W2        7650            0.0000000000
     18325      6109  TIP3      OH2             9.8653337182       38.7097548903        8.1334768953  W2        7653            0.0000000000
     18326      6109  TIP3      H1             10.0851637182       39.1812948903        7.3300168953  W2        7653            0.0000000000
     18327      6109  TIP3      H2             10.4237337182       39.1040148903        8.8035368953  W2        7653            0.0000000000
     18328      6110  TIP3      OH2             7.9489937182       37.5189348903        9.9064268953  W2        7654            0.0000000000
     18329      6110  TIP3      H1              7.6023437182       38.1359948903       10.5508568953  W2        7654            0.0000000000
     18330      6110  TIP3      H2              8.6076837182       38.0195048903        9.4249768953  W2        7654            0.0000000000
     18331      6111  TIP3      OH2             3.6066937182       38.5818748903        6.5936768953  W2        7655            0.0000000000
     18332      6111  TIP3      H1              3.5231737182       39.4701848903        6.9403168953  W2        7655            0.0000000000
     18333      6111  TIP3      H2              4.4967237182       38.3165448903        6.8253568953  W2        7655            0.0000000000
     18334      6112  TIP3      OH2             0.9893437182       36.4550548903       13.4431668953  W2        7657            0.0000000000
     18335      6112  TIP3      H1              0.7603237182       36.5143048903       12.5156668953  W2        7657            0.0000000000
     18336      6112  TIP3      H2              0.5466837182       35.6636048903       13.7495768953  W2        7657            0.0000000000
     18337      6113  TIP3      OH2            13.7840437182       39.2032748903        3.8923668953  W2        7665            0.0000000000
     18338      6113  TIP3      H1             14.3946237182       38.8319548903        4.5291868953  W2        7665            0.0000000000
     18339      6113  TIP3      H2             12.9471937182       38.7819648903        4.0883668953  W2        7665            0.0000000000
     18340      6114  TIP3      OH2            14.0300937182       38.0210448903        8.9065568953  W2        7667            0.0000000000
     18341      6114  TIP3      H1             14.2125937182       37.5721948903        9.7320568953  W2        7667            0.0000000000
     18342      6114  TIP3      H2             13.4303837182       37.4364848903        8.4430168953  W2        7667            0.0000000000
     18343      6115  TIP3      OH2            -0.4398962818       38.8364148903       13.4383968953  W2        7668            0.0000000000
     18344      6115  TIP3      H1              0.0052637182       38.0446648903       13.7403668953  W2        7668            0.0000000000
     18345      6115  TIP3      H2              0.0264037182       39.5529348903       13.8689568953  W2        7668            0.0000000000
     18346      6116  TIP3      OH2            15.8967137182       38.0888548903        5.4345868953  W2        7670            0.0000000000
     18347      6116  TIP3      H1             16.3089737182       37.3674248903        4.9593868953  W2        7670            0.0000000000
     18348      6116  TIP3      H2             16.5783637182       38.7583148903        5.4930168953  W2        7670            0.0000000000
     18349      6117  TIP3      OH2            -1.8222162818       38.0936248903        8.5616568953  W2        7671            0.0000000000
     18350      6117  TIP3      H1             -2.7473762818       38.3022848903        8.4322068953  W2        7671            0.0000000000
     18351      6117  TIP3      H2             -1.3682262818       38.5777048903        7.8718868953  W2        7671            0.0000000000
     18352      6118  TIP3      OH2             8.2909537182       37.7045548903       12.9147168953  W2        7674            0.0000000000
     18353      6118  TIP3      H1              7.6166337182       37.0751148903       13.1702968953  W2        7674            0.0000000000
     18354      6118  TIP3      H2              8.8548737182       37.2204448903       12.3115068953  W2        7674            0.0000000000
     18355      6119  TIP3      OH2            13.4336737182       35.8119548903       13.0274268953  W2        7675            0.0000000000
     18356      6119  TIP3      H1             14.0374337182       36.3594948903       12.5255268953  W2        7675            0.0000000000
     18357      6119  TIP3      H2             12.5638737182       36.1309948903       12.7868368953  W2        7675            0.0000000000
     18358      6120  TIP3      OH2            15.1607137182       36.9508248903       11.3605168953  W2        7676            0.0000000000
     18359      6120  TIP3      H1             15.7724637182       36.4363948903       10.8338768953  W2        7676            0.0000000000
     18360      6120  TIP3      H2             15.5430537182       37.8280348903       11.3839568953  W2        7676            0.0000000000
     18361      6121  TIP3      OH2             0.6177037182       36.3385848903       10.7367068953  W2        7677            0.0000000000
     18362      6121  TIP3      H1             -0.1593162818       36.1040748903       10.2292968953  W2        7677            0.0000000000
     18363      6121  TIP3      H2              1.1480637182       35.5417948903       10.7455068953  W2        7677            0.0000000000
     18364      6122  TIP3      OH2            -0.5459562818       36.1363948903        6.5403168953  W2        7678            0.0000000000
     18365      6122  TIP3      H1             -0.1068862818       36.7474448903        5.9486668953  W2        7678            0.0000000000
     18366      6122  TIP3      H2             -1.1797162818       36.6748048903        7.0143168953  W2        7678            0.0000000000
     18367      6123  TIP3      OH2             5.1969637182       36.2652948903       10.5500168953  W2        7679            0.0000000000
     18368      6123  TIP3      H1              6.0713037182       36.6537248903       10.5204468953  W2        7679            0.0000000000
     18369      6123  TIP3      H2              5.0610437182       36.0500748903       11.4727368953  W2        7679            0.0000000000
     18370      6124  TIP3      OH2            10.7538037182       36.2952748903       12.1991868953  W2        7680            0.0000000000
     18371      6124  TIP3      H1             10.8299637182       36.3904348903       11.2497868953  W2        7680            0.0000000000
     18372      6124  TIP3      H2             10.4787237182       35.3875648903       12.3280968953  W2        7680            0.0000000000
     18373      6125  TIP3      OH2            12.1070637182       36.3210548903        7.8916868953  W2        7681            0.0000000000
     18374      6125  TIP3      H1             11.4041737182       36.9359748903        7.6818268953  W2        7681            0.0000000000
     18375      6125  TIP3      H2             11.6622037182       35.4837248903        8.0227768953  W2        7681            0.0000000000
     18376      6126  TIP3      OH2             1.3149537182       38.0525448903        4.9827268953  W2        7682            0.0000000000
     18377      6126  TIP3      H1              1.8062937182       37.4227848903        4.4552768953  W2        7682            0.0000000000
     18378      6126  TIP3      H2              1.9385837182       38.3484848903        5.6458468953  W2        7682            0.0000000000
     18379      6127  TIP3      OH2             6.3409637182       38.3456948903        7.4397768953  W2        7683            0.0000000000
     18380      6127  TIP3      H1              6.5190937182       37.6990148903        8.1226368953  W2        7683            0.0000000000
     18381      6127  TIP3      H2              6.2875837182       39.1794648903        7.9068868953  W2        7683            0.0000000000
     18382      6128  TIP3      OH2            22.1700637182       39.6779048903       12.1203368953  W2        7688            0.0000000000
     18383      6128  TIP3      H1             22.2131737182       40.5377548903       11.7019668953  W2        7688            0.0000000000
     18384      6128  TIP3      H2             21.7124737182       39.1253748903       11.4866568953  W2        7688            0.0000000000
     18385      6129  TIP3      OH2            29.8923337182       39.8084648903       10.5211668953  W2        7689            0.0000000000
     18386      6129  TIP3      H1             30.5387637182       39.4797848903       11.1459268953  W2        7689            0.0000000000
     18387      6129  TIP3      H2             30.4022737182       40.3263648903        9.8983068953  W2        7689            0.0000000000
     18388      6130  TIP3      OH2            31.6561737182       39.0993948903       12.5017568953  W2        7691            0.0000000000
     18389      6130  TIP3      H1             31.4409737182       38.3337348903       13.0343568953  W2        7691            0.0000000000
     18390      6130  TIP3      H2             32.3119137182       39.5718548903       13.0146068953  W2        7691            0.0000000000
     18391      6131  TIP3      OH2            25.0067237182       35.9012548903       13.6469068953  W2        7693            0.0000000000
     18392      6131  TIP3      H1             24.8891437182       34.9528548903       13.5927368953  W2        7693            0.0000000000
     18393      6131  TIP3      H2             24.1517337182       36.2338648903       13.9200168953  W2        7693            0.0000000000
     18394      6132  TIP3      OH2            33.2487737182       35.8604748903        6.5971668953  W2        7694            0.0000000000
     18395      6132  TIP3      H1             32.3488437182       35.9993748903        6.8922268953  W2        7694            0.0000000000
     18396      6132  TIP3      H2             33.5006137182       36.6919348903        6.1953368953  W2        7694            0.0000000000
     18397      6133  TIP3      OH2            22.2754837182       36.8047048903       14.4245368953  W2        7695            0.0000000000
     18398      6133  TIP3      H1             21.4138537182       36.7175248903       14.0168268953  W2        7695            0.0000000000
     18399      6133  TIP3      H2             22.2530537182       37.6607148903       14.8522968953  W2        7695            0.0000000000
     18400      6134  TIP3      OH2            26.5999937182       39.0190848903        5.0843168953  W2        7697            0.0000000000
     18401      6134  TIP3      H1             26.3464737182       39.0382448903        6.0071268953  W2        7697            0.0000000000
     18402      6134  TIP3      H2             26.3432037182       38.1476248903        4.7829368953  W2        7697            0.0000000000
     18403      6135  TIP3      OH2            23.4822837182       39.4647348903        4.1853568953  W2        7698            0.0000000000
     18404      6135  TIP3      H1             23.0513537182       39.0197448903        4.9150968953  W2        7698            0.0000000000
     18405      6135  TIP3      H2             22.7641537182       39.8363648903        3.6731068953  W2        7698            0.0000000000
     18406      6136  TIP3      OH2            16.7246237182       39.2066848903       11.2372268953  W2        7699            0.0000000000
     18407      6136  TIP3      H1             17.3553937182       39.1778948903       11.9566168953  W2        7699            0.0000000000
     18408      6136  TIP3      H2             17.1740537182       38.7815548903       10.5068168953  W2        7699            0.0000000000
     18409      6137  TIP3      OH2            24.9449337182       39.4189148903       11.5179668953  W2        7700            0.0000000000
     18410      6137  TIP3      H1             24.0340437182       39.4755948903       11.8065668953  W2        7700            0.0000000000
     18411      6137  TIP3      H2             25.4502237182       39.3584648903       12.3286868953  W2        7700            0.0000000000
     18412      6138  TIP3      OH2            29.3501237182       38.6535448903       14.7821468953  W2        7701            0.0000000000
     18413      6138  TIP3      H1             28.6732837182       38.7848548903       15.4461168953  W2        7701            0.0000000000
     18414      6138  TIP3      H2             28.8646137182       38.4984948903       13.9719168953  W2        7701            0.0000000000
     18415      6139  TIP3      OH2            21.2668737182       38.3428248903        9.8234068953  W2        7702            0.0000000000
     18416      6139  TIP3      H1             20.9498237182       37.4403548903        9.7879468953  W2        7702            0.0000000000
     18417      6139  TIP3      H2             22.0482837182       38.3445648903        9.2705668953  W2        7702            0.0000000000
     18418      6140  TIP3      OH2            29.3334337182       39.6215848903        5.7028668953  W2        7703            0.0000000000
     18419      6140  TIP3      H1             28.3948537182       39.7331448903        5.5517468953  W2        7703            0.0000000000
     18420      6140  TIP3      H2             29.6306437182       40.4782748903        6.0094368953  W2        7703            0.0000000000
     18421      6141  TIP3      OH2            28.7213337182       38.7097548903        8.1334768953  W2        7706            0.0000000000
     18422      6141  TIP3      H1             28.9411637182       39.1812948903        7.3300168953  W2        7706            0.0000000000
     18423      6141  TIP3      H2             29.2797337182       39.1040148903        8.8035368953  W2        7706            0.0000000000
     18424      6142  TIP3      OH2            26.8049937182       37.5189348903        9.9064268953  W2        7707            0.0000000000
     18425      6142  TIP3      H1             26.4583437182       38.1359948903       10.5508568953  W2        7707            0.0000000000
     18426      6142  TIP3      H2             27.4636837182       38.0195048903        9.4249768953  W2        7707            0.0000000000
     18427      6143  TIP3      OH2            22.4626937182       38.5818748903        6.5936768953  W2        7708            0.0000000000
     18428      6143  TIP3      H1             22.3791737182       39.4701848903        6.9403168953  W2        7708            0.0000000000
     18429      6143  TIP3      H2             23.3527237182       38.3165448903        6.8253568953  W2        7708            0.0000000000
     18430      6144  TIP3      OH2            19.8453437182       36.4550548903       13.4431668953  W2        7710            0.0000000000
     18431      6144  TIP3      H1             19.6163237182       36.5143048903       12.5156668953  W2        7710            0.0000000000
     18432      6144  TIP3      H2             19.4026837182       35.6636048903       13.7495768953  W2        7710            0.0000000000
     18433      6145  TIP3      OH2            32.6400437182       39.2032748903        3.8923668953  W2        7718            0.0000000000
     18434      6145  TIP3      H1             33.2506237182       38.8319548903        4.5291868953  W2        7718            0.0000000000
     18435      6145  TIP3      H2             31.8031937182       38.7819648903        4.0883668953  W2        7718            0.0000000000
     18436      6146  TIP3      OH2            32.8860937182       38.0210448903        8.9065568953  W2        7720            0.0000000000
     18437      6146  TIP3      H1             33.0685937182       37.5721948903        9.7320568953  W2        7720            0.0000000000
     18438      6146  TIP3      H2             32.2863837182       37.4364848903        8.4430168953  W2        7720            0.0000000000
     18439      6147  TIP3      OH2            18.4161037182       38.8364148903       13.4383968953  W2        7721            0.0000000000
     18440      6147  TIP3      H1             18.8612637182       38.0446648903       13.7403668953  W2        7721            0.0000000000
     18441      6147  TIP3      H2             18.8824037182       39.5529348903       13.8689568953  W2        7721            0.0000000000
     18442      6148  TIP3      OH2            34.7527137182       38.0888548903        5.4345868953  W2        7723            0.0000000000
     18443      6148  TIP3      H1             35.1649737182       37.3674248903        4.9593868953  W2        7723            0.0000000000
     18444      6148  TIP3      H2             35.4343637182       38.7583148903        5.4930168953  W2        7723            0.0000000000
     18445      6149  TIP3      OH2            17.0337837182       38.0936248903        8.5616568953  W2        7724            0.0000000000
     18446      6149  TIP3      H1             16.1086237182       38.3022848903        8.4322068953  W2        7724            0.0000000000
     18447      6149  TIP3      H2             17.4877737182       38.5777048903        7.8718868953  W2        7724            0.0000000000
     18448      6150  TIP3      OH2            27.1469537182       37.7045548903       12.9147168953  W2        7727            0.0000000000
     18449      6150  TIP3      H1             26.4726337182       37.0751148903       13.1702968953  W2        7727            0.0000000000
     18450      6150  TIP3      H2             27.7108737182       37.2204448903       12.3115068953  W2        7727            0.0000000000
     18451      6151  TIP3      OH2            32.2896737182       35.8119548903       13.0274268953  W2        7728            0.0000000000
     18452      6151  TIP3      H1             32.8934337182       36.3594948903       12.5255268953  W2        7728            0.0000000000
     18453      6151  TIP3      H2             31.4198737182       36.1309948903       12.7868368953  W2        7728            0.0000000000
     18454      6152  TIP3      OH2            34.0167137182       36.9508248903       11.3605168953  W2        7729            0.0000000000
     18455      6152  TIP3      H1             34.6284637182       36.4363948903       10.8338768953  W2        7729            0.0000000000
     18456      6152  TIP3      H2             34.3990537182       37.8280348903       11.3839568953  W2        7729            0.0000000000
     18457      6153  TIP3      OH2            19.4737037182       36.3385848903       10.7367068953  W2        7730            0.0000000000
     18458      6153  TIP3      H1             18.6966837182       36.1040748903       10.2292968953  W2        7730            0.0000000000
     18459      6153  TIP3      H2             20.0040637182       35.5417948903       10.7455068953  W2        7730            0.0000000000
     18460      6154  TIP3      OH2            18.3100437182       36.1363948903        6.5403168953  W2        7731            0.0000000000
     18461      6154  TIP3      H1             18.7491137182       36.7474448903        5.9486668953  W2        7731            0.0000000000
     18462      6154  TIP3      H2             17.6762837182       36.6748048903        7.0143168953  W2        7731            0.0000000000
     18463      6155  TIP3      OH2            24.0529637182       36.2652948903       10.5500168953  W2        7732            0.0000000000
     18464      6155  TIP3      H1             24.9273037182       36.6537248903       10.5204468953  W2        7732            0.0000000000
     18465      6155  TIP3      H2             23.9170437182       36.0500748903       11.4727368953  W2        7732            0.0000000000
     18466      6156  TIP3      OH2            29.6098037182       36.2952748903       12.1991868953  W2        7733            0.0000000000
     18467      6156  TIP3      H1             29.6859637182       36.3904348903       11.2497868953  W2        7733            0.0000000000
     18468      6156  TIP3      H2             29.3347237182       35.3875648903       12.3280968953  W2        7733            0.0000000000
     18469      6157  TIP3      OH2            30.9630637182       36.3210548903        7.8916868953  W2        7734            0.0000000000
     18470      6157  TIP3      H1             30.2601737182       36.9359748903        7.6818268953  W2        7734            0.0000000000
     18471      6157  TIP3      H2             30.5182037182       35.4837248903        8.0227768953  W2        7734            0.0000000000
     18472      6158  TIP3      OH2            20.1709537182       38.0525448903        4.9827268953  W2        7735            0.0000000000
     18473      6158  TIP3      H1             20.6622937182       37.4227848903        4.4552768953  W2        7735            0.0000000000
     18474      6158  TIP3      H2             20.7945837182       38.3484848903        5.6458468953  W2        7735            0.0000000000
     18475      6159  TIP3      OH2            25.1969637182       38.3456948903        7.4397768953  W2        7736            0.0000000000
     18476      6159  TIP3      H1             25.3750937182       37.6990148903        8.1226368953  W2        7736            0.0000000000
     18477      6159  TIP3      H2             25.1435837182       39.1794648903        7.9068868953  W2        7736            0.0000000000
     18478      6160  TIP3      OH2            35.5806237182       39.2066848903       11.2372268953  W2        7740            0.0000000000
     18479      6160  TIP3      H1             36.2113937182       39.1778948903       11.9566168953  W2        7740            0.0000000000
     18480      6160  TIP3      H2             36.0300537182       38.7815548903       10.5068168953  W2        7740            0.0000000000
     18481      6161  TIP3      OH2            38.7013437182       36.4550548903       13.4431668953  W2        7742            0.0000000000
     18482      6161  TIP3      H1             38.4723237182       36.5143048903       12.5156668953  W2        7742            0.0000000000
     18483      6161  TIP3      H2             38.2586837182       35.6636048903       13.7495768953  W2        7742            0.0000000000
     18484      6162  TIP3      OH2            37.2721037182       38.8364148903       13.4383968953  W2        7744            0.0000000000
     18485      6162  TIP3      H1             37.7172637182       38.0446648903       13.7403668953  W2        7744            0.0000000000
     18486      6162  TIP3      H2             37.7384037182       39.5529348903       13.8689568953  W2        7744            0.0000000000
     18487      6163  TIP3      OH2            35.8897837182       38.0936248903        8.5616568953  W2        7745            0.0000000000
     18488      6163  TIP3      H1             34.9646237182       38.3022848903        8.4322068953  W2        7745            0.0000000000
     18489      6163  TIP3      H2             36.3437737182       38.5777048903        7.8718868953  W2        7745            0.0000000000
     18490      6164  TIP3      OH2            38.3297037182       36.3385848903       10.7367068953  W2        7747            0.0000000000
     18491      6164  TIP3      H1             37.5526837182       36.1040748903       10.2292968953  W2        7747            0.0000000000
     18492      6164  TIP3      H2             38.8600637182       35.5417948903       10.7455068953  W2        7747            0.0000000000
     18493      6165  TIP3      OH2            37.1660437182       36.1363948903        6.5403168953  W2        7748            0.0000000000
     18494      6165  TIP3      H1             37.6051137182       36.7474448903        5.9486668953  W2        7748            0.0000000000
     18495      6165  TIP3      H2             36.5322837182       36.6748048903        7.0143168953  W2        7748            0.0000000000
     18496      6166  TIP3      OH2            39.0269537182       38.0525448903        4.9827268953  W2        7749            0.0000000000
     18497      6166  TIP3      H1             39.5182937182       37.4227848903        4.4552768953  W2        7749            0.0000000000
     18498      6166  TIP3      H2             39.6505837182       38.3484848903        5.6458468953  W2        7749            0.0000000000
