* GENERATED BY CHARMM-GUI (HTTP://WWW.CHARMM-GUI.ORG) V3.1 ON OCT, 03. 2020. JOB
* GENERATES LIPID PACKING USING BIG SPHERES
*  DATE:    10/ 3/20     19:12:58      CREATED BY USER: apache
*
       200  EXT
         1         1  POPE      POLO           34.3670926214        8.3058396056       12.0717183477  HEAD      1               0.0000000000
         2         2  POPE      POLO           11.3423006215       37.6255384139       12.0836100791  HEAD      2               0.0000000000
         3         3  POPE      POLO          -16.2440779158        1.9905055136       11.9330723408  HEAD      3               0.0000000000
         4         4  POPE      POLO           25.1962053276      -38.9821573813       12.0244347525  HEAD      4               0.0000000000
         5         5  POPE      POLO          -38.4025120015       37.0574145003       11.9331983889  HEAD      5               0.0000000000
         6         6  POPE      POLO           17.6159590137      -37.5646401789       11.9435028938  HEAD      6               0.0000000000
         7         7  POPE      POLO           38.2859724334      -34.6475787850       12.1626746767  HEAD      7               0.0000000000
         8         8  POPE      POLO          -19.5113686835      -36.3979833357       11.9474624940  HEAD      8               0.0000000000
         9         9  POPE      POLO          -13.6995688316      -22.7857598956       12.0163306226  HEAD      9               0.0000000000
        10        10  POPE      POLO          -16.6257313418       10.3228587891       11.8912302535  HEAD      10              0.0000000000
        11        11  POPE      POLO          -36.8836601165      -12.3326274659       11.9239720448  HEAD      11              0.0000000000
        12        12  POPE      POLO           -4.2767383680      -34.6991565288       11.9766666035  HEAD      12              0.0000000000
        13        13  POPE      POLO           13.0996561194        3.0333893644       11.9981530656  HEAD      13              0.0000000000
        14        14  OYPE      POLO           -2.1066002758       19.6404074236       11.8396035417  HEAD      14              0.0000000000
        15        15  OYPE      POLO           -7.0480053353      -18.2531974845       12.0505652811  HEAD      15              0.0000000000
        16        16  OYPE      POLO           36.5583380955       30.8741592002       11.9848233303  HEAD      16              0.0000000000
        17        17  OYPE      POLO          -15.5592734544       -6.3541599617       11.9597559184  HEAD      17              0.0000000000
        18        18  OYPE      POLO           35.4956824404       -8.8862957878       11.9409373626  HEAD      18              0.0000000000
        19        19  OYPE      POLO            4.9587012076       24.5429754142       11.9243041750  HEAD      19              0.0000000000
        20        20  OYPE      POLO          -22.3542702002      -10.9711462772       11.8495454496  HEAD      20              0.0000000000
        21        21  OYPE      POLO           -5.8967380440      -26.5465062640       12.1312713599  HEAD      21              0.0000000000
        22        22  PYPG      POLO            5.9013860510       -1.2884324150       11.9031137799  HEAD      22              0.0000000000
        23        23  PYPG      POLO           29.1577283166      -22.4477048551       11.8777465050  HEAD      23              0.0000000000
        24        24  PYPG      POLO           19.0774590949       15.7890057967       12.0919984033  HEAD      24              0.0000000000
        25        25  PYPG      POLO          -38.0539011467        4.6763534249       11.9915966059  HEAD      25              0.0000000000
        26        26  PYPG      POLO          -29.9822264365       -7.3592913010       11.8330989399  HEAD      26              0.0000000000
        27        27  PYPG      POLO           12.3508665091       11.4819425560       11.9623800922  HEAD      27              0.0000000000
        28        28  PYPG      POLO            6.9193603422       -9.4718916965       11.9777680745  HEAD      28              0.0000000000
        29        29  PYPG      POLO           33.1065335931       38.5843484515       11.9762346472  HEAD      29              0.0000000000
        30        30  PYPG      POLO          -14.6002155408      -14.5714786513       11.9325918221  HEAD      30              0.0000000000
        31        31  PVCL2     POLO           20.7571696089      -28.3972976453       11.9212559951  HEAD      31              0.0000000000
        32        32  PVCL2     POLO          -33.4094012784       28.7636122207       11.9737018643  HEAD      32              0.0000000000
        33        33  QMPE      POLO           -2.4586366151       28.1091863570       12.0079092992  HEAD      33              0.0000000000
        34        34  QMPE      POLO          -10.9361748777      -39.6418675454       11.9316865294  HEAD      34              0.0000000000
        35        35  QMPE      POLO          -33.3099601065      -36.9171669890       12.2114071189  HEAD      35              0.0000000000
        36        36  QMPE      POLO            4.4294308414       33.0228093059       11.9604963702  HEAD      36              0.0000000000
        37        37  QMPE      POLO           31.5926093555       24.9990576650       11.9611602073  HEAD      37              0.0000000000
        38        38  QMPE      POLO           27.9522016807       -5.1873948025       12.0955551769  HEAD      38              0.0000000000
        39        39  QMPE      POLO            7.4967037002      -17.9846039348       11.9140436123  HEAD      39              0.0000000000
        40        40  QMPE      POLO           -1.6565323376        2.7924163360       11.9991478235  HEAD      40              0.0000000000
        41        41  QMPE      POLO          -36.1771521964      -20.8460306180       11.9334783719  HEAD      41              0.0000000000
        42        42  QMPE      POLO           19.0024973253       34.0685015088       11.9430614329  HEAD      42              0.0000000000
        43        43  QMPE      POLO          -17.6420728977       35.4455039435       12.0566359477  HEAD      43              0.0000000000
        44        44  QMPE      POLO            5.5020457109        7.2203615569       12.2096247886  HEAD      44              0.0000000000
        45        45  PMPE      POLO           19.7575354866        7.4756911026       12.0081440674  HEAD      45              0.0000000000
        46        46  PMPE      POLO           36.6295819498      -26.1720694896       12.0117130559  HEAD      46              0.0000000000
        47        47  PMPE      POLO           26.5066983669       11.8279946017       11.9994852634  HEAD      47              0.0000000000
        48        48  PMPE      POLO            3.0943809971      -29.7770771182       12.0867242197  HEAD      48              0.0000000000
        49        49  PMPE      POLO           28.4558361841      -13.8860738579       11.9859377289  HEAD      49              0.0000000000
        50        50  PMPE      POLO           13.8210487066       -5.3369955579       11.9840613652  HEAD      50              0.0000000000
        51        51  PMPE      POLO            0.5832106058      -21.7498771276       12.0720797205  HEAD      51              0.0000000000
        52        52  PMPE      POLO           27.4931709172        3.5019340590       11.9353200553  HEAD      52              0.0000000000
        53        53  PMPE      POLO           35.9959940507      -17.6283911282       12.0333669139  HEAD      53              0.0000000000
        54        54  PMPE      POLO           -9.1061702061        6.6158634985       12.0948181570  HEAD      54              0.0000000000
        55        55  PMPE      POLO           14.3915378216      -14.0353568108       11.9711900281  HEAD      55              0.0000000000
        56        56  PMPE      POLO           30.0978168522      -31.9011571258       12.0157402441  HEAD      56              0.0000000000
        57        57  PMPE      POLO           20.7424728068       -0.8418053770       11.9998033275  HEAD      57              0.0000000000
        58        58  PMPE      POLO           33.2156325177       16.6200826116       12.0296568925  HEAD      58              0.0000000000
        59        59  PMPE      POLO           -9.4065785654       15.1895358575       11.9166195122  HEAD      59              0.0000000000
        60        60  PMPE      POLO           19.6702694328       25.6292948434       11.8174566443  HEAD      60              0.0000000000
        61        61  PMPE      POLO          -16.9762527018       26.7910644051       12.0409167462  HEAD      61              0.0000000000
        62        62  PMPE      POLO            3.7725534146      -38.0805572692       11.9807899830  HEAD      62              0.0000000000
        63        63  PMPE      POLO          -35.3595215627      -28.9424173911       11.9859547238  HEAD      63              0.0000000000
        64        64  PMPE      POLO           27.3575121047       32.1506019591       12.1040114321  HEAD      64              0.0000000000
        65        65  PMPE      POLO           21.3011171493      -18.7471458063       11.8709232393  HEAD      65              0.0000000000
        66        66  PMPE      POLO           25.5060508648       20.1173844006       12.0899896613  HEAD      66              0.0000000000
        67        67  PMPE      POLO           21.1887423429       -9.6602956573       12.0679851187  HEAD      67              0.0000000000
        68        68  PMPE      POLO          -17.1119376335       18.7484971372       11.9447069806  HEAD      68              0.0000000000
        69        69  PMPE      POLO           11.3320625071      -25.1092327762       12.2325324182  HEAD      69              0.0000000000
        70        70  PMPE      POLO           -3.2651036943       36.7850137399       11.9605730894  HEAD      70              0.0000000000
        71        71  PMPE      POLO           34.8519366346       -0.2604196631       12.0385796845  HEAD      71              0.0000000000
        72        72  PMPE      POLO          -23.1009530966       -2.5034920346       11.9721253534  HEAD      72              0.0000000000
        73        73  PMPE      POLO            5.1387653177       15.8553004305       12.0440545334  HEAD      73              0.0000000000
        74        74  PMPE      POLO          -26.5382794375       38.5091328615       12.0072044751  HEAD      74              0.0000000000
        75        75  PMPE      POLO          -28.2369589675      -24.2227178736       11.9762036630  HEAD      75              0.0000000000
        76        76  PMPE      POLO          -12.5366123764      -31.4868870261       11.9594189545  HEAD      76              0.0000000000
        77        77  PMPE      POLO          -37.6876427414       -3.8595910782       11.9722389199  HEAD      77              0.0000000000
        78        78  PMPE      POLO           -7.7371895841       -9.8991232733       12.0317969485  HEAD      78              0.0000000000
        79        79  PMPE      POLO          -31.7236076202       18.4897496834       12.0282173838  HEAD      79              0.0000000000
        80        80  PMPE      POLO           39.6037898292       22.1231033738       11.9858278938  HEAD      80              0.0000000000
        81        81  PMPE      POLO          -38.6203450876       13.5671510896       12.0870156573  HEAD      81              0.0000000000
        82        82  PMPE      POLO          -20.1545060635      -27.9284461310       12.0498074372  HEAD      82              0.0000000000
        83        83  PMPE      POLO          -24.5959912194       22.6508630459       12.0169582918  HEAD      83              0.0000000000
        84        84  PMPE      POLO          -24.2542128824       30.7432528525       11.9195120309  HEAD      84              0.0000000000
        85        85  PMPE      POLO          -10.1244021378       32.0124182511       11.9705849874  HEAD      85              0.0000000000
        86        86  PMPE      POLO          -23.7860693178        5.7154931620       11.9484626449  HEAD      86              0.0000000000
        87        87  PMPE      POLO           -0.9813535078       -5.4984461214       12.0164215691  HEAD      87              0.0000000000
        88        88  PMPE      POLO          -26.7787069748      -32.2796615977       12.0802686065  HEAD      88              0.0000000000
        89        89  PMPE      POLO          -21.5718861751      -19.3923240293       11.9759022658  HEAD      89              0.0000000000
        90        90  PMPE      POLO           -0.2113650470      -13.7559476396       11.9887127405  HEAD      90              0.0000000000
        91        91  PMPG      POLO          -31.1660947034        9.6857186709       12.0313228729  HEAD      91              0.0000000000
        92        92  PMPG      POLO          -30.5941740665        1.0298276503       11.9899589007  HEAD      92              0.0000000000
        93        93  PMPG      POLO           12.0748899535       29.1168180517       12.0656690255  HEAD      93              0.0000000000
        94        94  PMPG      POLO          -23.9993654830       14.3937057781       12.0455315598  HEAD      94              0.0000000000
        95        95  PMPG      POLO           -8.7951562357       -1.7216673871       12.0887626362  HEAD      95              0.0000000000
        96        96  PMPG      POLO           10.8333795893      -33.1393997275       12.0303158024  HEAD      96              0.0000000000
        97        97  PMPG      POLO           -2.0163353868       11.2710006898       11.9983198299  HEAD      97              0.0000000000
        98        98  PMPG      POLO           -9.5995978561       23.4033127385       12.0421924516  HEAD      98              0.0000000000
        99        99  PMPG      POLO           12.3285010617       20.5459592187       12.0066844044  HEAD      99              0.0000000000
       100       100  PMPG      POLO          -29.0927788479      -15.8708457921       12.0422881113  HEAD      100             0.0000000000
       101       101  POPE      POLO           16.7366672970        1.5628227908      -12.0286844133  HEAD      101             0.0000000000
       102       102  POPE      POLO          -30.6853786789       21.5978144703      -11.9673247059  HEAD      102             0.0000000000
       103       103  POPE      POLO          -11.5245789894      -11.4039144025      -11.9442271131  HEAD      103             0.0000000000
       104       104  POPE      POLO           32.7664510127       18.4667816122      -11.9631834894  HEAD      104             0.0000000000
       105       105  POPE      POLO           35.6350903430      -31.6468377570      -11.9258971588  HEAD      105             0.0000000000
       106       106  POPE      POLO            2.3017498940        5.5826770905      -12.0887060102  HEAD      106             0.0000000000
       107       107  POPE      POLO           16.5607885722      -20.7129472920      -11.9119075299  HEAD      107             0.0000000000
       108       108  POPE      POLO           23.6040974420       38.6135531463      -12.0023793697  HEAD      108             0.0000000000
       109       109  POPE      POLO           36.9904304327       -9.7702898483      -11.9706884389  HEAD      109             0.0000000000
       110       110  POPE      POLO           26.9239627134      -33.2451644297      -11.9368174822  HEAD      110             0.0000000000
       111       111  POPE      POLO            4.1572961493       27.0801232262      -12.0262940527  HEAD      111             0.0000000000
       112       112  POPE      POLO          -31.4911543349      -22.7565225820      -12.0016654341  HEAD      112             0.0000000000
       113       113  POPE      POLO           31.2446066178       -3.3955946167      -12.0463552127  HEAD      113             0.0000000000
       114       114  OYPE      POLO           -8.3208584863       18.5531707424      -11.9748579184  HEAD      114             0.0000000000
       115       115  OYPE      POLO          -19.7122557478      -34.0407596213      -12.0542498744  HEAD      115             0.0000000000
       116       116  OYPE      POLO          -36.5561244626        5.7725264195      -12.0317493826  HEAD      116             0.0000000000
       117       117  OYPE      POLO           -4.8316161460       26.2248914002      -12.1282595514  HEAD      117             0.0000000000
       118       118  OYPE      POLO           22.0424633843      -26.8546511724      -12.0909466462  HEAD      118             0.0000000000
       119       119  OYPE      POLO          -25.6140957570       -6.7555709336      -12.0709322569  HEAD      119             0.0000000000
       120       120  OYPE      POLO           15.5672760758       36.7193463117      -11.9624516308  HEAD      120             0.0000000000
       121       121  OYPE      POLO          -22.5833899443        1.0531490747      -11.7967187659  HEAD      121             0.0000000000
       122       122  PYPG      POLO          -39.6611315507       -1.9449671676      -11.9591344597  HEAD      122             0.0000000000
       123       123  PYPG      POLO           25.1123424538      -18.8881249616      -12.0707862086  HEAD      123             0.0000000000
       124       124  PYPG      POLO            7.1920324925       35.0609759140      -12.0696891846  HEAD      124             0.0000000000
       125       125  PYPG      POLO           10.2379896607      -36.5766290591      -11.9552814446  HEAD      125             0.0000000000
       126       126  PYPG      POLO          -28.4597971623      -14.6955270301      -12.0434331130  HEAD      126             0.0000000000
       127       127  PYPG      POLO          -36.4861521210       27.2489669333      -12.0108111328  HEAD      127             0.0000000000
       128       128  PYPG      POLO            8.1868886850      -22.1334753055      -12.0210758671  HEAD      128             0.0000000000
       129       129  PYPG      POLO          -14.5606313561      -18.9422707532      -11.8070996005  HEAD      129             0.0000000000
       130       130  PYPG      POLO          -38.7595299735      -37.9827469639      -11.9478940940  HEAD      130             0.0000000000
       131       131  PVCL2     POLO           18.2058958833       11.3966421874      -11.9215949092  HEAD      131             0.0000000000
       132       132  PVCL2     POLO          -26.9536868897      -39.7794958444      -11.9885253894  HEAD      132             0.0000000000
       133       133  QMPE      POLO           24.8951960744       17.7672225763      -12.1472080044  HEAD      133             0.0000000000
       134       134  QMPE      POLO           -8.8479368613       -3.7608463194      -12.0062231720  HEAD      134             0.0000000000
       135       135  QMPE      POLO           14.1198586984       -6.4415121649      -12.0694344935  HEAD      135             0.0000000000
       136       136  QMPE      POLO           25.2393131886        3.5195752059      -11.9988757303  HEAD      136             0.0000000000
       137       137  QMPE      POLO          -37.1916458716      -16.4925889746      -12.0475604635  HEAD      137             0.0000000000
       138       138  QMPE      POLO           39.5266098830      -24.3596051793      -12.0082265957  HEAD      138             0.0000000000
       139       139  QMPE      POLO            5.0742156261      -30.2316863769      -11.9549989128  HEAD      139             0.0000000000
       140       140  QMPE      POLO          -11.5106523644      -33.2625928342      -11.8686668029  HEAD      140             0.0000000000
       141       141  QMPE      POLO           19.6321458248      -12.6774298768      -12.0652858810  HEAD      141             0.0000000000
       142       142  QMPE      POLO           13.4609879212      -28.4474435887      -11.9369226591  HEAD      142             0.0000000000
       143       143  QMPE      POLO          -16.6694919118       17.2270422796      -11.9888033106  HEAD      143             0.0000000000
       144       144  QMPE      POLO            4.9953532652       -8.4918585040      -12.0296293487  HEAD      144             0.0000000000
       145       145  PMPE      POLO           29.2120147362       10.8054168353      -11.8960121451  HEAD      145             0.0000000000
       146       146  PMPE      POLO           12.3529322260       28.4750238562      -11.9015078093  HEAD      146             0.0000000000
       147       147  PMPE      POLO            2.0087841001      -38.1375678841      -12.0207318986  HEAD      147             0.0000000000
       148       148  PMPE      POLO            2.3930839236      -16.1502039358      -11.9901862346  HEAD      148             0.0000000000
       149       149  PMPE      POLO           27.0621924712       25.3106459180      -11.9366229300  HEAD      149             0.0000000000
       150       150  PMPE      POLO           -6.0120750694      -17.5039934221      -11.8870593589  HEAD      150             0.0000000000
       151       151  PMPE      POLO           35.1894065434       26.2382924315      -12.0019566096  HEAD      151             0.0000000000
       152       152  PMPE      POLO            0.6131198038       19.6055363270      -12.0771177618  HEAD      152             0.0000000000
       153       153  PMPE      POLO           -1.3884073245       33.6390566538      -12.0173102000  HEAD      153             0.0000000000
       154       154  PMPE      POLO           10.3335599084       20.2082338081      -12.0346321388  HEAD      154             0.0000000000
       155       155  PMPE      POLO          -15.3968813188       38.9803456916      -12.0047022104  HEAD      155             0.0000000000
       156       156  PMPE      POLO          -23.2956518797      -21.1044672372      -11.9204511643  HEAD      156             0.0000000000
       157       157  PMPE      POLO           20.8607992443       30.6123253887      -11.9823534353  HEAD      157             0.0000000000
       158       158  PMPE      POLO           22.6252643935       -4.6937505264      -12.0109785875  HEAD      158             0.0000000000
       159       159  PMPE      POLO           -0.5513006603      -23.8964311107      -11.9587503483  HEAD      159             0.0000000000
       160       160  PMPE      POLO           -6.5091327643      -39.7999709521      -11.9732756655  HEAD      160             0.0000000000
       161       161  PMPE      POLO          -17.2838490877      -26.5403289496      -12.0541112236  HEAD      161             0.0000000000
       162       162  PMPE      POLO          -34.1160021428       -8.5456471543      -11.9731395504  HEAD      162             0.0000000000
       163       163  PMPE      POLO            5.8620239998       13.2340191024      -11.9920530262  HEAD      163             0.0000000000
       164       164  PMPE      POLO          -19.4402056895       31.8507578790      -11.9403095455  HEAD      164             0.0000000000
       165       165  PMPE      POLO          -14.3918527339        2.5960520580      -11.9523648990  HEAD      165             0.0000000000
       166       166  PMPE      POLO           33.8287356478      -17.5292935145      -12.0036674332  HEAD      166             0.0000000000
       167       167  PMPE      POLO          -10.3477286091       32.5969816037      -11.9599615889  HEAD      167             0.0000000000
       168       168  PMPE      POLO           28.2731212079      -10.9974476567      -12.0031582037  HEAD      168             0.0000000000
       169       169  PMPE      POLO           11.0964372188      -14.3585513983      -12.0269176869  HEAD      169             0.0000000000
       170       170  PMPE      POLO           -3.1360504363       -9.8097927641      -12.0155869304  HEAD      170             0.0000000000
       171       171  PMPE      POLO           18.3412982234       22.6590432394      -11.9119871981  HEAD      171             0.0000000000
       172       172  PMPE      POLO          -20.1655939127      -13.2339618422      -12.0405873967  HEAD      172             0.0000000000
       173       173  PMPE      POLO           29.3338177881       32.8980889794      -12.0856268503  HEAD      173             0.0000000000
       174       174  PMPE      POLO          -22.0710249278       23.7762523207      -12.0111320210  HEAD      174             0.0000000000
       175       175  PMPE      POLO           -3.0191113623       12.0977942080      -12.0218434919  HEAD      175             0.0000000000
       176       176  PMPE      POLO          -19.7066318319        9.1800848175      -11.9518108842  HEAD      176             0.0000000000
       177       177  PMPE      POLO           -9.0196595622      -25.2645171575      -11.8744087644  HEAD      177             0.0000000000
       178       178  PMPE      POLO           10.3502284233        6.4863594972      -12.0393892477  HEAD      178             0.0000000000
       179       179  PMPE      POLO           -6.0177606799        4.2882067063      -12.0130309451  HEAD      179             0.0000000000
       180       180  PMPE      POLO          -26.2649867057      -29.2676686790      -12.0307641245  HEAD      180             0.0000000000
       181       181  PMPE      POLO           37.7131308691       11.9746703058      -11.9618405472  HEAD      181             0.0000000000
       182       182  PMPE      POLO            8.1115554430       -1.1538647731      -12.0290633888  HEAD      182             0.0000000000
       183       183  PMPE      POLO           18.3801589971      -35.0451012248      -11.9755461792  HEAD      183             0.0000000000
       184       184  PMPE      POLO           37.5263236413       34.1679346610      -12.0581371907  HEAD      184             0.0000000000
       185       185  PMPE      POLO           -3.2881571278      -31.6418411617      -12.0127966573  HEAD      185             0.0000000000
       186       186  PMPE      POLO          -38.8702018704       19.5233126469      -11.9097028086  HEAD      186             0.0000000000
       187       187  PMPE      POLO          -31.0700101525       -0.5634588016      -12.0485520105  HEAD      187             0.0000000000
       188       188  PMPE      POLO          -34.7355438907      -30.8802730398      -12.0507247596  HEAD      188             0.0000000000
       189       189  PMPE      POLO           32.3956929546      -39.2833708457      -11.9665507112  HEAD      189             0.0000000000
       190       190  PMPE      POLO          -13.6477018065       25.0186392579      -11.9734152735  HEAD      190             0.0000000000
       191       191  PMPG      POLO          -27.7553119551       29.8824192282      -11.9797421502  HEAD      191             0.0000000000
       192       192  PMPG      POLO           -0.3210935465       -2.1130693636      -12.0458273113  HEAD      192             0.0000000000
       193       193  PMPG      POLO           34.3464185702        4.2884691701      -11.9507092608  HEAD      193             0.0000000000
       194       194  PMPG      POLO          -33.4386801340       13.7720234533      -11.9512497450  HEAD      194             0.0000000000
       195       195  PMPG      POLO          -28.1973946671        7.3814907458      -12.0409913684  HEAD      195             0.0000000000
       196       196  PMPG      POLO          -34.5244949579       34.8027505946      -12.0847790375  HEAD      196             0.0000000000
       197       197  PMPG      POLO          -17.0832592384       -5.2757806114      -12.0998277391  HEAD      197             0.0000000000
       198       198  PMPG      POLO           30.5299816405      -25.1293533018      -11.9901129265  HEAD      198             0.0000000000
       199       199  PMPG      POLO          -11.4670590123       10.5982229855      -11.9968127973  HEAD      199             0.0000000000
       200       200  PMPG      POLO          -24.9308168317       15.5250060802      -12.0553269793  HEAD      200             0.0000000000
